Title
43134
    1CHL1    C3    1   2.498   0.716   6.861 -0.1521 -0.1713  0.1681
    1CHL1    H3    2   2.607   0.698   6.861  0.1021  1.2334  0.6528
    1CHL1    O3    3   2.460   0.748   6.996 -0.6848 -0.4236  0.9726
    1CHL1   H3'    4   2.413   0.831   6.988  1.2333  0.7371  1.0713
    1CHL1    C4    5   2.457   0.835   6.777 -0.1803 -0.6535 -0.2594
    1CHL1   H4A    6   2.352   0.860   6.804 -0.1157 -0.9664  0.3034
    1CHL1   H4B    7   2.515   0.925   6.806 -2.2055  0.7572 -0.3473
    1CHL1    C5    8   2.470   0.816   6.627  0.1398  0.2983  0.2542
    1CHL1    C6    9   2.547   0.899   6.554 -0.1795 -0.5988  1.0254
    1CHL1    H6   10   2.589   0.991   6.597 -1.3228  0.1537  0.5841
    1CHL1    C7   11   2.566   0.881   6.406  0.0532  0.2909 -0.1245
    1CHL1   H7A   12   2.547   0.973   6.346  0.8331  0.3510 -0.2840
    1CHL1   H7B   13   2.669   0.844   6.387 -0.6910 -2.4664  0.7309
    1CHL1    C8   14   2.479   0.779   6.339 -0.0516 -0.0588  0.0698
    1CHL1    H8   15   2.374   0.813   6.328  0.5012  1.7515 -0.0762
    1CHL1   C14   16   2.533   0.748   6.201  0.1079 -0.3571  0.2154
    1CHL1   H14   17   2.633   0.702   6.217 -0.2835 -0.6675  1.9806
    1CHL1   C15   18   2.556   0.868   6.101  0.2980  0.3079  0.1875
    1CHL1  H15A   19   2.471   0.940   6.097  0.8429  0.9007 -1.6144
    1CHL1  H15B   20   2.643   0.931   6.129 -0.2443  0.2408  2.1559
    1CHL1   C16   21   2.566   0.804   5.963  0.0456  0.1165  0.3301
    1CHL1  H16A   22   2.494   0.837   5.885  1.1130  0.5614 -0.4782
    1CHL1  H16B   23   2.663   0.823   5.914 -0.5422  0.4995 -0.7067
    1CHL1   C17   24   2.534   0.647   5.987  0.0017  0.0709 -0.6673
    1CHL1   H17   25   2.633   0.601   6.007  0.4038  1.1220 -0.1888
    1CHL1   C13   26   2.449   0.644   6.119 -0.3264 -0.3798 -0.8346
    1CHL1   C18   27   2.308   0.693   6.093  0.8377  0.2731  0.1673
    1CHL1  H18A   28   2.309   0.802   6.071  0.3423  0.0066 -1.3021
    1CHL1  H18B   29   2.256   0.649   6.005 -0.6417  0.6992  0.7986
    1CHL1  H18C   30   2.251   0.681   6.187  1.4366 -1.0243  0.3719
    1CHL1   C12   31   2.461   0.514   6.197 -0.0447  1.1112 -0.4266
    1CHL1  H12A   32   2.397   0.433   6.157  1.6568  0.0991 -1.1840
    1CHL1  H12B   33   2.566   0.478   6.200 -0.2677  0.4725 -0.1505
    1CHL1   C11   34   2.408   0.530   6.345 -0.0066  0.3951  0.1399
    1CHL1  H11A   35   2.298   0.545   6.334  0.1294  0.7205 -0.8597
    1CHL1  H11B   36   2.421   0.438   6.406 -1.6221  0.5620  0.7868
    1CHL1    C9   37   2.468   0.649   6.428 -0.7324 -0.1936  0.0971
    1CHL1    H9   38   2.574   0.619   6.439 -0.4620  0.2290 -1.2318
    1CHL1   C10   39   2.401   0.677   6.575 -0.2720  0.3399 -0.0066
    1CHL1   C19   40   2.252   0.687   6.569  0.1164 -0.0790 -0.2903
    1CHL1  H19A   41   2.217   0.740   6.660  1.4097  0.0677  0.1436
    1CHL1  H19B   42   2.217   0.748   6.483 -1.3514  0.3481  0.5994
    1CHL1  H19C   43   2.198   0.592   6.550  1.7140 -0.8265 -1.3583
    1CHL1    C1   44   2.443   0.564   6.667  0.7383  0.2196  0.1803
    1CHL1   H1A   45   2.382   0.477   6.632  2.2746 -0.2933 -1.3058
    1CHL1   H1B   46   2.547   0.535   6.644 -0.2995 -1.2433 -3.3010
    1CHL1    C2   47   2.415   0.597   6.818 -0.5087  0.8129 -0.1937
    1CHL1   H2A   48   2.452   0.508   6.873 -2.8514 -0.9843 -1.3031
    1CHL1   H2B   49   2.307   0.613   6.840 -0.3049 -0.3028  1.9003
    1CHL1   C20   50   2.473   0.573   5.862  0.0244  0.3796  0.4102
    1CHL1   H20   51   2.368   0.606   5.842 -0.0035 -0.1350 -0.3428
    1CHL1   C21   52   2.467   0.417   5.883 -0.9403 -0.0416  0.2904
    1CHL1  H21A   53   2.565   0.370   5.904 -0.1380  2.0090  1.3464
    1CHL1  H21B   54   2.444   0.372   5.784  1.5144 -0.3482 -0.1797
    1CHL1  H21C   55   2.390   0.382   5.955 -0.1879 -2.4589  0.0126
    1CHL1   C22   56   2.548   0.605   5.725  0.1111  0.3176 -0.8585
    1CHL1  H22A   57   2.496   0.558   5.640 -1.8933 -0.3758  0.6779
    1CHL1  H22B   58   2.552   0.715   5.712 -1.2049  0.2819 -1.6930
    1CHL1   C23   59   2.690   0.563   5.721  0.0018  0.2022  0.1368
    1CHL1  H23A   60   2.745   0.571   5.817  1.2805  0.5362 -0.5930
    1CHL1  H23B   61   2.693   0.456   5.688 -1.9141 -0.9406  3.2886
    1CHL1   C24   62   2.780   0.643   5.622 -0.0438 -0.0002  0.1703
    1CHL1  H24A   63   2.733   0.654   5.522  3.8237  0.5988 -1.7740
    1CHL1  H24B   64   2.776   0.747   5.662 -3.0424  0.2341 -0.4882
    1CHL1   C25   65   2.936   0.593   5.613  0.3088  0.1262  0.5315
    1CHL1   H25   66   2.999   0.627   5.699  1.5391 -0.1092 -0.2496
    1CHL1   C26   67   2.954   0.442   5.615  0.7527 -0.9848  0.0636
    1CHL1  H26A   68   2.952   0.420   5.724 -2.2627  0.9934  0.5044
    1CHL1  H26B   69   2.877   0.384   5.559 -0.8059  0.3206  0.7788
    1CHL1  H26C   70   3.052   0.413   5.571 -0.2058 -0.0937 -2.8351
    1CHL1   C27   71   2.999   0.648   5.485  0.3120 -0.0210 -0.1764
    1CHL1  H27A   72   2.938   0.634   5.393 -1.4761  0.0763  0.9422
    1CHL1  H27B   73   3.005   0.759   5.489 -2.5899  0.1651  1.9413
    1CHL1  H27C   74   3.101   0.606   5.474  0.0494 -0.8057  0.3202
    2CHL1    C3   75   0.874   2.373   7.169 -0.1051 -0.2390  0.3595
    2CHL1    H3   76   0.920   2.281   7.126 -0.4165  0.3268 -1.2578
    2CHL1    O3   77   0.864   2.357   7.312  0.2211 -0.5854 -0.0640
    2CHL1   H3'   78   0.844   2.442   7.351 -1.1707 -0.0787 -1.7570
    2CHL1    C4   79   0.969   2.482   7.127  0.0530 -0.0696 -0.1049
    2CHL1   H4A   80   0.925   2.576   7.169  0.6624  1.0089 -1.7998
    2CHL1   H4B   81   1.059   2.478   7.192 -1.2991  1.9901  2.1111
    2CHL1    C5   82   0.990   2.508   6.978  0.5613  0.1090 -0.2128
    2CHL1    C6   83   1.101   2.493   6.912  0.2581 -0.5132 -0.2483
    2CHL1    H6   84   1.188   2.462   6.972  0.2824  2.4779  1.4789
    2CHL1    C7   85   1.117   2.512   6.770  0.0683 -0.2234  0.5193
    2CHL1   H7A   86   1.200   2.585   6.757 -3.1591  3.4655 -1.5293
    2CHL1   H7B   87   1.136   2.410   6.730  1.2234  0.9126 -2.0963
    2CHL1    C8   88   0.992   2.565   6.697  0.2796  0.3396  0.1984
    2CHL1    H8   89   0.992   2.675   6.717 -1.2614  0.2822  0.6077
    2CHL1   C14   90   1.003   2.530   6.552  0.6258  0.3532 -0.3568
    2CHL1   H14   91   0.997   2.419   6.556 -3.8206  0.3906 -1.5977
    2CHL1   C15   92   1.138   2.575   6.478 -0.0268 -0.1656  0.0449
    2CHL1  H15A   93   1.151   2.685   6.489 -1.8546  0.1701 -0.7042
    2CHL1  H15B   94   1.226   2.515   6.507  0.8336 -0.2797 -2.5279
    2CHL1   C16   95   1.098   2.557   6.335 -0.4875  0.2154 -0.0648
    2CHL1  H16A   96   1.124   2.647   6.275  3.2870 -0.4908  0.2486
    2CHL1  H16B   97   1.140   2.473   6.275  0.9903  0.9216 -0.0591
    2CHL1   C17   98   0.945   2.532   6.321 -0.1259 -0.1667 -0.2252
    2CHL1   H17   99   0.926   2.423   6.310 -0.2757 -0.1718  0.0860
    2CHL1   C13  100   0.893   2.581   6.456  0.3043  0.1663 -0.5263
    2CHL1   C18  101   0.884   2.737   6.460 -0.2915  0.7512 -0.0098
    2CHL1  H18A  102   0.785   2.756   6.414 -0.6658 -1.0074  0.0227
    2CHL1  H18B  103   0.877   2.769   6.567 -1.8929 -0.3935  0.2557
    2CHL1  H18C  104   0.964   2.792   6.406  1.0922 -2.3849 -1.3921
    2CHL1   C12  105   0.766   2.512   6.501  0.2309  0.5582  0.1146
    2CHL1  H12A  106   0.673   2.525   6.441  0.6273 -0.9501 -0.8832
    2CHL1  H12B  107   0.776   2.401   6.504 -0.9565  0.4212 -0.4275
    2CHL1   C11  108   0.742   2.539   6.655 -0.3400 -0.2378 -0.7394
    2CHL1  H11A  109   0.719   2.646   6.672 -0.3564 -0.5578  1.7048
    2CHL1  H11B  110   0.657   2.470   6.676  0.0326 -0.6602 -0.5881
    2CHL1    C9  111   0.859   2.504   6.750 -0.4273 -0.3915  0.0098
    2CHL1    H9  112   0.863   2.393   6.740 -2.5575 -0.7854  2.4047
    2CHL1   C10  113   0.846   2.528   6.902  0.4839  0.1710 -0.6953
    2CHL1   C19  114   0.800   2.672   6.942  0.1145  0.5979 -0.0019
    2CHL1  H19A  115   0.701   2.691   6.894 -0.8709 -2.1075  0.7319
    2CHL1  H19B  116   0.778   2.681   7.050 -0.6454 -2.1858  0.1695
    2CHL1  H19C  117   0.880   2.745   6.918 -0.3091  1.0192 -0.1341
    2CHL1    C1  118   0.743   2.414   6.948 -0.8573 -0.6361  0.1532
    2CHL1   H1A  119   0.637   2.437   6.924 -1.4962 -2.7832  0.7204
    2CHL1   H1B  120   0.769   2.315   6.906 -1.8536 -0.4817 -0.8774
    2CHL1    C2  121   0.736   2.397   7.101 -0.0243  0.3026 -0.7642
    2CHL1   H2A  122   0.662   2.321   7.135 -0.7313  0.6123 -1.5598
    2CHL1   H2B  123   0.701   2.492   7.146  0.7316  0.5643 -0.7330
    2CHL1   C20  124   0.885   2.592   6.193 -0.1914  0.5465  0.2100
    2CHL1   H20  125   0.903   2.701   6.201 -1.0126  0.9426 -2.3962
    2CHL1   C21  126   0.731   2.572   6.192 -0.2196  0.3662 -0.5670
    2CHL1  H21A  127   0.678   2.643   6.260  0.5190 -1.1006  1.6474
    2CHL1  H21B  128   0.698   2.473   6.230 -0.4928  1.7932  3.4664
    2CHL1  H21C  129   0.682   2.597   6.095 -3.2042  1.9369  1.1616
    2CHL1   C22  130   0.964   2.550   6.065  1.1660  0.3989  0.2449
    2CHL1  H22A  131   1.071   2.578   6.071  1.2118  0.7811 -1.8821
    2CHL1  H22B  132   0.949   2.440   6.057 -0.9610  0.8175 -3.8795
    2CHL1   C23  133   0.908   2.615   5.938 -0.1648  0.3614 -0.2434
    2CHL1  H23A  134   0.800   2.595   5.922 -0.8243  1.2490  2.5796
    2CHL1  H23B  135   0.905   2.726   5.952 -1.3419  0.4750 -1.1654
    2CHL1   C24  136   0.987   2.573   5.811  0.0709 -0.5860  0.1734
    2CHL1  H24A  137   1.094   2.598   5.823 -0.3539  1.2177  0.4937
    2CHL1  H24B  138   0.994   2.462   5.808  3.1789 -0.5480  1.9460
    2CHL1   C25  139   0.936   2.629   5.676  0.7687 -0.2947  0.3680
    2CHL1   H25  140   0.825   2.627   5.681  0.6451  2.9201  1.0645
    2CHL1   C26  141   0.976   2.780   5.661  0.0655  0.1511  0.0516
    2CHL1  H26A  142   1.085   2.791   5.641  0.3011  0.7303  1.5230
    2CHL1  H26B  143   0.930   2.823   5.570  1.4828  0.1209 -0.7094
    2CHL1  H26C  144   0.951   2.840   5.751 -1.4712 -0.3105 -0.0439
    2CHL1   C27  145   0.992   2.547   5.557  0.1608  0.8935 -0.2520
    2CHL1  H27A  146   0.998   2.438   5.581 -0.2670  1.2007  1.3854
    2CHL1  H27B  147   0.938   2.574   5.463 -0.7795  0.8740  0.2672
    2CHL1  H27C  148   1.094   2.585   5.540  0.0598  2.1542  1.6850
    3CHL1    C3  149   3.754   4.505   7.367  0.1927  0.4497 -0.1938
    3CHL1    H3  150   3.835   4.437   7.401  0.2196 -0.4018 -1.8579
    3CHL1    O3  151   3.682   4.543   7.486 -0.0328 -0.6172 -0.0147
    3CHL1   H3'  152   3.605   4.595   7.461  0.5844  0.3214 -0.0114
    3CHL1    C4  153   3.812   4.634   7.292  0.2079  0.2729 -0.8107
    3CHL1   H4A  154   3.723   4.700   7.278  0.8269  1.5567  0.9655
    3CHL1   H4B  155   3.873   4.677   7.374 -0.8727 -0.1905  0.2600
    3CHL1    C5  156   3.893   4.599   7.173 -0.3984  0.6293 -0.4063
    3CHL1    C6  157   4.021   4.631   7.158 -0.3430 -0.3026 -0.4359
    3CHL1    H6  158   4.073   4.687   7.236 -1.1112 -0.2729  0.0622
    3CHL1    C7  159   4.106   4.592   7.037  0.7023  0.6100  0.0867
    3CHL1   H7A  160   4.186   4.659   6.997  0.7142  0.5126 -0.0533
    3CHL1   H7B  161   4.172   4.507   7.068  0.7622  0.4969 -0.3453
    3CHL1    C8  162   4.011   4.549   6.914 -1.0170 -1.0393 -0.5932
    3CHL1    H8  163   3.967   4.643   6.875 -0.6646 -0.8108 -0.4436
    3CHL1   C14  164   4.086   4.482   6.802  0.0230 -0.0124 -0.3419
    3CHL1   H14  165   4.125   4.392   6.854  0.4102  0.4430  0.1656
    3CHL1   C15  166   4.214   4.551   6.750 -0.7433 -0.5447 -0.8032
    3CHL1  H15A  167   4.201   4.662   6.749 -3.3620 -0.7817 -0.0622
    3CHL1  H15B  168   4.298   4.522   6.816 -1.3875  2.8416  1.7724
    3CHL1   C16  169   4.251   4.488   6.624  0.5214  0.2313  0.0078
    3CHL1  H16A  170   4.242   4.569   6.548  3.2513 -1.0147 -1.8260
    3CHL1  H16B  171   4.345   4.430   6.619  1.6247  2.0427 -2.1342
    3CHL1   C17  172   4.132   4.384   6.588  0.0106  0.0298  1.1964
    3CHL1   H17  173   4.166   4.294   6.644  0.9114 -0.1887  0.3216
    3CHL1   C13  174   4.013   4.435   6.677 -0.6672  0.3871 -0.0433
    3CHL1   C18  175   3.949   4.557   6.610 -0.5688  0.4084 -1.0393
    3CHL1  H18A  176   3.876   4.593   6.686  1.0933  0.3713  0.6434
    3CHL1  H18B  177   4.018   4.642   6.593  0.6711 -0.5278 -0.7903
    3CHL1  H18C  178   3.890   4.528   6.520 -0.5780 -1.0671 -0.5818
    3CHL1   C12  179   3.907   4.324   6.725 -0.2553  0.0633  0.1312
    3CHL1  H12A  180   3.839   4.297   6.641 -0.7204  2.0723 -0.1778
    3CHL1  H12B  181   3.955   4.231   6.763 -1.2548 -0.7492 -0.5182
    3CHL1   C11  182   3.830   4.387   6.844  0.3984  0.4127  0.4158
    3CHL1  H11A  183   3.757   4.457   6.798  0.1172 -0.6035 -0.7439
    3CHL1  H11B  184   3.772   4.295   6.870  1.5774 -0.2137  0.9057
    3CHL1    C9  185   3.905   4.456   6.958  0.2551 -0.1861  0.0742
    3CHL1    H9  186   3.964   4.377   7.008 -0.2554 -0.6785 -0.0871
    3CHL1   C10  187   3.817   4.506   7.072 -0.0660  0.0385 -0.1498
    3CHL1   C19  188   3.702   4.592   7.015  0.2587 -0.1380  0.0190
    3CHL1  H19A  189   3.754   4.666   6.950  0.5737  1.6250  2.1399
    3CHL1  H19B  190   3.625   4.542   6.953 -0.1663 -0.0864  0.5000
    3CHL1  H19C  191   3.649   4.653   7.092  1.0111 -0.5618  0.9034
    3CHL1    C1  192   3.765   4.381   7.149 -0.3234  0.2280 -1.2590
    3CHL1   H1A  193   3.693   4.326   7.083 -3.7085  1.8814  0.7648
    3CHL1   H1B  194   3.846   4.313   7.182 -0.5417  0.8012  0.5544
    3CHL1    C2  195   3.681   4.420   7.268 -0.1696 -0.2479  0.3311
    3CHL1   H2A  196   3.652   4.325   7.318  2.5217 -0.9255  0.7382
    3CHL1   H2B  197   3.590   4.469   7.228  0.7898  0.1255 -1.5015
    3CHL1   C20  198   4.104   4.372   6.437 -0.3004  0.0250 -0.2149
    3CHL1   H20  199   4.065   4.465   6.391 -1.6627 -1.5720 -2.4916
    3CHL1   C21  200   4.004   4.258   6.412 -0.7793  0.1855 -1.1330
    3CHL1  H21A  201   4.013   4.207   6.313  1.8943 -1.4166 -0.1744
    3CHL1  H21B  202   3.904   4.304   6.427  0.3680  2.3374  0.5672
    3CHL1  H21C  203   4.024   4.177   6.485 -2.9130 -1.0077 -1.7973
    3CHL1   C22  204   4.238   4.343   6.361  0.5735  0.2188 -0.1528
    3CHL1  H22A  205   4.218   4.377   6.257  1.7457  0.4098 -0.3208
    3CHL1  H22B  206   4.321   4.409   6.393  0.5019  0.0656  0.3514
    3CHL1   C23  207   4.285   4.192   6.357 -0.0508 -0.0136 -0.5875
    3CHL1  H23A  208   4.264   4.136   6.450  1.9798 -0.9142 -0.6075
    3CHL1  H23B  209   4.225   4.138   6.281 -0.8268 -0.1343  0.0938
    3CHL1   C24  210   4.433   4.183   6.320 -0.9805 -0.0160 -0.3877
    3CHL1  H24A  211   4.455   4.235   6.225  2.3334 -0.7782 -0.1437
    3CHL1  H24B  212   4.498   4.213   6.405 -2.6365 -1.7123  1.5994
    3CHL1   C25  213   4.485   4.039   6.285  0.0506  0.5041  0.4092
    3CHL1   H25  214   4.434   4.014   6.189 -0.7040 -1.1226  1.2016
    3CHL1   C26  215   4.634   4.043   6.261  0.3150  0.0644  0.2884
    3CHL1  H26A  216   4.661   3.939   6.236  0.8328  0.0493  0.8997
    3CHL1  H26B  217   4.669   4.085   6.164  1.3857 -2.9105 -0.7159
    3CHL1  H26C  218   4.703   4.072   6.343  1.9463 -1.0055 -0.6578
    3CHL1   C27  219   4.446   3.935   6.391 -0.7396 -0.5868 -0.1212
    3CHL1  H27A  220   4.524   3.944   6.469 -0.6518 -1.1082 -0.1445
    3CHL1  H27B  221   4.347   3.935   6.441 -0.5128 -1.1179  0.3414
    3CHL1  H27C  222   4.456   3.835   6.343  1.6712 -1.0772  1.2183
    4CHL1    C3  223   2.919   0.959   7.147 -0.1235 -0.0504  0.2116
    4CHL1    H3  224   2.852   1.047   7.137 -3.3661 -2.3174  0.2543
    4CHL1    O3  225   2.894   0.894   7.277  0.0352  0.7186 -0.1318
    4CHL1   H3'  226   2.943   0.813   7.289 -1.5639 -0.1318  0.8790
    4CHL1    C4  227   2.885   0.876   7.027  0.1400  0.2023 -0.3623
    4CHL1   H4A  228   2.926   0.776   7.054 -1.6139  0.1568  2.5635
    4CHL1   H4B  229   2.776   0.857   7.016  0.3928 -0.0770 -3.2231
    4CHL1    C5  230   2.938   0.925   6.895 -0.3996 -0.3709 -0.4379
    4CHL1    C6  231   2.855   0.938   6.799 -0.3173  0.7480  0.1632
    4CHL1    H6  232   2.752   0.907   6.822  0.2806  0.3534  2.5747
    4CHL1    C7  233   2.882   1.005   6.669 -0.0731  0.2750 -0.0702
    4CHL1   H7A  234   2.839   0.943   6.588 -0.7487  0.8476 -0.1595
    4CHL1   H7B  235   2.836   1.106   6.662 -0.8295  0.0199  1.0060
    4CHL1    C8  236   3.032   1.015   6.644 -0.3501  0.4323  0.4312
    4CHL1    H8  237   3.065   0.911   6.625  0.0464  0.7633 -0.7905
    4CHL1   C14  238   3.061   1.099   6.514 -0.5114  0.3494 -1.4360
    4CHL1   H14  239   3.006   1.193   6.533  0.4586  0.3164  2.1189
    4CHL1   C15  240   3.009   1.035   6.384 -0.7268 -0.6603  0.7030
    4CHL1  H15A  241   3.030   0.925   6.382  3.6655 -0.0052  1.3163
    4CHL1  H15B  242   2.900   1.056   6.373 -0.9676 -1.3627  1.6445
    4CHL1   C16  243   3.087   1.111   6.276  0.4013 -0.2630  0.3525
    4CHL1  H16A  244   3.132   1.036   6.208  2.0254  0.0596  1.0162
    4CHL1  H16B  245   3.015   1.172   6.218  1.7570 -0.0560 -1.1816
    4CHL1   C17  246   3.197   1.192   6.352  0.2594  0.2271 -0.1856
    4CHL1   H17  247   3.147   1.286   6.381 -0.0517  0.5525 -1.6937
    4CHL1   C13  248   3.208   1.123   6.490  0.2524 -0.3634  0.2388
    4CHL1   C18  249   3.281   0.988   6.464 -0.2661  0.0798 -0.3730
    4CHL1  H18A  250   3.259   0.949   6.363  0.6462 -0.4462 -0.3800
    4CHL1  H18B  251   3.390   0.988   6.483 -0.3187 -0.3600 -0.0449
    4CHL1  H18C  252   3.237   0.906   6.524 -1.0446  0.3155 -0.6070
    4CHL1   C12  253   3.265   1.202   6.609  0.4654 -0.5091 -0.4691
    4CHL1  H12A  254   3.371   1.232   6.601  0.6184 -1.1244 -0.8461
    4CHL1  H12B  255   3.209   1.298   6.611 -0.9726 -1.1513 -3.6205
    4CHL1   C11  256   3.253   1.116   6.734  0.2608  0.2039  0.3951
    4CHL1  H11A  257   3.316   1.025   6.736 -0.8289 -0.6803 -1.7868
    4CHL1  H11B  258   3.296   1.176   6.817 -2.1859  0.7300  1.3875
    4CHL1    C9  259   3.102   1.078   6.768  0.0276 -0.5448  0.5222
    4CHL1    H9  260   3.044   1.172   6.778 -0.9656 -1.1604  0.6369
    4CHL1   C10  261   3.075   0.985   6.883  0.4679  0.5639 -0.2331
    4CHL1   C19  262   3.179   0.873   6.883  0.5878 -0.2226  0.2408
    4CHL1  H19A  263   3.275   0.926   6.905 -0.0760  0.7885  0.7885
    4CHL1  H19B  264   3.170   0.802   6.967 -1.4932 -2.6707 -1.8725
    4CHL1  H19C  265   3.182   0.810   6.791  1.0653 -0.5008  0.4439
    4CHL1    C1  266   3.093   1.073   7.011  0.1562  0.6531 -0.2227
    4CHL1   H1A  267   3.193   1.115   7.030 -1.2041  3.8265  0.5405
    4CHL1   H1B  268   3.030   1.164   7.001 -0.1116  0.3360 -1.8114
    4CHL1    C2  269   3.071   1.003   7.145 -0.3156 -0.3586  0.3610
    4CHL1   H2A  270   3.094   1.056   7.240 -1.9003 -0.9031  1.0823
    4CHL1   H2B  271   3.132   0.910   7.141 -0.5824 -0.5080 -0.6365
    4CHL1   C20  272   3.319   1.228   6.267 -0.0459 -0.7619  0.2342
    4CHL1   H20  273   3.373   1.140   6.225  1.2474  1.5355 -3.3572
    4CHL1   C21  274   3.421   1.323   6.335  0.6723  0.3864  0.1774
    4CHL1  H21A  275   3.501   1.354   6.264  0.5478  1.5137  0.5258
    4CHL1  H21B  276   3.475   1.278   6.421 -0.9726  1.3229  1.7743
    4CHL1  H21C  277   3.372   1.408   6.387 -0.4936 -0.2114  0.0790
    4CHL1   C22  278   3.270   1.295   6.136  0.3095  0.4132 -0.8606
    4CHL1  H22A  279   3.184   1.241   6.090  0.9631 -1.3952 -0.0332
    4CHL1  H22B  280   3.237   1.399   6.155 -1.2612 -0.3085  0.6918
    4CHL1   C23  281   3.378   1.278   6.024 -0.2507  0.6811  0.4057
    4CHL1  H23A  282   3.478   1.311   6.059 -1.0134  1.0527  2.3796
    4CHL1  H23B  283   3.376   1.172   5.991 -0.0052  0.9323 -0.4420
    4CHL1   C24  284   3.330   1.358   5.895 -0.3148  0.2702 -0.0982
    4CHL1  H24A  285   3.221   1.344   5.878 -0.2802 -1.3731  0.7863
    4CHL1  H24B  286   3.347   1.466   5.911  0.0231  0.0572  1.0773
    4CHL1   C25  287   3.399   1.320   5.760 -0.4813  0.1559  0.6816
    4CHL1   H25  288   3.355   1.225   5.724 -1.3826  1.2664 -1.2908
    4CHL1   C26  289   3.353   1.424   5.657  0.1272  0.4494 -0.3854
    4CHL1  H26A  290   3.319   1.517   5.707 -0.7943  1.0298 -2.0086
    4CHL1  H26B  291   3.424   1.452   5.577 -0.3991 -2.5500 -2.0681
    4CHL1  H26C  292   3.268   1.378   5.602  0.7172  0.9753 -1.7811
    4CHL1   C27  293   3.545   1.300   5.777 -0.2087 -0.4673 -0.7969
    4CHL1  H27A  294   3.598   1.280   5.681  1.0920  1.2839 -0.4944
    4CHL1  H27B  295   3.598   1.394   5.804  0.2078 -0.9067 -0.0289
    4CHL1  H27C  296   3.564   1.219   5.850  1.1407  1.6208  1.3064
    5CHL1    C3  297   0.548   1.417   7.282 -0.4024  0.1720 -0.5378
    5CHL1    H3  298   0.475   1.500   7.281 -0.8490 -0.1663  0.8987
    5CHL1    O3  299   0.528   1.354   7.410  0.3897  0.0793 -0.4008
    5CHL1   H3'  300   0.528   1.262   7.383  1.0067 -0.5447  1.5519
    5CHL1    C4  301   0.535   1.332   7.165  0.2846  0.6172  1.0174
    5CHL1   H4A  302   0.592   1.238   7.179 -2.3417 -1.0535  1.2404
    5CHL1   H4B  303   0.432   1.290   7.170  0.6330 -0.1835  1.6742
    5CHL1    C5  304   0.550   1.401   7.028  0.3983 -0.4493 -0.4596
    5CHL1    C6  305   0.460   1.413   6.927  0.0625  0.0796  0.7101
    5CHL1    H6  306   0.360   1.370   6.941 -0.2099  0.2193 -0.6647
    5CHL1    C7  307   0.473   1.488   6.797 -0.2158 -0.8805 -0.2567
    5CHL1   H7A  308   0.434   1.431   6.710 -2.3984  0.2497 -0.0835
    5CHL1   H7B  309   0.425   1.588   6.812  2.7586  0.7014 -0.4769
    5CHL1    C8  310   0.621   1.501   6.773 -0.2720  0.1651  0.6997
    5CHL1    H8  311   0.671   1.405   6.748  0.3229  0.6526 -0.0355
    5CHL1   C14  312   0.633   1.596   6.647 -0.0565  0.5422  1.0409
    5CHL1   H14  313   0.595   1.697   6.676 -0.7926  0.7686 -0.6250
    5CHL1   C15  314   0.559   1.556   6.513 -0.6371  0.3259 -0.6384
    5CHL1  H15A  315   0.571   1.446   6.508 -0.2864  0.3284 -0.0022
    5CHL1  H15B  316   0.449   1.570   6.504 -0.7330  0.3612  0.3784
    5CHL1   C16  317   0.639   1.645   6.412  0.4655  0.3402 -0.3109
    5CHL1  H16A  318   0.657   1.577   6.326  1.4805 -1.6469  1.3833
    5CHL1  H16B  319   0.573   1.728   6.377  0.7207  0.6911  0.0409
    5CHL1   C17  320   0.766   1.704   6.478 -0.3950  1.1181 -0.5313
    5CHL1   H17  321   0.739   1.809   6.499  0.6652  1.2637  0.1994
    5CHL1   C13  322   0.778   1.624   6.612 -0.0751  0.4137  0.1417
    5CHL1   C18  323   0.857   1.497   6.578  0.0449 -0.8449  0.2635
    5CHL1  H18A  324   0.813   1.436   6.496  1.7944 -0.3588 -1.1008
    5CHL1  H18B  325   0.960   1.530   6.555  0.6390 -0.7608  2.7595
    5CHL1  H18C  326   0.862   1.431   6.667 -0.2731 -0.9707  0.1905
    5CHL1   C12  327   0.839   1.701   6.732 -0.5025 -0.4851 -0.0760
    5CHL1  H12A  328   0.944   1.731   6.711 -0.1245 -2.0608 -0.5644
    5CHL1  H12B  329   0.783   1.794   6.754 -1.4469 -1.3331  1.2549
    5CHL1   C11  330   0.830   1.621   6.865 -0.4607  0.0985 -0.9608
    5CHL1  H11A  331   0.907   1.541   6.853  0.4228  1.0178 -1.5917
    5CHL1  H11B  332   0.865   1.686   6.948  2.9303  0.7254 -2.7269
    5CHL1    C9  333   0.694   1.561   6.893  0.0867 -0.7069  0.1330
    5CHL1    H9  334   0.629   1.649   6.915 -0.2501 -0.6213 -1.1027
    5CHL1   C10  335   0.687   1.478   7.020  0.1580  0.5304 -0.2196
    5CHL1   C19  336   0.800   1.368   7.018 -0.6769 -0.6357  0.1804
    5CHL1  H19A  337   0.798   1.312   6.922 -0.0857  0.3749 -0.4395
    5CHL1  H19B  338   0.899   1.417   7.029 -1.7214  1.7774 -0.4268
    5CHL1  H19C  339   0.787   1.296   7.102  0.5594  0.4359  1.3420
    5CHL1    C1  340   0.695   1.566   7.151  0.0758  0.6521  0.6329
    5CHL1   H1A  341   0.797   1.610   7.147 -0.6559  2.3697 -0.2265
    5CHL1   H1B  342   0.612   1.641   7.142  0.4410  1.2150  1.7008
    5CHL1    C2  343   0.681   1.484   7.279  0.2789  0.5057  0.2991
    5CHL1   H2A  344   0.698   1.555   7.363  1.6177  1.1892 -0.5067
    5CHL1   H2B  345   0.768   1.415   7.279 -0.9965 -1.1626 -0.9706
    5CHL1   C20  346   0.885   1.715   6.377  0.5365  0.1099 -1.0137
    5CHL1   H20  347   0.921   1.611   6.363 -1.7147 -0.8765 -0.0052
    5CHL1   C21  348   0.998   1.796   6.442 -0.4937 -0.1357 -0.2900
    5CHL1  H21A  349   1.070   1.822   6.362 -0.4718 -2.1723 -0.9926
    5CHL1  H21B  350   1.045   1.751   6.532  0.5653  0.1644 -0.6763
    5CHL1  H21C  351   0.959   1.896   6.472 -0.1088  0.7855 -2.6811
    5CHL1   C22  352   0.839   1.769   6.240 -0.2463  0.6410  0.1304
    5CHL1  H22A  353   0.746   1.725   6.199  0.2212  0.9362 -1.3261
    5CHL1  H22B  354   0.810   1.875   6.260 -0.9802  0.6460 -0.8686
    5CHL1   C23  355   0.952   1.753   6.135 -0.0600  0.1471  0.0620
    5CHL1  H23A  356   1.052   1.792   6.163  0.6387 -0.0868 -1.8861
    5CHL1  H23B  357   0.950   1.642   6.128 -1.0332  0.2124 -1.4626
    5CHL1   C24  358   0.923   1.827   6.012 -0.4616  1.0277  0.1734
    5CHL1  H24A  359   0.817   1.799   5.993 -1.0373  2.1602  1.5724
    5CHL1  H24B  360   0.918   1.938   6.016 -1.4088  1.0513 -0.9953
    5CHL1   C25  361   1.006   1.798   5.884 -0.4687 -0.6231  0.8631
    5CHL1   H25  362   0.948   1.840   5.798 -0.5679 -1.8830  0.2841
    5CHL1   C26  363   1.146   1.861   5.899  0.0260  0.4416  0.7838
    5CHL1  H26A  364   1.198   1.798   5.973  1.0064  2.0007  1.4642
    5CHL1  H26B  365   1.194   1.864   5.799 -0.6900  1.9797  0.4587
    5CHL1  H26C  366   1.146   1.967   5.930  1.0800  0.1823  1.7030
    5CHL1   C27  367   1.038   1.648   5.846 -0.2149  1.0337  0.4271
    5CHL1  H27A  368   1.082   1.635   5.745 -2.1494 -2.5573 -0.1293
    5CHL1  H27B  369   1.096   1.594   5.924 -1.4522  0.1567  0.7775
    5CHL1  H27C  370   0.944   1.588   5.846  1.6652 -2.1445  1.5238
    6CHL1    C3  371   0.289   0.655   6.712 -0.2239 -0.1541 -0.1140
    6CHL1    H3  372   0.386   0.701   6.682  0.7607  1.6582  4.7484
    6CHL1    O3  373   0.294   0.621   6.852  0.3228  0.2395 -0.4648
    6CHL1   H3'  374   0.230   0.549   6.858 -1.1135  1.5137  0.0293
    6CHL1    C4  375   0.168   0.748   6.695 -0.3034  0.1137  0.6301
    6CHL1   H4A  376   0.087   0.703   6.757  0.0649  0.3317  1.2826
    6CHL1   H4B  377   0.185   0.838   6.757  0.5545  0.3871  0.0280
    6CHL1    C5  378   0.127   0.764   6.552 -0.6982  0.4412  0.4278
    6CHL1    C6  379   0.132   0.885   6.488 -0.9575 -0.5495 -0.0301
    6CHL1    H6  380   0.152   0.974   6.550  1.8649 -1.9910  1.2911
    6CHL1    C7  381   0.099   0.911   6.344 -0.7253 -0.0461  0.1160
    6CHL1   H7A  382   0.047   1.008   6.331  0.1142  0.3260 -0.4885
    6CHL1   H7B  383   0.196   0.918   6.291 -0.9619 -0.6447 -0.4128
    6CHL1    C8  384   0.009   0.798   6.290 -0.0314  0.6137  0.1727
    6CHL1    H8  385  -0.082   0.809   6.352 -0.7145 -1.6544 -0.3392
    6CHL1   C14  386  -0.011   0.818   6.137 -0.6099  0.0823 -0.3556
    6CHL1   H14  387   0.086   0.840   6.089 -0.2081 -0.5065  0.1810
    6CHL1   C15  388  -0.090   0.942   6.100  0.3873  0.1887 -0.8831
    6CHL1  H15A  389  -0.174   0.957   6.172  2.1088  2.0821  0.8703
    6CHL1  H15B  390  -0.029   1.034   6.114  0.1737  0.2112 -0.0260
    6CHL1   C16  391  -0.148   0.908   5.959 -0.5051 -0.2876  0.5536
    6CHL1  H16A  392  -0.258   0.921   5.968 -0.5528 -0.6819  0.5607
    6CHL1  H16B  393  -0.122   0.983   5.881  0.6608 -1.5404 -0.3270
    6CHL1   C17  394  -0.090   0.763   5.922 -0.3994  0.2727  0.4482
    6CHL1   H17  395   0.008   0.777   5.871 -0.5350 -3.9573 -1.3723
    6CHL1   C13  396  -0.078   0.696   6.060 -0.0593  0.2303  0.1458
    6CHL1   C18  397  -0.221   0.674   6.115  0.0337  0.4493 -0.1410
    6CHL1  H18A  398  -0.223   0.678   6.226 -0.1804 -0.3187 -0.1088
    6CHL1  H18B  399  -0.288   0.754   6.080  2.0836  0.6034 -4.3669
    6CHL1  H18C  400  -0.267   0.578   6.084 -0.2015  0.2109  0.8914
    6CHL1   C12  401   0.018   0.575   6.077 -0.4513  0.1498 -0.0959
    6CHL1  H12A  402  -0.032   0.489   6.028  1.0748 -1.1691  0.5686
    6CHL1  H12B  403   0.119   0.598   6.035  0.0241  1.2449  1.5335
    6CHL1   C11  404   0.033   0.542   6.229  0.2091 -0.5418 -0.2983
    6CHL1  H11A  405  -0.071   0.519   6.260 -0.3435 -2.0635 -2.9757
    6CHL1  H11B  406   0.101   0.456   6.248  1.6584  0.1510 -2.0175
    6CHL1    C9  407   0.082   0.666   6.316  0.5082 -0.5227 -0.0165
    6CHL1    H9  408   0.183   0.674   6.270  0.9835 -2.1420  0.6702
    6CHL1   C10  409   0.101   0.641   6.468  0.5019  0.5229  1.2916
    6CHL1   C19  410  -0.025   0.564   6.517 -0.0143  0.0833  0.0333
    6CHL1  H19A  411  -0.051   0.462   6.482 -2.4654  0.1639  1.3940
    6CHL1  H19B  412  -0.025   0.564   6.629  1.2943  1.4868  0.0615
    6CHL1  H19C  413  -0.110   0.633   6.498  0.8143  1.5682  1.4300
    6CHL1    C1  414   0.223   0.557   6.492 -0.0922  0.4104 -0.3820
    6CHL1   H1A  415   0.197   0.457   6.452 -1.4530 -0.1614  1.7894
    6CHL1   H1B  416   0.307   0.569   6.420 -1.2751 -1.0645 -2.0834
    6CHL1    C2  417   0.265   0.524   6.636 -0.7145 -0.7694  0.2387
    6CHL1   H2A  418   0.358   0.469   6.660  1.6755  2.3165 -1.2815
    6CHL1   H2B  419   0.177   0.468   6.675  1.2705 -3.1216  1.6214
    6CHL1   C20  420  -0.185   0.693   5.818  0.3158  0.4590 -0.5820
    6CHL1   H20  421  -0.262   0.640   5.877  1.6423 -1.2992 -0.3440
    6CHL1   C21  422  -0.104   0.586   5.737  0.0507 -0.0907  0.1852
    6CHL1  H21A  423  -0.026   0.656   5.698  0.2498  0.8249  2.0952
    6CHL1  H21B  424  -0.162   0.537   5.656  0.9426 -0.5734 -0.1822
    6CHL1  H21C  425  -0.049   0.504   5.787 -1.4596 -1.1366  0.1669
    6CHL1   C22  426  -0.264   0.784   5.722 -0.8178 -0.8878 -0.5487
    6CHL1  H22A  427  -0.306   0.873   5.775  1.1034 -0.1303 -0.2007
    6CHL1  H22B  428  -0.207   0.820   5.634 -0.9037  0.8592  0.0601
    6CHL1   C23  429  -0.388   0.714   5.663  1.1373 -0.2671  0.6157
    6CHL1  H23A  430  -0.358   0.624   5.605 -1.2210 -0.0218 -1.1001
    6CHL1  H23B  431  -0.460   0.677   5.739  0.3506  1.2104  0.6225
    6CHL1   C24  432  -0.470   0.816   5.576 -0.3541 -0.3223  0.6331
    6CHL1  H24A  433  -0.489   0.901   5.646  4.3984  1.1277  0.5028
    6CHL1  H24B  434  -0.395   0.846   5.500  0.0934  0.9415  1.5317
    6CHL1   C25  435  -0.605   0.781   5.514 -0.0884 -0.7562  0.3650
    6CHL1   H25  436  -0.649   0.873   5.472 -0.0578 -0.0630  1.8009
    6CHL1   C26  437  -0.588   0.671   5.408 -0.0306  0.3461 -0.0045
    6CHL1  H26A  438  -0.558   0.577   5.461 -0.7969  0.9508  1.5895
    6CHL1  H26B  439  -0.677   0.645   5.347  0.4111 -2.9490  0.5472
    6CHL1  H26C  440  -0.509   0.692   5.334 -0.7649 -1.6176 -1.4341
    6CHL1   C27  441  -0.707   0.728   5.616 -0.4186 -0.4252 -0.3712
    6CHL1  H27A  442  -0.676   0.630   5.659 -2.6942 -2.7059 -3.4307
    6CHL1  H27B  443  -0.705   0.793   5.706 -0.3790 -1.1852  0.1838
    6CHL1  H27C  444  -0.806   0.732   5.567  0.1648  0.6379 -1.5312
    7CHL1    C3  445   2.631   0.149   6.937  0.9239  0.5899 -0.5225
    7CHL1    H3  446   2.736   0.152   6.974  1.0359  2.3055 -0.8598
    7CHL1    O3  447   2.567   0.178   7.061 -0.1592 -0.5504  0.0129
    7CHL1   H3'  448   2.508   0.103   7.071  2.1142 -2.7241 -1.3528
    7CHL1    C4  449   2.591   0.259   6.841 -0.0085  0.4171 -0.4725
    7CHL1   H4A  450   2.480   0.259   6.837  0.0156 -0.1674 -1.7267
    7CHL1   H4B  451   2.641   0.354   6.869  2.1908 -0.9254  0.4735
    7CHL1    C5  452   2.638   0.223   6.702  0.2790  0.2823  0.1981
    7CHL1    C6  453   2.712   0.313   6.635 -0.4858 -0.1411 -0.5615
    7CHL1    H6  454   2.748   0.407   6.678  1.1057 -0.9146 -0.1220
    7CHL1    C7  455   2.756   0.299   6.496 -0.1237  0.2284  0.0256
    7CHL1   H7A  456   2.738   0.390   6.435 -0.5103 -0.2569 -0.6001
    7CHL1   H7B  457   2.866   0.287   6.491  0.2938  2.5846  1.8875
    7CHL1    C8  458   2.689   0.189   6.418  0.1839  1.0676 -0.3168
    7CHL1    H8  459   2.587   0.219   6.386  0.3701  1.1518 -0.8376
    7CHL1   C14  460   2.773   0.152   6.301  0.3808  0.1191  0.9302
    7CHL1   H14  461   2.871   0.110   6.334  0.0133 -3.0157 -1.5067
    7CHL1   C15  462   2.813   0.261   6.197  0.0151  0.5083 -0.3986
    7CHL1  H15A  463   2.717   0.314   6.181  0.2751  0.6583 -1.5449
    7CHL1  H15B  464   2.895   0.327   6.236  0.2978 -0.3737  0.5556
    7CHL1   C16  465   2.865   0.187   6.074 -0.1254  0.1135 -0.5547
    7CHL1  H16A  466   2.811   0.220   5.982 -2.0755 -0.0916  0.4659
    7CHL1  H16B  467   2.975   0.199   6.065 -0.1709  2.5227  1.1790
    7CHL1   C17  468   2.835   0.035   6.105 -0.0768 -0.2233 -0.2786
    7CHL1   H17  469   2.927   0.006   6.160 -0.5889  1.6497  1.6955
    7CHL1   C13  470   2.729   0.032   6.220 -0.3301 -0.0601  0.3190
    7CHL1   C18  471   2.585   0.049   6.167 -0.8106  0.2079  0.1069
    7CHL1  H18A  472   2.575   0.121   6.083  2.7402 -0.7434 -1.3355
    7CHL1  H18B  473   2.547  -0.050   6.132  0.5609  0.0088 -0.9434
    7CHL1  H18C  474   2.510   0.078   6.243 -0.5761  0.2694  0.3171
    7CHL1   C12  475   2.738  -0.095   6.310  0.5380 -0.9661  0.4623
    7CHL1  H12A  476   2.705  -0.186   6.256  0.2672 -2.7005  3.3299
    7CHL1  H12B  477   2.841  -0.110   6.349 -0.4651 -0.2285  3.7289
    7CHL1   C11  478   2.658  -0.071   6.438  1.0450  0.2445 -0.7444
    7CHL1  H11A  479   2.548  -0.072   6.418  0.2195  0.4178  3.0298
    7CHL1  H11B  480   2.689  -0.143   6.517 -0.2796  0.3923 -0.0676
    7CHL1    C9  481   2.684   0.067   6.508  0.0877 -0.3355 -0.2013
    7CHL1    H9  482   2.786   0.064   6.552  0.4531  1.3001 -0.8915
    7CHL1   C10  483   2.600   0.080   6.640 -0.8684  0.1230 -0.3064
    7CHL1   C19  484   2.446   0.091   6.603 -0.4446  0.5415 -0.1467
    7CHL1  H19A  485   2.392   0.115   6.697  1.4199 -0.1279  1.1681
    7CHL1  H19B  486   2.426   0.173   6.531 -1.0593 -0.3100 -0.9607
    7CHL1  H19C  487   2.407  -0.004   6.561  0.3265 -0.7916  1.9771
    7CHL1    C1  488   2.633  -0.031   6.748 -0.0442 -0.2384  0.3630
    7CHL1   H1A  489   2.576  -0.123   6.723 -1.4016  0.7877 -0.4628
    7CHL1   H1B  490   2.744  -0.036   6.757  0.2676  0.9773 -1.9118
    7CHL1    C2  491   2.587   0.006   6.898  0.3212 -0.1459 -0.2003
    7CHL1   H2A  492   2.634  -0.071   6.962 -0.7566 -2.0366 -1.5596
    7CHL1   H2B  493   2.477   0.004   6.915  0.7056 -0.2650  2.6212
    7CHL1   C20  494   2.816  -0.051   5.979 -0.1521 -0.8046 -0.0055
    7CHL1   H20  495   2.739  -0.004   5.914 -1.0102 -1.7701  0.2791
    7CHL1   C21  496   2.779  -0.197   6.002 -0.0616  0.6322 -0.2154
    7CHL1  H21A  497   2.675  -0.216   6.036  0.5309 -1.1150  0.7244
    7CHL1  H21B  498   2.852  -0.238   6.076 -1.3965  2.6599  2.4360
    7CHL1  H21C  499   2.780  -0.264   5.914  0.8228  0.6188 -0.2060
    7CHL1   C22  500   2.945  -0.039   5.903  0.3660  0.2006  1.1304
    7CHL1  H22A  501   2.968   0.068   5.885  2.1870 -0.3234  0.1496
    7CHL1  H22B  502   3.029  -0.086   5.958  2.7676  1.7502 -0.9800
    7CHL1   C23  503   2.943  -0.103   5.764 -0.0205 -0.3221  0.0997
    7CHL1  H23A  504   3.039  -0.074   5.715  0.3596 -0.7984  0.5528
    7CHL1  H23B  505   2.949  -0.213   5.775  0.2408 -0.2964  0.2389
    7CHL1   C24  506   2.833  -0.067   5.662 -0.4424 -0.6886 -0.0859
    7CHL1  H24A  507   2.738  -0.090   5.713 -0.8698  0.3063 -0.3947
    7CHL1  H24B  508   2.842   0.043   5.647  1.4344 -0.3702  2.5780
    7CHL1   C25  509   2.842  -0.140   5.524 -0.2027 -0.2141  0.2801
    7CHL1   H25  510   2.951  -0.149   5.505  0.0492  1.6372  0.6092
    7CHL1   C26  511   2.787  -0.279   5.538  0.7932 -0.1910  1.0970
    7CHL1  H26A  512   2.774  -0.322   5.436 -0.4294 -1.4553  1.7553
    7CHL1  H26B  513   2.853  -0.347   5.596 -0.6133 -0.4780  2.4359
    7CHL1  H26C  514   2.690  -0.286   5.591  0.6029 -0.9341  0.6751
    7CHL1   C27  515   2.758  -0.065   5.421  0.3127 -0.1661  0.6410
    7CHL1  H27A  516   2.806   0.032   5.397 -0.6461  0.0953 -0.2670
    7CHL1  H27B  517   2.751  -0.121   5.325 -1.2704 -0.1408  0.7221
    7CHL1  H27C  518   2.654  -0.049   5.455  0.1874 -2.7364  1.6996
    8CHL1    C3  519   5.960   1.055   6.723 -0.1664 -0.3245 -0.3303
    8CHL1    H3  520   5.886   1.135   6.747 -2.0637 -1.0901 -3.1853
    8CHL1    O3  521   6.029   1.012   6.843 -0.0044 -0.0417 -0.2066
    8CHL1   H3'  522   5.968   0.960   6.895 -0.8693 -0.3104 -1.4346
    8CHL1    C4  523   5.896   0.933   6.660  0.3162 -0.2986 -1.1544
    8CHL1   H4A  524   5.961   0.844   6.645 -1.0470 -1.9762  1.9170
    8CHL1   H4B  525   5.816   0.908   6.733  1.0780 -0.8034 -0.4751
    8CHL1    C5  526   5.845   0.965   6.525 -0.1886 -0.9548  0.5894
    8CHL1    C6  527   5.714   0.937   6.497 -1.2923  0.2804  0.1623
    8CHL1    H6  528   5.646   0.895   6.573 -2.4198 -2.1476 -2.0170
    8CHL1    C7  529   5.647   0.969   6.366  0.0570  0.2026  0.3162
    8CHL1   H7A  530   5.574   0.889   6.342 -0.7731  0.9651  0.2474
    8CHL1   H7B  531   5.599   1.069   6.365 -0.3759  0.0081  0.8464
    8CHL1    C8  532   5.753   0.978   6.263 -0.0039  0.0139 -0.0195
    8CHL1    H8  533   5.797   0.878   6.243 -0.6476 -0.0628 -1.1047
    8CHL1   C14  534   5.688   1.026   6.132 -0.1870 -0.4370  0.2183
    8CHL1   H14  535   5.648   1.126   6.159  0.8907  0.7356 -2.1747
    8CHL1   C15  536   5.573   0.943   6.075 -0.2614 -0.4603 -0.1641
    8CHL1  H15A  537   5.614   0.840   6.071 -0.7280 -0.6133 -1.3914
    8CHL1  H15B  538   5.480   0.938   6.135 -0.0034  2.0595  0.5934
    8CHL1   C16  539   5.542   1.013   5.941 -0.3791  0.6998 -0.4881
    8CHL1  H16A  540   5.517   0.927   5.876 -2.6615 -0.0463  1.2506
    8CHL1  H16B  541   5.453   1.078   5.949  0.8650  2.7003 -1.9203
    8CHL1   C17  542   5.673   1.092   5.904  0.1270  0.2885  0.0022
    8CHL1   H17  543   5.639   1.194   5.932  1.2771 -0.0098  2.7924
    8CHL1   C13  544   5.777   1.051   6.009  0.0189 -0.3279  0.1867
    8CHL1   C18  545   5.842   0.924   5.964  0.1242 -0.4154  0.0949
    8CHL1  H18A  546   5.888   0.866   6.047 -0.6339  0.9536  1.5275
    8CHL1  H18B  547   5.765   0.857   5.919 -0.9223 -1.1069  2.7272
    8CHL1  H18C  548   5.922   0.948   5.891  0.1353  2.9616  1.0677
    8CHL1   C12  549   5.887   1.153   6.051  0.8147 -0.0061  0.6164
    8CHL1  H12A  550   5.964   1.165   5.973 -0.0757 -0.3856 -0.3368
    8CHL1  H12B  551   5.838   1.248   6.082  1.3929  0.5826 -0.2246
    8CHL1   C11  552   5.958   1.102   6.178 -0.7199 -0.3168 -0.5853
    8CHL1  H11A  553   6.014   1.012   6.145  0.7827  0.8989 -1.4897
    8CHL1  H11B  554   6.037   1.175   6.207  2.6013 -3.1514 -1.8140
    8CHL1    C9  555   5.866   1.076   6.296 -0.4391  0.8028  0.7655
    8CHL1    H9  556   5.820   1.175   6.320 -3.6564 -0.0864 -1.0408
    8CHL1   C10  557   5.939   1.025   6.421  0.1502 -0.8240  0.8947
    8CHL1   C19  558   6.049   0.928   6.381 -0.5281  0.2798 -0.0876
    8CHL1  H19A  559   6.016   0.855   6.304  1.0071 -1.0725  0.4803
    8CHL1  H19B  560   6.140   0.984   6.350  0.9697 -1.7500  0.4416
    8CHL1  H19C  561   6.094   0.879   6.470  1.1888 -0.8697 -1.5159
    8CHL1    C1  562   6.009   1.145   6.494  0.5408 -0.5278  0.0001
    8CHL1   H1A  563   6.090   1.179   6.426  1.4219 -2.4875 -0.0082
    8CHL1   H1B  564   5.939   1.230   6.508  1.7455  0.7021 -1.1515
    8CHL1    C2  565   6.074   1.114   6.627 -0.2976 -0.3936 -0.7288
    8CHL1   H2A  566   6.124   1.204   6.669  0.9987 -1.0720 -0.7877
    8CHL1   H2B  567   6.157   1.042   6.616  0.2749 -0.0010  0.7246
    8CHL1   C20  568   5.692   1.089   5.747 -0.0194  0.8779  0.0611
    8CHL1   H20  569   5.740   0.996   5.711 -2.3908 -0.1906 -0.5449
    8CHL1   C21  570   5.774   1.214   5.704  0.5132 -0.0051 -0.4732
    8CHL1  H21A  571   5.722   1.307   5.736 -0.8881 -1.3410  1.3809
    8CHL1  H21B  572   5.785   1.216   5.594 -0.4002 -3.3298 -0.7542
    8CHL1  H21C  573   5.880   1.213   5.738  0.1552  1.8966  0.8258
    8CHL1   C22  574   5.563   1.082   5.655  0.2948  0.1175 -0.1523
    8CHL1  H22A  575   5.592   1.043   5.555 -1.7333  0.1322 -0.7869
    8CHL1  H22B  576   5.501   1.003   5.703  1.1128  0.3275  1.3396
    8CHL1   C23  577   5.482   1.221   5.636 -0.5446 -0.0824  0.0053
    8CHL1  H23A  578   5.453   1.239   5.741  1.0464 -2.0322  0.8501
    8CHL1  H23B  579   5.546   1.304   5.600 -0.6583  0.0899  0.1985
    8CHL1   C24  580   5.366   1.202   5.547  0.3462  0.3174  0.1669
    8CHL1  H24A  581   5.332   1.305   5.522 -0.7374 -0.7101 -2.9928
    8CHL1  H24B  582   5.409   1.164   5.452 -1.7061 -0.0547 -0.6666
    8CHL1   C25  583   5.238   1.135   5.592  0.2575  1.0123  0.3115
    8CHL1   H25  584   5.264   1.031   5.621 -3.3710  0.8078  3.4669
    8CHL1   C26  585   5.185   1.199   5.721 -0.2592  0.3643  0.4040
    8CHL1  H26A  586   5.093   1.141   5.746 -1.5476  1.5761 -1.2300
    8CHL1  H26B  587   5.265   1.191   5.797 -0.3180 -0.1493  0.4147
    8CHL1  H26C  588   5.163   1.307   5.706  0.8435  0.3235 -1.9661
    8CHL1   C27  589   5.132   1.137   5.475 -0.0869  0.1846  1.1319
    8CHL1  H27A  590   5.107   1.242   5.448 -1.3631 -0.0471  1.3795
    8CHL1  H27B  591   5.170   1.086   5.384 -0.6853  0.5459  0.6717
    8CHL1  H27C  592   5.042   1.079   5.503 -1.2438  0.7473 -1.1504
    9CHL1    C3  593   3.121   6.177   7.303 -0.6073 -0.8050 -0.1248
    9CHL1    H3  594   3.225   6.138   7.301 -0.8599 -1.4649 -0.9223
    9CHL1    O3  595   3.056   6.132   7.424  0.0816  0.3632  0.2046
    9CHL1   H3'  596   2.968   6.171   7.425  0.0793  0.3878 -0.6811
    9CHL1    C4  597   3.107   6.329   7.287 -0.1523 -0.0097  0.0883
    9CHL1   H4A  598   3.003   6.358   7.314  0.2833  0.4418  1.3238
    9CHL1   H4B  599   3.172   6.380   7.361  1.9439 -2.9276  0.4252
    9CHL1    C5  600   3.157   6.366   7.148 -0.9607  0.6121  0.1440
    9CHL1    C6  601   3.252   6.457   7.121 -0.2113  0.0634 -0.2428
    9CHL1    H6  602   3.316   6.502   7.198 -0.2334 -1.1566  0.5108
    9CHL1    C7  603   3.296   6.496   6.987  0.4102 -0.9355 -0.7158
    9CHL1   H7A  604   3.314   6.605   6.976 -2.0067 -0.3675  0.3774
    9CHL1   H7B  605   3.386   6.435   6.965  1.3547  0.0211  0.3406
    9CHL1    C8  606   3.191   6.459   6.877  0.0761 -0.2617  0.2764
    9CHL1    H8  607   3.104   6.527   6.892  1.1388  1.1058  0.4138
    9CHL1   C14  608   3.256   6.477   6.740  0.1198 -0.3876  0.0516
    9CHL1   H14  609   3.347   6.414   6.729 -1.5313 -2.9473 -0.0107
    9CHL1   C15  610   3.297   6.617   6.696 -0.0209  0.3355  0.3736
    9CHL1  H15A  611   3.211   6.684   6.716 -0.6097 -0.6184  1.1022
    9CHL1  H15B  612   3.390   6.648   6.749 -0.2438  0.7363  0.5385
    9CHL1   C16  613   3.330   6.603   6.548 -0.0209 -0.0920  0.7319
    9CHL1  H16A  614   3.269   6.682   6.498 -0.0599 -0.4286  0.2408
    9CHL1  H16B  615   3.438   6.612   6.526 -0.2496 -1.1988 -1.0743
    9CHL1   C17  616   3.282   6.463   6.503  0.3038  0.1577 -0.6222
    9CHL1   H17  617   3.373   6.403   6.525  0.9541  2.0462  2.3120
    9CHL1   C13  618   3.182   6.423   6.613  0.0908 -0.0906  0.5788
    9CHL1   C18  619   3.038   6.497   6.596 -0.7477 -0.0001 -0.2017
    9CHL1  H18A  620   2.983   6.445   6.514 -1.6325 -0.6462  0.7803
    9CHL1  H18B  621   2.967   6.501   6.682 -0.1345 -3.6528  0.6626
    9CHL1  H18C  622   3.056   6.600   6.559 -1.5086  0.0103 -0.5700
    9CHL1   C12  623   3.156   6.283   6.641 -0.3362  0.6902 -0.1443
    9CHL1  H12A  624   3.095   6.239   6.559 -0.2711 -0.0990  0.2180
    9CHL1  H12B  625   3.253   6.229   6.637  0.1338  1.3762  1.3414
    9CHL1   C11  626   3.076   6.261   6.771  0.2763 -0.0362  0.9146
    9CHL1  H11A  627   2.973   6.302   6.775  0.2779 -0.1187  3.5021
    9CHL1  H11B  628   3.059   6.153   6.791 -1.8269  0.7126  3.9583
    9CHL1    C9  629   3.151   6.315   6.899  1.3526 -0.4271  0.1155
    9CHL1    H9  630   3.251   6.267   6.910  0.7701 -1.7810 -0.2879
    9CHL1   C10  631   3.074   6.289   7.031 -0.1267 -0.2091  0.0130
    9CHL1   C19  632   2.932   6.353   7.031  0.3804  0.4992 -0.9056
    9CHL1  H19A  633   2.879   6.345   7.129  2.9642  3.0979  0.8844
    9CHL1  H19B  634   2.923   6.463   7.021 -1.1284  0.5816  0.6728
    9CHL1  H19C  635   2.865   6.310   6.954 -1.5900  2.3564 -0.3316
    9CHL1    C1  636   3.070   6.129   7.058 -0.9634 -0.6770 -0.1144
    9CHL1   H1A  637   2.997   6.094   6.982 -0.3423 -1.8618 -0.1939
    9CHL1   H1B  638   3.172   6.088   7.040 -0.1981  1.0724  0.0061
    9CHL1    C2  639   3.039   6.107   7.205  1.0246 -0.1899 -0.2281
    9CHL1   H2A  640   3.048   5.996   7.212 -0.3979 -0.1882  3.3281
    9CHL1   H2B  641   2.934   6.134   7.229  0.7950 -1.3309  0.1085
    9CHL1   C20  642   3.236   6.462   6.360 -0.3165 -0.7698  0.0424
    9CHL1   H20  643   3.151   6.533   6.349 -0.6848 -1.1701  0.2982
    9CHL1   C21  644   3.195   6.322   6.316  0.4153  0.3065  0.4382
    9CHL1  H21A  645   3.119   6.272   6.380  0.2728 -1.3088 -0.9412
    9CHL1  H21B  646   3.279   6.251   6.308 -0.6571 -0.8207 -1.4375
    9CHL1  H21C  647   3.156   6.335   6.213  0.9168 -0.9363  0.0831
    9CHL1   C22  648   3.342   6.509   6.252  0.1726 -0.0561  0.3216
    9CHL1  H22A  649   3.390   6.602   6.291 -0.6233 -0.0932  1.4640
    9CHL1  H22B  650   3.420   6.430   6.249  2.2198  1.9043 -0.7870
    9CHL1   C23  651   3.291   6.548   6.108  0.0182  0.3066  0.3051
    9CHL1  H23A  652   3.240   6.458   6.068  0.0680  0.4756 -0.1473
    9CHL1  H23B  653   3.231   6.641   6.112 -2.3384 -1.1031 -0.5703
    9CHL1   C24  654   3.393   6.570   5.994 -0.8597 -0.1165 -0.3357
    9CHL1  H24A  655   3.479   6.624   6.040 -1.1215  0.0964 -0.0899
    9CHL1  H24B  656   3.439   6.472   5.969  0.0847 -0.3189  1.9312
    9CHL1   C25  657   3.355   6.632   5.856  0.1122  0.0583 -0.2472
    9CHL1   H25  658   3.412   6.585   5.773 -2.2955  1.5151 -2.9382
    9CHL1   C26  659   3.205   6.615   5.815  0.1897 -0.1902 -0.1602
    9CHL1  H26A  660   3.182   6.508   5.797 -1.6867  0.4351 -1.8148
    9CHL1  H26B  661   3.141   6.664   5.891 -2.0125  0.9808 -2.6220
    9CHL1  H26C  662   3.183   6.669   5.721 -0.6388  2.6962  1.5787
    9CHL1   C27  663   3.382   6.782   5.860 -0.3939 -0.5477 -0.5498
    9CHL1  H27A  664   3.356   6.835   5.766 -0.4730 -0.8114 -0.6763
    9CHL1  H27B  665   3.325   6.831   5.942 -2.0271 -0.9287 -1.4018
    9CHL1  H27C  666   3.491   6.792   5.873 -0.6129  1.1440  0.2828
   10CHL1    C3  667   3.028   2.179   7.711 -0.7535  0.0724 -1.0079
   10CHL1    H3  668   3.097   2.265   7.723 -0.7787 -0.0748  0.3662
   10CHL1    O3  669   3.018   2.115   7.833 -0.5819  0.7201 -0.2468
   10CHL1   H3'  670   2.971   2.036   7.807  0.0636  0.5802 -1.0394
   10CHL1    C4  671   2.891   2.229   7.678  0.4414 -0.5752 -0.5532
   10CHL1   H4A  672   2.815   2.147   7.678  0.0817 -0.4456  3.4847
   10CHL1   H4B  673   2.863   2.290   7.767  2.3366 -2.2732  1.2828
   10CHL1    C5  674   2.878   2.301   7.549  0.4489 -2.0537  0.4656
   10CHL1    C6  675   2.814   2.425   7.533  0.3520 -0.0164  0.4358
   10CHL1    H6  676   2.768   2.469   7.623  0.3676 -0.4531  0.6626
   10CHL1    C7  677   2.800   2.501   7.404 -0.7674  0.1180  0.1069
   10CHL1   H7A  678   2.699   2.545   7.395 -0.2520  1.4809  0.7119
   10CHL1   H7B  679   2.874   2.583   7.413 -0.8691  0.3256 -0.9376
   10CHL1    C8  680   2.840   2.422   7.276  0.1343 -0.7557  0.2024
   10CHL1    H8  681   2.748   2.377   7.232 -0.1198  1.2142 -1.4542
   10CHL1   C14  682   2.889   2.517   7.160  0.1521  0.4301  0.4509
   10CHL1   H14  683   2.977   2.569   7.202  0.1810  0.6175  0.1614
   10CHL1   C15  684   2.786   2.629   7.116 -0.5505 -0.3643 -0.4333
   10CHL1  H15A  685   2.691   2.572   7.127 -0.8413 -0.3607 -2.5775
   10CHL1  H15B  686   2.781   2.716   7.184 -0.7001 -0.6851 -0.0301
   10CHL1   C16  687   2.842   2.671   6.978 -0.1778  0.3487  0.1691
   10CHL1  H16A  688   2.755   2.667   6.909 -0.3102 -1.3735  0.4103
   10CHL1  H16B  689   2.881   2.776   6.981 -0.1913  0.5956 -3.5146
   10CHL1   C17  690   2.960   2.572   6.944 -0.2483  0.7959  0.2775
   10CHL1   H17  691   3.057   2.617   6.975  0.2146  0.1391 -0.1998
   10CHL1   C13  692   2.925   2.449   7.033 -0.1279 -0.0716 -0.5876
   10CHL1   C18  693   2.800   2.368   6.975 -0.0118  0.5307  0.3257
   10CHL1  H18A  694   2.713   2.436   6.967 -1.5324 -1.5598 -2.1275
   10CHL1  H18B  695   2.826   2.344   6.870  4.4691  0.6808  1.1712
   10CHL1  H18C  696   2.761   2.283   7.035 -0.6956  1.2767  0.9614
   10CHL1   C12  697   3.041   2.357   7.067 -0.5312  0.1836  0.4913
   10CHL1  H12A  698   3.078   2.292   6.985 -0.1389  0.1793  0.6712
   10CHL1  H12B  699   3.130   2.416   7.098 -0.9163  2.3819 -2.1677
   10CHL1   C11  700   3.005   2.257   7.177  0.6039  0.0488 -0.3852
   10CHL1  H11A  701   2.944   2.178   7.129  0.7533 -1.7266  2.1341
   10CHL1  H11B  702   3.107   2.217   7.196  2.0285  3.0877 -1.0973
   10CHL1    C9  703   2.953   2.322   7.307  0.5021  0.0665  0.2313
   10CHL1    H9  704   3.035   2.388   7.342 -1.8471  2.6801  1.0751
   10CHL1   C10  705   2.937   2.231   7.429 -0.1193  0.1738 -0.3502
   10CHL1   C19  706   2.843   2.117   7.390 -0.1490  0.1273 -0.7268
   10CHL1  H19A  707   2.892   2.060   7.308  1.8139  0.6187  0.0580
   10CHL1  H19B  708   2.830   2.048   7.476 -0.0952  0.1030 -0.7376
   10CHL1  H19C  709   2.738   2.148   7.371 -1.2421 -2.5917  0.3659
   10CHL1    C1  710   3.075   2.168   7.465  0.5637 -0.0371 -0.0543
   10CHL1   H1A  711   3.111   2.106   7.379 -1.3982  0.7218 -1.5151
   10CHL1   H1B  712   3.141   2.256   7.476 -0.3134  0.7129 -0.6040
   10CHL1    C2  713   3.088   2.093   7.598  0.4886  0.4518 -0.2539
   10CHL1   H2A  714   3.196   2.070   7.611  1.0411  2.6439 -0.6136
   10CHL1   H2B  715   3.025   2.001   7.592 -1.5672  1.7996 -0.3758
   10CHL1   C20  716   2.983   2.557   6.794  0.4850 -0.2502  0.2041
   10CHL1   H20  717   2.887   2.553   6.738  0.9292 -1.1740 -0.5142
   10CHL1   C21  718   3.074   2.436   6.753  0.2596 -0.3464  0.4845
   10CHL1  H21A  719   3.176   2.452   6.795  0.2178  0.9093  0.1630
   10CHL1  H21B  720   3.092   2.441   6.644 -2.9532  0.9012 -0.0964
   10CHL1  H21C  721   3.026   2.342   6.785 -0.5892 -0.2859 -0.5443
   10CHL1   C22  722   3.037   2.681   6.717 -0.3162  0.0180 -1.1534
   10CHL1  H22A  723   2.991   2.773   6.759 -1.6272  0.0329 -2.5553
   10CHL1  H22B  724   3.148   2.682   6.712 -0.1176 -2.3866  0.8297
   10CHL1   C23  725   2.987   2.694   6.570  0.1799  0.2203  0.2095
   10CHL1  H23A  726   3.011   2.599   6.518  0.8585  0.3093  0.3590
   10CHL1  H23B  727   2.876   2.708   6.574  0.1831  0.1212  0.6259
   10CHL1   C24  728   3.051   2.812   6.491 -0.6202  0.4970 -0.2650
   10CHL1  H24A  729   3.049   2.905   6.552 -0.0730 -0.4020  1.1736
   10CHL1  H24B  730   3.161   2.797   6.488 -0.7508 -0.9420  1.0658
   10CHL1   C25  731   2.989   2.819   6.347 -0.2935 -0.0332  0.0177
   10CHL1   H25  732   2.882   2.841   6.364 -0.3017  1.5371 -1.7074
   10CHL1   C26  733   3.050   2.930   6.266 -0.5603  0.0291 -0.4403
   10CHL1  H26A  734   3.051   3.021   6.329 -2.7470 -0.7231  0.7792
   10CHL1  H26B  735   3.156   2.915   6.238 -0.2329 -0.0391  0.7992
   10CHL1  H26C  736   2.988   2.942   6.174 -2.7984  2.1371  1.2283
   10CHL1   C27  737   3.010   2.691   6.268 -0.0304  0.0910 -0.7709
   10CHL1  H27A  738   2.959   2.711   6.171 -1.4724  0.0626 -0.0483
   10CHL1  H27B  739   3.114   2.653   6.257 -0.2134 -0.1790 -1.6303
   10CHL1  H27C  740   2.959   2.610   6.325 -2.9298  2.4932  0.2924
   11CHL1    C3  741   1.185   0.640   6.165  0.0049 -0.1783  0.2870
   11CHL1    H3  742   1.086   0.592   6.177  0.6066 -1.4264  0.3992
   11CHL1    O3  743   1.266   0.614   6.281 -0.2760 -0.0662  0.4555
   11CHL1   H3'  744   1.234   0.669   6.353  1.0987  1.2824  0.0926
   11CHL1    C4  745   1.260   0.579   6.049 -0.2466 -0.4091  1.2009
   11CHL1   H4A  746   1.363   0.619   6.036  0.7862 -3.0180  0.7386
   11CHL1   H4B  747   1.278   0.472   6.074  0.2287 -0.7886 -0.5984
   11CHL1    C5  748   1.176   0.600   5.928 -0.2324 -0.5809 -0.0500
   11CHL1    C6  749   1.132   0.491   5.858 -0.6650 -0.4083  0.0281
   11CHL1    H6  750   1.155   0.389   5.892 -0.9058 -0.1439  1.0148
   11CHL1    C7  751   1.037   0.502   5.741 -0.3133  0.1207 -0.4430
   11CHL1   H7A  752   1.049   0.429   5.658  1.1818  1.3072 -1.3180
   11CHL1   H7B  753   0.935   0.479   5.779  0.5540 -1.8594  0.8492
   11CHL1    C8  754   1.019   0.652   5.687 -0.1874  0.1351  0.2996
   11CHL1    H8  755   1.104   0.674   5.619 -0.4338 -0.1682 -0.1072
   11CHL1   C14  756   0.893   0.653   5.604 -0.3205  0.5022  0.7552
   11CHL1   H14  757   0.803   0.640   5.669  0.3743 -0.0900  1.6231
   11CHL1   C15  758   0.883   0.542   5.498 -0.0086 -0.6529  0.2977
   11CHL1  H15A  759   0.982   0.527   5.451 -0.5337 -1.1896 -0.6850
   11CHL1  H15B  760   0.836   0.450   5.540 -1.3029  0.5497  1.6008
   11CHL1   C16  761   0.780   0.611   5.396  0.4529  0.4394  0.6926
   11CHL1  H16A  762   0.827   0.599   5.297  1.6317  0.9313  1.1666
   11CHL1  H16B  763   0.684   0.556   5.397  1.7317 -1.9176  1.8649
   11CHL1   C17  764   0.757   0.753   5.435  0.0939  0.0192 -0.1210
   11CHL1   H17  765   0.670   0.736   5.501  0.5733  2.5692  1.3129
   11CHL1   C13  766   0.875   0.792   5.531  0.4734  0.7307 -0.1186
   11CHL1   C18  767   0.989   0.819   5.430 -0.1389 -0.0620 -0.1468
   11CHL1  H18A  768   0.962   0.900   5.360  2.4189  0.9273 -0.0834
   11CHL1  H18B  769   1.081   0.859   5.478 -0.8662  1.4260  0.0682
   11CHL1  H18C  770   1.015   0.735   5.362  1.0030 -1.7848  2.2512
   11CHL1   C12  771   0.852   0.909   5.630  0.5075 -0.5265 -0.9684
   11CHL1  H12A  772   0.865   1.007   5.580  0.9306  0.0984  0.3153
   11CHL1  H12B  773   0.756   0.906   5.686  0.9623 -0.4506 -0.1679
   11CHL1   C11  774   0.966   0.896   5.742 -0.2454 -0.8565  0.3960
   11CHL1  H11A  775   1.061   0.942   5.709  0.3110 -2.9490 -1.1660
   11CHL1  H11B  776   0.932   0.947   5.834  0.2173 -0.7414  0.5038
   11CHL1    C9  777   1.004   0.753   5.798  0.2241  0.3329  0.2711
   11CHL1    H9  778   0.917   0.721   5.859  1.2724  1.2752  2.3983
   11CHL1   C10  779   1.125   0.742   5.897  0.1914 -0.8887  0.1712
   11CHL1   C19  780   1.249   0.812   5.830 -0.0736  0.1718  0.3376
   11CHL1  H19A  781   1.340   0.811   5.894  0.7876  0.8088 -0.8547
   11CHL1  H19B  782   1.277   0.753   5.740 -1.2861  0.9408 -0.5782
   11CHL1  H19C  783   1.232   0.917   5.798  2.7618 -0.0687 -2.4347
   11CHL1    C1  784   1.086   0.814   6.029 -0.1546 -0.9803 -0.1520
   11CHL1   H1A  785   1.076   0.920   5.995 -2.4251 -0.8189  0.7900
   11CHL1   H1B  786   0.986   0.796   6.076  0.4187 -0.9584  1.1178
   11CHL1    C2  787   1.180   0.789   6.146  0.1179  0.4009 -0.3378
   11CHL1   H2A  788   1.126   0.831   6.232 -2.2092 -1.9332 -0.5445
   11CHL1   H2B  789   1.278   0.840   6.135 -0.7874  1.9602 -1.4768
   11CHL1   C20  790   0.702   0.846   5.330 -0.3982 -0.1943  0.1711
   11CHL1   H20  791   0.776   0.839   5.248  1.4120 -0.5522  1.7708
   11CHL1   C21  792   0.699   0.988   5.378  0.4276 -0.1518  0.2920
   11CHL1  H21A  793   0.661   0.993   5.483 -0.6886 -0.2325 -0.0897
   11CHL1  H21B  794   0.634   1.046   5.309 -2.0578 -2.9709  0.0662
   11CHL1  H21C  795   0.796   1.041   5.380  0.2358  0.2167  0.0007
   11CHL1   C22  796   0.573   0.807   5.269  0.1594  0.3940 -0.0890
   11CHL1  H22A  797   0.563   0.696   5.274  0.7113  0.3955  1.6110
   11CHL1  H22B  798   0.489   0.848   5.328 -0.4488 -0.3304 -0.4382
   11CHL1   C23  799   0.545   0.847   5.125  0.0743  0.3142  0.0639
   11CHL1  H23A  800   0.555   0.957   5.118  0.6633  0.1552 -2.6602
   11CHL1  H23B  801   0.624   0.800   5.062 -0.4556  2.2146 -2.1527
   11CHL1   C24  802   0.402   0.812   5.077 -0.0784 -0.1492  0.2225
   11CHL1  H24A  803   0.385   0.704   5.098 -0.1015 -0.6278 -2.0336
   11CHL1  H24B  804   0.328   0.857   5.147 -0.0939 -0.5960  0.4954
   11CHL1   C25  805   0.360   0.851   4.938 -0.0677  0.2699  0.7939
   11CHL1   H25  806   0.376   0.961   4.935  0.5819  0.1583 -0.3653
   11CHL1   C26  807   0.450   0.792   4.822  0.9868 -0.6045  0.3279
   11CHL1  H26A  808   0.559   0.811   4.826  0.6829  1.0134  1.7154
   11CHL1  H26B  809   0.434   0.682   4.827 -1.2538 -0.2981  1.2336
   11CHL1  H26C  810   0.416   0.835   4.725  2.3653  1.5777  0.7450
   11CHL1   C27  811   0.209   0.822   4.908 -0.0753 -0.4927  0.0376
   11CHL1  H27A  812   0.171   0.865   4.813  2.1468  0.6148 -0.4208
   11CHL1  H27B  813   0.196   0.712   4.897  0.8404 -0.4937 -1.2150
   11CHL1  H27C  814   0.140   0.853   4.989  0.2586 -1.2829  0.6391
   12CHL1    C3  815   2.239   3.920   7.403  0.2213 -0.2936  1.2861
   12CHL1    H3  816   2.300   3.834   7.369  0.3668 -0.0776  0.9948
   12CHL1    O3  817   2.224   3.913   7.546  0.2292  0.2971 -0.2106
   12CHL1   H3'  818   2.157   3.982   7.555  0.4148  0.6206 -1.1797
   12CHL1    C4  819   2.305   4.056   7.359  0.5536 -0.8182  0.4203
   12CHL1   H4A  820   2.240   4.142   7.389  0.5670 -0.4607 -0.5353
   12CHL1   H4B  821   2.401   4.074   7.412  0.3485  1.3439  0.1543
   12CHL1    C5  822   2.326   4.069   7.210  0.0383 -0.1054  1.2332
   12CHL1    C6  823   2.450   4.099   7.165 -0.7441  0.4771  0.4435
   12CHL1    H6  824   2.527   4.120   7.241  0.0838 -1.2122  0.1228
   12CHL1    C7  825   2.486   4.122   7.022 -0.2342 -0.1747 -0.1912
   12CHL1   H7A  826   2.537   4.217   6.995 -0.1399 -0.0192  0.5248
   12CHL1   H7B  827   2.549   4.039   6.983  0.1763  0.7075 -1.4741
   12CHL1    C8  828   2.355   4.114   6.929  0.2411  0.0927 -1.0521
   12CHL1    H8  829   2.310   4.215   6.920 -1.5167 -0.5014  0.3593
   12CHL1   C14  830   2.399   4.059   6.788  0.3855  0.0008 -0.3483
   12CHL1   H14  831   2.426   3.952   6.802  2.7944  0.6830  0.9046
   12CHL1   C15  832   2.514   4.131   6.723 -0.0840  0.5185 -0.1402
   12CHL1  H15A  833   2.482   4.238   6.726 -0.7508  0.3681 -1.3786
   12CHL1  H15B  834   2.611   4.120   6.775 -0.7209 -2.0755  0.6394
   12CHL1   C16  835   2.500   4.088   6.576  0.8817 -1.1475 -0.5729
   12CHL1  H16A  836   2.477   4.181   6.520 -1.0251 -1.8201 -0.9584
   12CHL1  H16B  837   2.597   4.042   6.547  0.1657 -1.8568 -1.8897
   12CHL1   C17  838   2.372   4.001   6.564 -0.0655 -0.7849 -0.3775
   12CHL1   H17  839   2.400   3.896   6.585  0.2440 -0.4845  0.8354
   12CHL1   C13  840   2.286   4.053   6.689  0.6287  0.4229 -0.5240
   12CHL1   C18  841   2.231   4.190   6.659  0.2706  0.0094 -0.9845
   12CHL1  H18A  842   2.136   4.178   6.601  0.3290  0.3591 -1.1553
   12CHL1  H18B  843   2.184   4.231   6.750  0.9024 -3.2462  0.9502
   12CHL1  H18C  844   2.312   4.244   6.606  0.9377  0.1535  0.1690
   12CHL1   C12  845   2.180   3.955   6.743  0.0828 -0.3505  0.0073
   12CHL1  H12A  846   2.094   3.957   6.672  1.5644  2.0370 -1.8561
   12CHL1  H12B  847   2.222   3.852   6.748  1.3427  0.0511 -1.4372
   12CHL1   C11  848   2.130   3.998   6.883  0.0007  0.1030  0.4490
   12CHL1  H11A  849   2.069   4.091   6.881 -0.3717 -0.1405 -1.0398
   12CHL1  H11B  850   2.059   3.923   6.922  0.2906 -0.0864  0.6136
   12CHL1    C9  851   2.246   4.017   6.982 -1.2884 -0.5976 -0.6537
   12CHL1    H9  852   2.295   3.919   6.993  1.5442  0.7636 -0.3639
   12CHL1   C10  853   2.203   4.041   7.124  0.0926  0.0942 -0.6010
   12CHL1   C19  854   2.106   4.167   7.128  0.8707  0.5468  0.4892
   12CHL1  H19A  855   2.007   4.147   7.082  1.2355 -1.1403  0.3700
   12CHL1  H19B  856   2.080   4.184   7.234  0.0347 -3.6749  1.1557
   12CHL1  H19C  857   2.156   4.250   7.075  2.7838 -1.5103 -1.1351
   12CHL1    C1  858   2.127   3.915   7.176 -0.2866  0.0025 -0.6336
   12CHL1   H1A  859   2.030   3.902   7.124  0.0842  1.5737 -1.7897
   12CHL1   H1B  860   2.187   3.826   7.150  0.7622  1.3118 -3.0165
   12CHL1    C2  861   2.103   3.914   7.330  0.5096 -0.0041 -0.8979
   12CHL1   H2A  862   2.058   3.815   7.354  1.1841 -0.1868 -0.3724
   12CHL1   H2B  863   2.041   4.004   7.351  0.1093 -0.2680 -0.9228
   12CHL1   C20  864   2.303   4.002   6.425 -0.5932 -0.1720  0.9489
   12CHL1   H20  865   2.230   4.087   6.426 -1.0888 -0.5724 -0.1184
   12CHL1   C21  866   2.217   3.875   6.407  0.2768  0.9678 -0.1944
   12CHL1  H21A  867   2.138   3.857   6.483  0.4799 -1.7716 -0.5149
   12CHL1  H21B  868   2.274   3.779   6.409 -0.3768  0.5808  0.7682
   12CHL1  H21C  869   2.180   3.885   6.303  2.8040  0.1397 -1.2615
   12CHL1   C22  870   2.396   4.021   6.296  0.6660 -0.0390 -0.1787
   12CHL1  H22A  871   2.465   4.107   6.312 -0.8196  1.3854 -1.1690
   12CHL1  H22B  872   2.454   3.926   6.302 -0.8506 -0.9039  2.9249
   12CHL1   C23  873   2.322   4.040   6.153  0.0367  0.0471 -0.6995
   12CHL1  H23A  874   2.391   4.066   6.070  0.8676  1.6104  0.4252
   12CHL1  H23B  875   2.268   3.948   6.121  1.6546 -1.6296  1.1226
   12CHL1   C24  876   2.208   4.144   6.164  0.2652 -0.8801  0.2864
   12CHL1  H24A  877   2.116   4.120   6.221 -0.1545  1.0631  0.4887
   12CHL1  H24B  878   2.256   4.236   6.203 -1.7623  1.0346 -1.4841
   12CHL1   C25  879   2.156   4.189   6.022 -0.3324  0.1685  0.4231
   12CHL1   H25  880   2.238   4.201   5.948  0.8852 -0.1422  1.6834
   12CHL1   C26  881   2.059   4.086   5.954  0.1134  0.6494 -0.6185
   12CHL1  H26A  882   1.975   4.080   6.026  0.2163  0.7072 -0.4917
   12CHL1  H26B  883   2.021   4.128   5.859 -0.3530 -1.1655 -1.2767
   12CHL1  H26C  884   2.122   3.995   5.952  1.9681  1.8595  0.2381
   12CHL1   C27  885   2.082   4.324   6.031  0.2829  0.3889 -0.6033
   12CHL1  H27A  886   2.142   4.411   6.066  0.3996  0.1714 -0.2661
   12CHL1  H27B  887   2.039   4.354   5.933 -0.4453 -0.9795 -0.7108
   12CHL1  H27C  888   1.992   4.308   6.093  0.6778 -0.8893 -0.3259
   13CHL1    C3  889   1.919   5.754   7.015  0.3481 -0.1072 -0.2614
   13CHL1    H3  890   1.968   5.662   7.055  1.0672 -0.5578 -2.0956
   13CHL1    O3  891   1.868   5.820   7.132  0.7155  0.1489  0.5017
   13CHL1   H3'  892   1.933   5.803   7.201 -0.5523  2.5549  2.4304
   13CHL1    C4  893   2.037   5.834   6.951  0.6301 -0.7883 -0.1455
   13CHL1   H4A  894   1.991   5.932   6.926 -1.0767 -1.7017 -0.7529
   13CHL1   H4B  895   2.110   5.863   7.029 -0.3906 -0.1493  0.5936
   13CHL1    C5  896   2.088   5.774   6.823 -0.0101  0.0947 -0.5767
   13CHL1    C6  897   2.218   5.753   6.808  0.3120  0.0402  0.4143
   13CHL1    H6  898   2.290   5.786   6.884  0.1063  0.8358  0.2707
   13CHL1    C7  899   2.272   5.681   6.683 -0.4603 -0.6167 -0.0929
   13CHL1   H7A  900   2.371   5.717   6.648 -1.0707  1.9382  0.5902
   13CHL1   H7B  901   2.283   5.573   6.708 -0.1538 -0.9873 -1.7563
   13CHL1    C8  902   2.176   5.681   6.559  0.1106  0.3313 -0.5082
   13CHL1    H8  903   2.184   5.787   6.525  2.4926 -0.2567 -1.9410
   13CHL1   C14  904   2.220   5.589   6.442 -0.4701  0.9306  0.0293
   13CHL1   H14  905   2.214   5.481   6.468  2.0450  0.2298 -1.8791
   13CHL1   C15  906   2.368   5.598   6.394  0.0650  0.1599  0.1046
   13CHL1  H15A  907   2.402   5.702   6.414 -2.8983  1.2910 -0.2954
   13CHL1  H15B  908   2.431   5.524   6.448 -0.6573  0.0841  0.8628
   13CHL1   C16  909   2.362   5.565   6.243  0.1283 -0.3560  0.2268
   13CHL1  H16A  910   2.385   5.664   6.198 -1.3884  0.1888  0.5969
   13CHL1  H16B  911   2.436   5.486   6.221  1.4402  0.5405  1.2614
   13CHL1   C17  912   2.217   5.517   6.213 -0.2234 -0.4892  0.4197
   13CHL1   H17  913   2.219   5.407   6.231  0.6520 -0.3152  1.5035
   13CHL1   C13  914   2.129   5.600   6.313 -0.5151  0.2336 -0.2266
   13CHL1   C18  915   2.118   5.748   6.261  0.1318 -0.3820 -0.5223
   13CHL1  H18A  916   2.217   5.795   6.242 -0.3251  0.5428 -0.6996
   13CHL1  H18B  917   2.054   5.749   6.170  0.9237 -0.4906 -1.0896
   13CHL1  H18C  918   2.069   5.806   6.342  1.2529  1.7939 -1.3228
   13CHL1   C12  919   1.992   5.556   6.350 -0.6498  0.2064  0.1672
   13CHL1  H12A  920   1.919   5.583   6.271  0.4072  1.1649 -0.5208
   13CHL1  H12B  921   1.993   5.447   6.371 -1.8786  0.0371 -0.5342
   13CHL1   C11  922   1.938   5.629   6.475 -0.3000 -0.0009 -0.3273
   13CHL1  H11A  923   1.896   5.728   6.445  0.3154  0.9348  1.7427
   13CHL1  H11B  924   1.842   5.583   6.508  0.1921  0.5953  2.1223
   13CHL1    C9  925   2.029   5.643   6.607  0.6554 -0.2919  0.4842
   13CHL1    H9  926   2.034   5.540   6.648 -2.0793 -0.2566  1.1118
   13CHL1   C10  927   1.984   5.734   6.720  0.3545 -0.6418  0.2846
   13CHL1   C19  928   1.945   5.870   6.661 -0.2605 -0.3544 -0.3488
   13CHL1  H19A  929   1.905   5.937   6.740  1.2331 -0.3655  0.4486
   13CHL1  H19B  930   2.032   5.909   6.605  0.4530 -0.2989  0.7707
   13CHL1  H19C  931   1.857   5.847   6.597 -0.4538 -1.2481  0.2098
   13CHL1    C1  932   1.865   5.658   6.787 -0.0210 -0.0634  0.6219
   13CHL1   H1A  933   1.782   5.656   6.712 -0.1511  0.0783  0.7626
   13CHL1   H1B  934   1.895   5.552   6.798  0.1078 -0.1857 -0.6851
   13CHL1    C2  935   1.814   5.727   6.914  0.8795 -0.3085 -0.1028
   13CHL1   H2A  936   1.742   5.654   6.957  1.0001 -0.1968  0.2995
   13CHL1   H2B  937   1.756   5.818   6.888 -1.5539 -1.8047 -0.1758
   13CHL1   C20  938   2.184   5.531   6.061  0.1281  0.2226 -0.5048
   13CHL1   H20  939   2.177   5.639   6.035 -1.1955  0.0637 -0.8351
   13CHL1   C21  940   2.044   5.472   6.037 -0.3341  0.2488 -0.3680
   13CHL1  H21A  941   2.031   5.456   5.928 -1.5341 -1.3935 -0.0154
   13CHL1  H21B  942   1.959   5.531   6.078 -1.6380 -0.7398 -1.5579
   13CHL1  H21C  943   2.037   5.372   6.084 -2.2121  0.7322  0.4401
   13CHL1   C22  944   2.296   5.482   5.967 -0.2365  0.2333  0.4590
   13CHL1  H22A  945   2.276   5.514   5.863  0.1827 -2.5169 -0.5680
   13CHL1  H22B  946   2.393   5.529   5.991 -0.0575  0.7909 -1.2671
   13CHL1   C23  947   2.297   5.331   5.949  0.2794  0.7188  0.6060
   13CHL1  H23A  948   2.308   5.281   6.048  1.4894 -0.5320 -0.1358
   13CHL1  H23B  949   2.200   5.302   5.904  0.1285 -1.1121  1.9767
   13CHL1   C24  950   2.412   5.297   5.858 -0.2621 -0.1207  0.5831
   13CHL1  H24A  951   2.392   5.329   5.754 -0.2734 -0.6700  0.4156
   13CHL1  H24B  952   2.508   5.340   5.893 -1.0625 -0.0495  2.8920
   13CHL1   C25  953   2.446   5.144   5.861 -0.4958 -0.9354  0.1329
   13CHL1   H25  954   2.461   5.117   5.968  0.9272  2.0988  0.8100
   13CHL1   C26  955   2.339   5.049   5.805 -0.5120 -0.2564  0.1093
   13CHL1  H26A  956   2.317   5.068   5.698  1.8908 -0.5395 -0.5098
   13CHL1  H26B  957   2.378   4.945   5.810 -0.3242 -0.1285  2.0970
   13CHL1  H26C  958   2.244   5.054   5.862 -0.3017 -0.8073  0.5103
   13CHL1   C27  959   2.576   5.119   5.786 -1.0581 -0.0624 -0.5943
   13CHL1  H27A  960   2.651   5.200   5.793 -1.0696  0.2224 -2.8182
   13CHL1  H27B  961   2.613   5.018   5.810 -0.0043  0.0272 -1.7237
   13CHL1  H27C  962   2.557   5.135   5.677 -0.3322  3.2947 -0.3381
   14CHL1    C3  963   6.105   1.681   7.179  0.0560 -0.0332 -0.1318
   14CHL1    H3  964   6.115   1.791   7.193  0.9282 -0.3711  2.2713
   14CHL1    O3  965   6.109   1.629   7.313  0.1546  0.0114  0.4850
   14CHL1   H3'  966   6.020   1.602   7.337  0.5337 -1.6721  0.1882
   14CHL1    C4  967   5.975   1.657   7.101  0.2043  0.0719 -0.3420
   14CHL1   H4A  968   5.962   1.547   7.113  2.4035 -0.6135 -3.0973
   14CHL1   H4B  969   5.891   1.690   7.165  0.1510 -1.0735  0.1973
   14CHL1    C5  970   5.969   1.696   6.959  0.1966  0.7216 -0.3924
   14CHL1    C6  971   5.881   1.781   6.910 -0.0068  0.2262 -0.3252
   14CHL1    H6  972   5.813   1.816   6.989  1.9102  0.8644  1.1150
   14CHL1    C7  973   5.866   1.808   6.760 -0.3519  0.0272  0.0298
   14CHL1   H7A  974   5.760   1.791   6.732 -1.0548  3.3147  0.3440
   14CHL1   H7B  975   5.875   1.918   6.747  0.1330 -0.0402 -0.2503
   14CHL1    C8  976   5.970   1.723   6.674 -0.7410 -0.2881 -0.2668
   14CHL1    H8  977   5.917   1.629   6.649  2.8523 -1.8658 -2.8175
   14CHL1   C14  978   6.001   1.802   6.545  0.0189  0.5294  0.2985
   14CHL1   H14  979   6.065   1.890   6.566  1.7585 -1.0611  2.1747
   14CHL1   C15  980   5.876   1.852   6.472  0.0184  0.1412 -0.8508
   14CHL1  H15A  981   5.821   1.756   6.480  1.2413 -0.5308 -0.2047
   14CHL1  H15B  982   5.820   1.935   6.520 -1.4187 -0.7076 -0.9978
   14CHL1   C16  983   5.924   1.888   6.330 -0.9092  0.2479 -0.4874
   14CHL1  H16A  984   5.867   1.818   6.265 -0.9059  0.4048 -0.6608
   14CHL1  H16B  985   5.914   1.993   6.297 -1.6817  0.3634  0.0868
   14CHL1   C17  986   6.072   1.839   6.319 -0.1059  0.5679 -0.2719
   14CHL1   H17  987   6.140   1.924   6.343 -0.9605  1.4880 -0.9873
   14CHL1   C13  988   6.087   1.730   6.437 -0.0097  0.0183 -0.4639
   14CHL1   C18  989   6.032   1.591   6.393  0.0560 -0.1876  0.1006
   14CHL1  H18A  990   6.038   1.514   6.473  0.0679  0.0982  0.3726
   14CHL1  H18B  991   5.925   1.595   6.367 -0.4580 -0.4358  2.0201
   14CHL1  H18C  992   6.092   1.545   6.311  0.4052 -0.1603  0.3358
   14CHL1   C12  993   6.224   1.705   6.504 -0.1414 -0.6994 -0.5144
   14CHL1  H12A  994   6.280   1.633   6.440 -1.7858 -2.1223 -0.4184
   14CHL1  H12B  995   6.281   1.800   6.513  1.7112 -1.7998  0.1331
   14CHL1   C11  996   6.213   1.640   6.647 -0.3366 -0.1709  0.4121
   14CHL1  H11A  997   6.183   1.535   6.627 -2.1935 -0.1692  2.7232
   14CHL1  H11B  998   6.312   1.639   6.697  0.9605  0.4516 -1.9799
   14CHL1    C9  999   6.106   1.704   6.745 -0.2246 -0.0923  0.1644
   14CHL1    H9 1000   6.136   1.808   6.772 -1.1578  0.6758 -1.5848
   14CHL1   C10 1001   6.090   1.633   6.880  0.8788 -0.2178 -0.0912
   14CHL1   C19 1002   6.067   1.484   6.867 -0.3745 -0.3386  0.2686
   14CHL1  H19A 1003   5.972   1.462   6.813 -0.5062 -0.1577  0.4235
   14CHL1  H19B 1004   6.150   1.433   6.814  1.6944  3.6652 -0.7205
   14CHL1  H19C 1005   6.044   1.442   6.967 -0.3745  1.4699  1.0606
   14CHL1    C1 1006   6.218   1.656   6.956 -0.5217 -0.3277  0.0790
   14CHL1   H1A 1007   6.301   1.595   6.914  0.0770  0.9494 -0.6732
   14CHL1   H1B 1008   6.246   1.764   6.950 -1.3197 -0.0577  0.9789
   14CHL1    C2 1009   6.225   1.617   7.107 -0.2879 -0.1324 -0.4524
   14CHL1   H2A 1010   6.311   1.655   7.166 -0.9078  1.3146 -0.4282
   14CHL1   H2B 1011   6.211   1.507   7.110  0.5554 -0.2401 -0.1922
   14CHL1   C20 1012   6.112   1.792   6.175 -0.5391 -0.1667  0.0653
   14CHL1   H20 1013   6.042   1.712   6.144 -1.5915  0.9346 -0.4889
   14CHL1   C21 1014   6.251   1.730   6.164  0.0259  0.3881  0.0396
   14CHL1  H21A 1015   6.234   1.638   6.105 -3.1700 -0.8983  2.6392
   14CHL1  H21B 1016   6.298   1.701   6.260 -1.0835  0.8158  0.7335
   14CHL1  H21C 1017   6.319   1.798   6.109  1.3758 -0.8464  0.1247
   14CHL1   C22 1018   6.093   1.907   6.066 -0.1440  0.2710  0.5501
   14CHL1  H22A 1019   5.993   1.951   6.087 -0.5647 -0.6018  0.4015
   14CHL1  H22B 1020   6.171   1.986   6.075 -0.2978  0.4647  0.2020
   14CHL1   C23 1021   6.079   1.844   5.923  0.8751  0.0885  0.1756
   14CHL1  H23A 1022   6.161   1.780   5.886  1.7996  1.7735 -0.7985
   14CHL1  H23B 1023   5.985   1.787   5.909  2.1431 -2.0155 -0.1390
   14CHL1   C24 1024   6.078   1.950   5.815  0.0796  0.0896 -0.1948
   14CHL1  H24A 1025   5.980   2.000   5.797  0.3762  0.6302 -0.3122
   14CHL1  H24B 1026   6.155   2.028   5.835  0.6101 -0.0483 -1.6119
   14CHL1   C25 1027   6.123   1.893   5.678 -0.5886 -0.2341 -0.5739
   14CHL1   H25 1028   6.082   1.793   5.656  0.6656 -0.9460  0.1815
   14CHL1   C26 1029   6.074   1.990   5.561 -0.2083 -0.3433 -0.0516
   14CHL1  H26A 1030   6.098   2.096   5.583  0.2691 -0.1625 -1.3418
   14CHL1  H26B 1031   6.121   1.963   5.464  0.9471  2.2556 -0.3052
   14CHL1  H26C 1032   5.964   1.977   5.551 -0.2906 -0.5434  1.0279
   14CHL1   C27 1033   6.279   1.871   5.667  0.2233 -0.6036 -0.2616
   14CHL1  H27A 1034   6.315   1.847   5.564 -0.0827 -1.9120 -0.0723
   14CHL1  H27B 1035   6.336   1.961   5.699  1.4230 -1.4897  0.1590
   14CHL1  H27C 1036   6.302   1.789   5.737  0.2896 -0.6722 -0.3628
   15CHL1    C3 1037   6.370   2.659   7.211 -0.0147  0.2469  0.4660
   15CHL1    H3 1038   6.473   2.646   7.171 -0.3917 -0.1437 -0.3927
   15CHL1    O3 1039   6.370   2.648   7.355  0.3235 -0.0445  0.3163
   15CHL1   H3' 1040   6.283   2.679   7.380 -0.2476 -1.2059 -0.1173
   15CHL1    C4 1041   6.336   2.798   7.160  0.2737 -0.0774  0.2720
   15CHL1   H4A 1042   6.227   2.811   7.179  0.0290 -1.5482 -0.0154
   15CHL1   H4B 1043   6.400   2.861   7.226 -0.3842 -0.4008  1.2478
   15CHL1    C5 1044   6.343   2.807   7.006  0.1295 -0.5127 -0.8287
   15CHL1    C6 1045   6.416   2.899   6.935  0.3160 -0.1061  0.1672
   15CHL1    H6 1046   6.474   2.979   6.983  0.0908  2.1234 -2.9670
   15CHL1    C7 1047   6.425   2.916   6.784 -0.0488  0.4366  0.3642
   15CHL1   H7A 1048   6.416   3.021   6.750  0.9144  1.3663  2.7382
   15CHL1   H7B 1049   6.518   2.871   6.743 -0.2901  0.4437 -0.1858
   15CHL1    C8 1050   6.309   2.834   6.713  0.4542 -0.5268 -0.3546
   15CHL1    H8 1051   6.216   2.893   6.729  2.4531  2.6559  0.3821
   15CHL1   C14 1052   6.342   2.825   6.563 -0.5010 -0.4786 -0.2640
   15CHL1   H14 1053   6.435   2.765   6.556 -1.8056 -2.4536 -1.3665
   15CHL1   C15 1054   6.369   2.955   6.485 -0.3873  0.0405 -0.3609
   15CHL1  H15A 1055   6.294   3.018   6.537 -0.1589 -0.0028  0.0191
   15CHL1  H15B 1056   6.471   2.995   6.503 -0.1756 -1.4016  2.0518
   15CHL1   C16 1057   6.326   2.922   6.342 -0.4137  0.4881 -0.4640
   15CHL1  H16A 1058   6.234   2.979   6.317 -0.8950 -0.0466  0.0486
   15CHL1  H16B 1059   6.409   2.938   6.270 -1.8080  1.8909 -1.8582
   15CHL1   C17 1060   6.283   2.774   6.340  0.2335 -0.2897 -0.7867
   15CHL1   H17 1061   6.378   2.717   6.339  0.0465 -0.8230  2.0467
   15CHL1   C13 1062   6.237   2.745   6.485  0.4005  0.1772 -0.3553
   15CHL1   C18 1063   6.099   2.816   6.499  0.0923  0.3003 -0.6334
   15CHL1  H18A 1064   6.070   2.811   6.606 -0.5101  0.5351 -0.7801
   15CHL1  H18B 1065   6.108   2.926   6.483 -0.9215  0.4863 -0.0274
   15CHL1  H18C 1066   6.004   2.781   6.454  0.4540  0.3024 -1.4164
   15CHL1   C12 1067   6.224   2.598   6.547 -0.4721 -0.2836  0.6623
   15CHL1  H12A 1068   6.141   2.554   6.489 -0.5572  0.4717  0.2045
   15CHL1  H12B 1069   6.316   2.540   6.523 -0.7559  0.1621 -1.7059
   15CHL1   C11 1070   6.199   2.595   6.694  0.2771  0.1619  0.2155
   15CHL1  H11A 1071   6.094   2.626   6.716 -0.0981 -0.4212 -0.6788
   15CHL1  H11B 1072   6.216   2.491   6.728  1.1159 -0.2486 -1.3728
   15CHL1    C9 1073   6.292   2.692   6.772  0.1632 -0.2004 -0.2826
   15CHL1    H9 1074   6.397   2.662   6.758  0.6823  2.3154 -2.6548
   15CHL1   C10 1075   6.263   2.702   6.929  0.3865 -0.0907  0.0978
   15CHL1   C19 1076   6.115   2.756   6.950 -0.1651  0.6811  0.6184
   15CHL1  H19A 1077   6.110   2.865   6.931 -1.0971  0.8675  1.8169
   15CHL1  H19B 1078   6.038   2.694   6.900 -0.8138 -0.4355  2.9027
   15CHL1  H19C 1079   6.094   2.744   7.058  2.6597 -1.3369  1.0642
   15CHL1    C1 1080   6.275   2.562   6.989 -0.4681 -0.3461 -0.6090
   15CHL1   H1A 1081   6.194   2.495   6.955 -0.0324  0.3697 -3.2790
   15CHL1   H1B 1082   6.366   2.510   6.952  0.3448  0.9557 -0.5291
   15CHL1    C2 1083   6.282   2.560   7.142  0.2735  0.1770  1.1414
   15CHL1   H2A 1084   6.311   2.459   7.175 -0.0833  0.5624  2.6844
   15CHL1   H2B 1085   6.181   2.560   7.188 -1.4248 -0.2563 -2.2207
   15CHL1   C20 1086   6.186   2.742   6.218  0.3419  0.5470  0.2136
   15CHL1   H20 1087   6.081   2.763   6.246  0.0249 -0.7987  0.0944
   15CHL1   C21 1088   6.199   2.591   6.188  0.6646 -0.0797  0.0090
   15CHL1  H21A 1089   6.187   2.527   6.278 -0.1510 -0.6173 -0.4814
   15CHL1  H21B 1090   6.298   2.570   6.141  1.5007  0.9855  1.2042
   15CHL1  H21C 1091   6.128   2.554   6.111 -0.1555  0.3411  0.5532
   15CHL1   C22 1092   6.208   2.819   6.082 -0.9968  0.3187  0.6211
   15CHL1  H22A 1093   6.187   2.927   6.097  0.3470  0.8028 -0.7007
   15CHL1  H22B 1094   6.313   2.808   6.049 -1.0871  0.5993  0.2317
   15CHL1   C23 1095   6.109   2.787   5.963 -0.6433 -0.4422 -0.0055
   15CHL1  H23A 1096   6.143   2.859   5.886 -0.3189 -0.8522 -0.2494
   15CHL1  H23B 1097   6.109   2.681   5.929 -2.2781 -0.1570 -0.9776
   15CHL1   C24 1098   5.967   2.826   5.998 -0.2411 -0.2921  0.1234
   15CHL1  H24A 1099   5.914   2.762   6.072  0.0594  0.4341  0.9894
   15CHL1  H24B 1100   5.956   2.931   6.033  1.2538  0.3101 -1.1000
   15CHL1   C25 1101   5.877   2.837   5.872  0.3301 -0.3490 -0.3748
   15CHL1   H25 1102   5.925   2.910   5.803  0.6325  1.0160  1.2201
   15CHL1   C26 1103   5.871   2.713   5.782  0.6324 -0.5654 -0.2836
   15CHL1  H26A 1104   5.825   2.753   5.689  0.3099 -0.2423  0.0113
   15CHL1  H26B 1105   5.974   2.681   5.756  1.5956 -0.6922  3.2602
   15CHL1  H26C 1106   5.815   2.625   5.818  0.4581  0.0057  0.8966
   15CHL1   C27 1107   5.724   2.881   5.895 -0.0308 -0.0669  0.6599
   15CHL1  H27A 1108   5.681   2.799   5.957  1.3943  0.0869  1.9037
   15CHL1  H27B 1109   5.728   2.982   5.940  0.9071  0.3037 -0.2029
   15CHL1  H27C 1110   5.681   2.884   5.792  2.2456 -0.2308 -0.3537
   16CHL1    C3 1111   5.704   6.284   7.274  0.0290 -0.1905 -0.0354
   16CHL1    H3 1112   5.739   6.384   7.241  0.1072 -0.1906  0.0467
   16CHL1    O3 1113   5.765   6.253   7.400  0.4529 -0.4564 -0.2856
   16CHL1   H3' 1114   5.857   6.228   7.385  0.4838 -0.5272  0.0216
   16CHL1    C4 1115   5.550   6.278   7.286  0.3240 -0.2728  0.0214
   16CHL1   H4A 1116   5.521   6.178   7.326 -0.7418 -0.4587 -1.1635
   16CHL1   H4B 1117   5.520   6.361   7.354 -0.8013  0.9238 -1.8283
   16CHL1    C5 1118   5.478   6.275   7.146  0.3413 -0.7593 -0.4893
   16CHL1    C6 1119   5.372   6.357   7.118  0.4995  0.1243  0.2846
   16CHL1    H6 1120   5.320   6.415   7.195 -3.5141  0.0602 -2.0947
   16CHL1    C7 1121   5.313   6.368   6.984  0.1802  0.1188 -0.6306
   16CHL1   H7A 1122   5.202   6.381   6.991  0.3362  1.1083  0.2830
   16CHL1   H7B 1123   5.354   6.466   6.951 -2.0801  0.4588 -2.7321
   16CHL1    C8 1124   5.353   6.253   6.881  0.1437  0.2635 -0.4776
   16CHL1    H8 1125   5.291   6.165   6.908  0.9873  0.0542  0.8787
   16CHL1   C14 1126   5.313   6.293   6.745  0.9957  0.3612  0.2914
   16CHL1   H14 1127   5.382   6.375   6.714 -0.8063  1.4056 -1.1145
   16CHL1   C15 1128   5.169   6.341   6.728 -0.5151 -0.7063  0.5914
   16CHL1  H15A 1129   5.101   6.267   6.775 -0.5724  0.5064  2.4906
   16CHL1  H15B 1130   5.145   6.443   6.765  0.4531 -0.7729  1.4347
   16CHL1   C16 1131   5.159   6.344   6.574 -0.3055  0.1282  0.2647
   16CHL1  H16A 1132   5.059   6.306   6.544  1.1934 -3.2010 -1.0591
   16CHL1  H16B 1133   5.173   6.446   6.534 -0.4089  0.1216  0.2119
   16CHL1   C17 1134   5.267   6.242   6.513 -0.7944 -0.6704  0.3941
   16CHL1   H17 1135   5.351   6.300   6.469 -2.6246  1.9007  0.0643
   16CHL1   C13 1136   5.332   6.178   6.642 -0.2427  0.1824 -0.3397
   16CHL1   C18 1137   5.257   6.044   6.677  0.9002  0.6582 -0.1797
   16CHL1  H18A 1138   5.284   5.974   6.595  1.1052  1.5688 -0.9040
   16CHL1  H18B 1139   5.287   6.010   6.778  3.1243  0.8495 -0.7261
   16CHL1  H18C 1140   5.148   6.064   6.685  0.7084 -0.7101  1.0962
   16CHL1   C12 1141   5.480   6.142   6.637  0.5291  0.0817 -0.7533
   16CHL1  H12A 1142   5.495   6.059   6.565 -0.4568  1.1781 -2.2727
   16CHL1  H12B 1143   5.522   6.239   6.602  0.2875  1.5117  2.5273
   16CHL1   C11 1144   5.542   6.110   6.781  0.9904  0.0328  0.3505
   16CHL1  H11A 1145   5.506   6.009   6.809  1.2112  0.5220  2.5821
   16CHL1  H11B 1146   5.652   6.092   6.774  0.4774 -5.0501  1.4157
   16CHL1    C9 1147   5.501   6.218   6.889  0.3808  0.1255  0.0605
   16CHL1    H9 1148   5.549   6.317   6.869 -0.7717  0.8088  0.5886
   16CHL1   C10 1149   5.543   6.187   7.038 -0.5191  0.3274  0.3328
   16CHL1   C19 1150   5.500   6.042   7.067 -0.0194 -0.4207  0.0867
   16CHL1  H19A 1151   5.393   6.032   7.039  0.3000 -0.3636 -1.2034
   16CHL1  H19B 1152   5.552   5.963   7.009  1.0429 -0.4700  1.0520
   16CHL1  H19C 1153   5.511   6.017   7.175 -0.2796 -0.0043  0.2130
   16CHL1    C1 1154   5.698   6.189   7.043  0.8539 -0.0391 -0.6691
   16CHL1   H1A 1155   5.743   6.115   6.974 -0.1489 -0.9023 -0.4259
   16CHL1   H1B 1156   5.726   6.292   7.012  0.3745  0.9476  1.9372
   16CHL1    C2 1157   5.750   6.170   7.178  0.5297  0.3829 -0.5355
   16CHL1   H2A 1158   5.861   6.174   7.168  0.6166  1.0026  0.4954
   16CHL1   H2B 1159   5.727   6.070   7.221  1.8165  0.7007  1.0154
   16CHL1   C20 1160   5.210   6.153   6.400 -0.7065  0.2083 -0.4174
   16CHL1   H20 1161   5.129   6.091   6.446  1.1343 -0.8102  1.6627
   16CHL1   C21 1162   5.315   6.065   6.333  0.2568  0.0456  0.2132
   16CHL1  H21A 1163   5.275   5.988   6.264 -0.1426  0.3998  0.0394
   16CHL1  H21B 1164   5.355   6.010   6.420 -0.2720 -0.2049  0.3057
   16CHL1  H21C 1165   5.399   6.127   6.294  1.2126 -0.3053  1.6407
   16CHL1   C22 1166   5.150   6.247   6.292  0.7322 -0.9138  0.4788
   16CHL1  H22A 1167   5.077   6.319   6.335 -0.4708 -0.5030 -2.0968
   16CHL1  H22B 1168   5.232   6.309   6.248 -2.0764  2.3660 -0.5821
   16CHL1   C23 1169   5.076   6.174   6.178  0.3170  0.2563  0.1070
   16CHL1  H23A 1170   5.039   6.250   6.106  0.5445  1.2390  0.9885
   16CHL1  H23B 1171   5.145   6.101   6.131 -1.0754 -0.7256 -0.4575
   16CHL1   C24 1172   4.951   6.104   6.226  0.1832  0.0308 -0.7799
   16CHL1  H24A 1173   4.977   6.017   6.290  1.7758  1.1092  0.1151
   16CHL1  H24B 1174   4.889   6.161   6.298  0.4992  0.2236 -0.6572
   16CHL1   C25 1175   4.868   6.059   6.100  0.1798 -0.6215 -0.2298
   16CHL1   H25 1176   4.837   6.150   6.044  0.2057 -0.8997 -0.7089
   16CHL1   C26 1177   4.944   5.978   5.991 -0.3915 -0.1899  0.7456
   16CHL1  H26A 1178   4.868   5.930   5.925 -1.2940  1.9495  0.1542
   16CHL1  H26B 1179   5.008   6.033   5.919  0.2372 -1.4949  0.2668
   16CHL1  H26C 1180   4.995   5.895   6.046  0.3050  1.0103  1.9768
   16CHL1   C27 1181   4.740   5.987   6.143  0.1687  0.0352 -0.0250
   16CHL1  H27A 1182   4.674   6.048   6.207  0.7912 -0.8696  1.5426
   16CHL1  H27B 1183   4.692   5.941   6.053  0.6928  0.5219 -0.5656
   16CHL1  H27C 1184   4.779   5.902   6.203  1.4576  0.9230  0.4327
   17CHL1    C3 1185   1.478   4.849   7.213  0.0837  0.3709  0.0028
   17CHL1    H3 1186   1.380   4.797   7.217  0.3117 -0.0192  0.6017
   17CHL1    O3 1187   1.525   4.875   7.346 -0.5125  0.9976 -0.6703
   17CHL1   H3' 1188   1.528   4.790   7.391 -3.2548 -0.0774 -2.3131
   17CHL1    C4 1189   1.590   4.762   7.141  0.2197  0.2037 -0.9047
   17CHL1   H4A 1190   1.687   4.816   7.139  0.8809 -0.7222  1.9950
   17CHL1   H4B 1191   1.616   4.674   7.203 -0.9565  0.6785  0.3115
   17CHL1    C5 1192   1.544   4.721   7.002 -0.3906 -0.5550 -0.3435
   17CHL1    C6 1193   1.520   4.593   6.972  0.5233  0.3590 -0.6703
   17CHL1    H6 1194   1.528   4.506   7.038 -1.6110 -1.1905 -2.3280
   17CHL1    C7 1195   1.495   4.542   6.831 -1.1579 -0.3057  0.1592
   17CHL1   H7A 1196   1.569   4.462   6.810 -0.8656 -0.5759  2.0765
   17CHL1   H7B 1197   1.389   4.512   6.819 -1.4644  1.2933 -1.8043
   17CHL1    C8 1198   1.512   4.648   6.721  0.0153 -0.2151 -0.1722
   17CHL1    H8 1199   1.619   4.668   6.698  0.0377  1.0177  0.8614
   17CHL1   C14 1200   1.439   4.605   6.590 -0.4245 -0.2485  0.2339
   17CHL1   H14 1201   1.330   4.597   6.610 -0.3678  0.8413  1.0915
   17CHL1   C15 1202   1.490   4.475   6.532  0.5813 -0.2123 -0.2317
   17CHL1  H15A 1203   1.601   4.479   6.536  0.5905 -1.2208  1.2827
   17CHL1  H15B 1204   1.454   4.383   6.584  0.9051 -0.9145 -1.2208
   17CHL1   C16 1205   1.451   4.475   6.385 -0.0080 -0.0597  0.0534
   17CHL1  H16A 1206   1.539   4.460   6.319  0.8064  3.3751  0.1805
   17CHL1  H16B 1207   1.380   4.398   6.350 -0.1610  0.6871 -1.3706
   17CHL1   C17 1208   1.383   4.618   6.363 -0.0863 -0.0718  0.7606
   17CHL1   H17 1209   1.277   4.620   6.393 -0.3728  0.7186 -0.2431
   17CHL1   C13 1210   1.444   4.708   6.476  0.5398  0.8270 -0.1668
   17CHL1   C18 1211   1.584   4.750   6.433 -0.6534  0.1446 -0.0029
   17CHL1  H18A 1212   1.648   4.662   6.409 -1.0154 -0.1997  0.2687
   17CHL1  H18B 1213   1.594   4.816   6.345 -0.3574  0.4782  0.2798
   17CHL1  H18C 1214   1.634   4.793   6.523  1.1182 -1.5313 -0.1350
   17CHL1   C12 1215   1.368   4.830   6.520 -0.2210 -0.2205  0.3804
   17CHL1  H12A 1216   1.365   4.917   6.452  0.0442  0.5989  1.3918
   17CHL1  H12B 1217   1.262   4.804   6.541 -0.6150  2.6373  2.4199
   17CHL1   C11 1218   1.413   4.887   6.654  0.2344  0.2420  0.0669
   17CHL1  H11A 1219   1.511   4.940   6.647  0.2272  0.2283 -0.1410
   17CHL1  H11B 1220   1.346   4.968   6.691  1.7275  1.8562 -0.6093
   17CHL1    C9 1221   1.444   4.783   6.767 -1.1200 -0.0061  0.1764
   17CHL1    H9 1222   1.346   4.750   6.805 -2.1310  1.7235 -0.8065
   17CHL1   C10 1223   1.514   4.832   6.904  0.2705 -0.1307 -0.4000
   17CHL1   C19 1224   1.656   4.893   6.869  0.0387 -0.1414 -0.2386
   17CHL1  H19A 1225   1.720   4.818   6.818  2.3687 -0.1043  2.3778
   17CHL1  H19B 1226   1.640   4.974   6.795 -1.8140 -0.5191 -0.3088
   17CHL1  H19C 1227   1.701   4.934   6.962 -1.5684 -0.8170  0.8775
   17CHL1    C1 1228   1.424   4.955   6.966  0.7101  0.4672 -0.7209
   17CHL1   H1A 1229   1.444   5.046   6.905  1.6434 -0.5144 -1.9539
   17CHL1   H1B 1230   1.316   4.928   6.963  1.0898 -1.3964  0.8154
   17CHL1    C2 1231   1.462   4.976   7.122 -0.1312 -0.2825 -0.4894
   17CHL1   H2A 1232   1.393   5.041   7.179  2.0087  2.7378 -1.0484
   17CHL1   H2B 1233   1.560   5.029   7.122  0.2493 -0.8650  2.2705
   17CHL1   C20 1234   1.387   4.661   6.214  0.5196  0.0051 -0.2706
   17CHL1   H20 1235   1.490   4.674   6.174  0.4079 -0.1142 -0.6009
   17CHL1   C21 1236   1.311   4.799   6.190  0.3780  0.0091 -0.7373
   17CHL1  H21A 1237   1.209   4.797   6.234  1.3328 -2.2308  1.6621
   17CHL1  H21B 1238   1.300   4.818   6.081 -0.9280 -1.6021 -0.9324
   17CHL1  H21C 1239   1.374   4.874   6.241  0.7328 -0.2924 -0.7260
   17CHL1   C22 1240   1.319   4.556   6.125 -0.0705 -0.1088  0.8485
   17CHL1  H22A 1241   1.359   4.454   6.143  1.5199 -0.2414 -2.5218
   17CHL1  H22B 1242   1.212   4.552   6.155 -0.3376 -1.4122 -0.1834
   17CHL1   C23 1243   1.335   4.573   5.972 -0.4532  0.1725 -0.3526
   17CHL1  H23A 1244   1.277   4.662   5.940  0.0613  0.9139  0.7414
   17CHL1  H23B 1245   1.440   4.580   5.935 -0.8438 -0.8620 -1.7524
   17CHL1   C24 1246   1.275   4.454   5.895 -0.0511 -0.4440 -0.9464
   17CHL1  H24A 1247   1.316   4.358   5.934 -0.3788 -0.2576 -0.1332
   17CHL1  H24B 1248   1.165   4.445   5.908  0.0437 -1.7979 -0.9465
   17CHL1   C25 1249   1.315   4.454   5.746  0.5973 -1.0434  0.5262
   17CHL1   H25 1250   1.426   4.462   5.741  0.6715 -1.7638  0.8740
   17CHL1   C26 1251   1.293   4.315   5.686  0.8191 -0.3042  0.2665
   17CHL1  H26A 1252   1.316   4.238   5.763  0.9577 -0.8922 -0.3600
   17CHL1  H26B 1253   1.184   4.309   5.664  0.6559 -1.0612  1.2315
   17CHL1  H26C 1254   1.348   4.305   5.590 -0.8022  1.8635 -0.9821
   17CHL1   C27 1255   1.251   4.566   5.661  0.0816  0.1887 -0.2176
   17CHL1  H27A 1256   1.140   4.568   5.666  0.0871  2.3845  0.4471
   17CHL1  H27B 1257   1.293   4.660   5.703 -0.9477 -0.0270  1.4320
   17CHL1  H27C 1258   1.280   4.555   5.555 -3.0779  1.1170 -1.2869
   18CHL1    C3 1259   1.446   5.744   6.613 -0.2740 -0.2982 -0.5779
   18CHL1    H3 1260   1.412   5.638   6.614 -2.3064  0.2966 -0.7377
   18CHL1    O3 1261   1.492   5.770   6.742 -0.0011 -0.6161  0.5220
   18CHL1   H3' 1262   1.531   5.858   6.740  2.2812 -1.5166  1.5453
   18CHL1    C4 1263   1.556   5.773   6.511  0.1095 -0.0937  0.1707
   18CHL1   H4A 1264   1.572   5.883   6.515 -0.3719 -0.0307  0.4345
   18CHL1   H4B 1265   1.644   5.715   6.544 -0.4281 -1.4647 -0.7151
   18CHL1    C5 1266   1.515   5.742   6.368 -0.4643  0.2204  0.1776
   18CHL1    C6 1267   1.591   5.661   6.285 -0.9320  0.2716 -0.3681
   18CHL1    H6 1268   1.692   5.630   6.316 -1.3225  1.6484  2.6961
   18CHL1    C7 1269   1.553   5.632   6.146  0.1288  0.1949 -0.1531
   18CHL1   H7A 1270   1.636   5.652   6.075 -1.0133 -0.7372 -1.8344
   18CHL1   H7B 1271   1.530   5.525   6.128  0.6794  0.2895 -1.5080
   18CHL1    C8 1272   1.424   5.707   6.097  0.3726 -0.6681 -0.8624
   18CHL1    H8 1273   1.464   5.808   6.078  3.4609 -1.6845 -0.2730
   18CHL1   C14 1274   1.366   5.659   5.974 -0.0150  0.4926  0.4515
   18CHL1   H14 1275   1.333   5.558   6.006  3.0651  0.1582  3.0339
   18CHL1   C15 1276   1.455   5.648   5.846  0.8985  0.2058  0.2350
   18CHL1  H15A 1277   1.511   5.743   5.832 -0.2343  0.8242 -0.2722
   18CHL1  H15B 1278   1.529   5.566   5.846  1.1983  0.4302 -1.7986
   18CHL1   C16 1279   1.348   5.630   5.736  0.2807 -0.2762 -0.4559
   18CHL1  H16A 1280   1.366   5.701   5.652  0.5152  0.1506 -0.0498
   18CHL1  H16B 1281   1.351   5.524   5.703 -0.3179 -0.9596  1.5334
   18CHL1   C17 1282   1.209   5.655   5.797 -0.1329  0.2539 -0.2585
   18CHL1   H17 1283   1.173   5.555   5.830 -0.9348  0.1556 -1.3571
   18CHL1   C13 1284   1.234   5.727   5.928  0.2556 -0.5280  0.8032
   18CHL1   C18 1285   1.263   5.881   5.901  0.0010  0.2620  0.1049
   18CHL1  H18A 1286   1.293   5.924   5.999  0.0290  0.8906 -0.1762
   18CHL1  H18B 1287   1.343   5.883   5.824  3.1814 -0.0246  3.1980
   18CHL1  H18C 1288   1.180   5.943   5.861  0.4435  1.1047  0.4621
   18CHL1   C12 1289   1.125   5.723   6.038  0.1696 -0.0779  1.2269
   18CHL1  H12A 1290   1.040   5.792   6.021 -0.2375 -0.6147  1.0751
   18CHL1  H12B 1291   1.088   5.620   6.052  1.0385 -0.5116  0.4504
   18CHL1   C11 1292   1.180   5.773   6.168  0.9507  0.4375 -0.2599
   18CHL1  H11A 1293   1.182   5.884   6.162 -0.4279  0.5518  0.7420
   18CHL1  H11B 1294   1.107   5.747   6.248  1.4956  0.0882  0.1277
   18CHL1    C9 1295   1.322   5.717   6.211 -0.3305  0.5517  0.3853
   18CHL1    H9 1296   1.302   5.618   6.257 -2.4062  1.2204  1.0199
   18CHL1   C10 1297   1.379   5.794   6.331  0.0363  0.7681  0.5292
   18CHL1   C19 1298   1.381   5.946   6.307 -0.6647  0.2169  0.4731
   18CHL1  H19A 1299   1.445   5.968   6.218 -1.2147  0.5293  0.1490
   18CHL1  H19B 1300   1.283   5.996   6.290 -1.2104 -0.0551  2.5208
   18CHL1  H19C 1301   1.435   6.000   6.388  1.8352 -0.1437 -0.8419
   18CHL1    C1 1302   1.270   5.775   6.436 -0.0659  0.7861 -0.1174
   18CHL1   H1A 1303   1.174   5.827   6.415 -2.3192 -2.3363  1.5600
   18CHL1   H1B 1304   1.257   5.665   6.442  1.5625  0.5769 -0.0466
   18CHL1    C2 1305   1.316   5.820   6.580 -0.7959  0.8305 -0.0759
   18CHL1   H2A 1306   1.244   5.792   6.660  1.2357  0.7820  1.8155
   18CHL1   H2B 1307   1.325   5.931   6.582  0.2662  0.7436  0.9441
   18CHL1   C20 1308   1.113   5.716   5.695 -0.1416 -0.2980  0.2478
   18CHL1   H20 1309   1.135   5.824   5.687 -0.5783  0.1774  3.7658
   18CHL1   C21 1310   0.969   5.712   5.757 -0.3557 -0.4834 -0.3804
   18CHL1  H21A 1311   0.896   5.754   5.685 -0.6106 -0.2167  0.0322
   18CHL1  H21B 1312   0.964   5.775   5.848  1.1929 -0.0416 -0.5696
   18CHL1  H21C 1313   0.937   5.608   5.779  1.4268 -1.1045 -0.5261
   18CHL1   C22 1314   1.109   5.651   5.553  0.4093 -0.6083 -0.0603
   18CHL1  H22A 1315   1.035   5.705   5.490 -0.5578 -0.3878  1.2200
   18CHL1  H22B 1316   1.212   5.667   5.515 -0.0166 -0.8768 -1.3762
   18CHL1   C23 1317   1.083   5.502   5.555  0.2152 -0.3324  0.1328
   18CHL1  H23A 1318   1.152   5.446   5.622 -2.3386 -2.0798  1.5206
   18CHL1  H23B 1319   0.981   5.488   5.598  0.4102 -0.2965  0.6171
   18CHL1   C24 1320   1.089   5.441   5.421  0.0689 -0.8191 -0.5441
   18CHL1  H24A 1321   1.013   5.481   5.351 -0.0235 -0.9113 -0.4960
   18CHL1  H24B 1322   1.185   5.469   5.373 -0.6600  0.9955 -1.0035
   18CHL1   C25 1323   1.077   5.289   5.428 -0.4702 -0.7952 -0.0478
   18CHL1   H25 1324   1.148   5.260   5.509 -2.4241  1.1645  2.5295
   18CHL1   C26 1325   0.944   5.233   5.480 -0.4336 -0.8238 -0.1369
   18CHL1  H26A 1326   0.948   5.244   5.591 -0.2474 -2.6776  0.0786
   18CHL1  H26B 1327   0.852   5.280   5.440 -0.0920 -0.8093 -0.9250
   18CHL1  H26C 1328   0.933   5.124   5.458 -0.5886 -0.7872 -0.2399
   18CHL1   C27 1329   1.116   5.230   5.291 -0.3047 -0.0164 -0.4941
   18CHL1  H27A 1330   1.216   5.265   5.257 -0.4829  0.6654 -0.3444
   18CHL1  H27B 1331   1.105   5.120   5.294 -1.6021  0.1007 -0.0548
   18CHL1  H27C 1332   1.044   5.260   5.212 -2.5984 -3.0839  0.2208
   19CHL1    C3 1333   0.056   4.825   6.889  0.6098 -0.2446  0.7682
   19CHL1    H3 1334   0.025   4.718   6.894  0.7488 -0.3376 -0.1796
   19CHL1    O3 1335   0.134   4.841   7.009  0.0910  0.1793 -0.1794
   19CHL1   H3' 1336   0.187   4.761   7.015 -2.0480 -1.2643  0.6187
   19CHL1    C4 1337   0.142   4.845   6.766 -0.4863 -0.0673  0.1690
   19CHL1   H4A 1338   0.187   4.946   6.780 -1.8029  0.5331  0.1836
   19CHL1   H4B 1339   0.221   4.767   6.758 -0.4393 -0.0195  0.1682
   19CHL1    C5 1340   0.066   4.848   6.635  1.0553  0.7372 -0.0493
   19CHL1    C6 1341   0.112   4.768   6.538 -0.1948  1.0333  0.4902
   19CHL1    H6 1342   0.204   4.709   6.533 -1.3381 -0.7249 -2.1801
   19CHL1    C7 1343   0.038   4.757   6.406 -0.7159  0.4763 -0.1570
   19CHL1   H7A 1344   0.112   4.750   6.324 -0.8531 -1.4993 -0.1498
   19CHL1   H7B 1345  -0.025   4.666   6.396 -0.3002  0.2502 -0.7492
   19CHL1    C8 1346  -0.065   4.872   6.376 -0.8466  0.3715 -0.1064
   19CHL1    H8 1347  -0.007   4.962   6.347  0.8944 -0.3800  0.9100
   19CHL1   C14 1348  -0.154   4.833   6.259  0.0002 -0.0784 -0.0100
   19CHL1   H14 1349  -0.208   4.740   6.285 -1.8576  0.9814  0.1252
   19CHL1   C15 1350  -0.083   4.788   6.127 -0.5029  0.3099 -0.0821
   19CHL1  H15A 1351  -0.011   4.866   6.096  0.1340  0.4208  1.5742
   19CHL1  H15B 1352  -0.032   4.689   6.137 -0.0460  0.3226 -1.9000
   19CHL1   C16 1353  -0.207   4.785   6.033 -0.3312 -0.3592  0.1735
   19CHL1  H16A 1354  -0.176   4.849   5.948 -0.4099 -0.9670 -0.3154
   19CHL1  H16B 1355  -0.232   4.683   5.998  2.2051 -0.6480 -1.0165
   19CHL1   C17 1356  -0.330   4.855   6.101  0.3821 -0.3015  0.0456
   19CHL1   H17 1357  -0.395   4.772   6.136 -0.6753 -0.7934 -2.8043
   19CHL1   C13 1358  -0.266   4.932   6.219  0.1464 -0.3132  0.2670
   19CHL1   C18 1359  -0.193   5.063   6.176 -0.1572 -0.2009 -0.5256
   19CHL1  H18A 1360  -0.266   5.127   6.121  1.0410  0.3142 -1.5734
   19CHL1  H18B 1361  -0.147   5.131   6.251 -1.4785  1.2351 -0.9413
   19CHL1  H18C 1362  -0.120   5.045   6.095  1.4298  1.7680  0.3929
   19CHL1   C12 1363  -0.353   4.966   6.348  0.5445  0.3921  0.5412
   19CHL1  H12A 1364  -0.412   5.058   6.330  1.1395  0.6558 -0.1026
   19CHL1  H12B 1365  -0.421   4.880   6.361  0.2575  0.1061 -2.2908
   19CHL1   C11 1366  -0.266   4.989   6.473 -0.1010  0.8472  0.2598
   19CHL1  H11A 1367  -0.225   5.092   6.461 -2.4250  2.0526  1.9568
   19CHL1  H11B 1368  -0.325   4.986   6.567  0.4469 -1.4049  0.5791
   19CHL1    C9 1369  -0.144   4.892   6.502  0.4358 -0.7104 -0.2242
   19CHL1    H9 1370  -0.185   4.790   6.518  2.5428 -1.5528  0.0474
   19CHL1   C10 1371  -0.064   4.933   6.626  0.4041 -0.1658 -0.1438
   19CHL1   C19 1372  -0.012   5.078   6.618 -0.5939 -0.4656  1.1713
   19CHL1  H19A 1373   0.054   5.109   6.701 -1.4813  0.3943  1.5818
   19CHL1  H19B 1374   0.035   5.106   6.521 -2.5586 -1.3481 -0.1150
   19CHL1  H19C 1375  -0.091   5.156   6.623  1.7983  2.2005 -0.2984
   19CHL1    C1 1376  -0.146   4.922   6.757  0.0665 -0.3529  0.1102
   19CHL1   H1A 1377  -0.221   5.003   6.759  0.3633  0.0920 -2.9887
   19CHL1   H1B 1378  -0.198   4.824   6.751  0.6208 -0.6321 -0.2075
   19CHL1    C2 1379  -0.063   4.929   6.888 -0.2956  0.4909  0.1151
   19CHL1   H2A 1380  -0.132   4.901   6.970  2.1045  0.4699  2.2287
   19CHL1   H2B 1381  -0.015   5.026   6.915  1.8991 -0.7370  0.8306
   19CHL1   C20 1382  -0.426   4.929   5.999 -0.4046  0.2502  0.2974
   19CHL1   H20 1383  -0.369   5.018   5.965  1.0993 -1.4417 -1.8234
   19CHL1   C21 1384  -0.554   4.975   6.062 -0.3843  0.2307  0.3517
   19CHL1  H21A 1385  -0.625   5.005   5.981 -1.6573 -0.8597  1.0318
   19CHL1  H21B 1386  -0.544   5.060   6.133  1.2473 -0.6239  1.1904
   19CHL1  H21C 1387  -0.601   4.895   6.122 -3.0250  1.4454  0.0587
   19CHL1   C22 1388  -0.455   4.846   5.869 -0.5441 -0.8537 -1.1570
   19CHL1  H22A 1389  -0.491   4.925   5.800 -0.7682  0.3468  0.3032
   19CHL1  H22B 1390  -0.362   4.794   5.836  0.2192 -0.7376  0.7206
   19CHL1   C23 1391  -0.566   4.737   5.891 -0.3190 -0.8190 -0.5203
   19CHL1  H23A 1392  -0.544   4.671   5.978  1.3951 -0.1918 -0.4352
   19CHL1  H23B 1393  -0.662   4.788   5.914  0.6670  0.7487  0.3266
   19CHL1   C24 1394  -0.581   4.639   5.774  0.1321  0.6203  0.3408
   19CHL1  H24A 1395  -0.583   4.706   5.686  0.3349 -2.6386 -2.3670
   19CHL1  H24B 1396  -0.496   4.567   5.778 -0.2034  0.2784  2.0326
   19CHL1   C25 1397  -0.700   4.534   5.755  0.1395  0.1016 -0.3223
   19CHL1   H25 1398  -0.692   4.474   5.849  0.7089  1.5999  0.6128
   19CHL1   C26 1399  -0.835   4.604   5.758 -0.6996 -0.5040  0.4117
   19CHL1  H26A 1400  -0.838   4.670   5.668 -1.0166 -1.0055  0.0509
   19CHL1  H26B 1401  -0.910   4.523   5.750  1.5171 -2.5060 -4.5012
   19CHL1  H26C 1402  -0.841   4.668   5.849 -2.7121  0.7398 -0.5366
   19CHL1   C27 1403  -0.690   4.450   5.625  0.0659 -0.2257 -0.1802
   19CHL1  H27A 1404  -0.764   4.368   5.621  0.8215 -0.9803  0.7049
   19CHL1  H27B 1405  -0.708   4.509   5.532  1.3934  0.3090 -0.1209
   19CHL1  H27C 1406  -0.587   4.408   5.615  0.1568 -0.0202 -0.1153
   20CHL1    C3 1407   1.839   6.298   6.629  0.4482  0.2487  0.2999
   20CHL1    H3 1408   1.890   6.211   6.676 -0.0962 -0.4289 -0.3300
   20CHL1    O3 1409   1.798   6.387   6.729  0.4865  0.1672  0.5309
   20CHL1   H3' 1410   1.776   6.464   6.675  1.4592  0.2199  0.1904
   20CHL1    C4 1411   1.915   6.375   6.518 -0.0269 -0.5037 -0.5128
   20CHL1   H4A 1412   1.870   6.472   6.486 -0.2527 -0.8292 -1.2160
   20CHL1   H4B 1413   2.006   6.422   6.560  0.0350 -2.1432  1.3025
   20CHL1    C5 1414   1.949   6.297   6.401 -0.3896  0.2972  0.4033
   20CHL1    C6 1415   2.078   6.286   6.355 -0.2573 -0.3084  0.1510
   20CHL1    H6 1416   2.149   6.352   6.407 -1.4782  0.1353  1.3255
   20CHL1    C7 1417   2.126   6.214   6.234  0.7217  0.1266 -0.4403
   20CHL1   H7A 1418   2.195   6.269   6.167 -1.9714  1.3288 -2.4360
   20CHL1   H7B 1419   2.187   6.123   6.253  2.5757  1.7446  1.9277
   20CHL1    C8 1420   2.011   6.166   6.138 -0.1553  0.4411 -0.2648
   20CHL1    H8 1421   1.980   6.254   6.079 -2.0172  0.3074  0.4767
   20CHL1   C14 1422   2.041   6.046   6.042 -0.6398  0.2275  0.5398
   20CHL1   H14 1423   2.070   5.966   6.113  0.6753 -0.6859 -0.9602
   20CHL1   C15 1424   2.159   6.068   5.945 -0.3084 -0.8349  0.1291
   20CHL1  H15A 1425   2.141   6.155   5.878  0.0640  0.1766  1.2938
   20CHL1  H15B 1426   2.252   6.093   6.000 -0.4570  0.6140 -0.2362
   20CHL1   C16 1427   2.157   5.941   5.863 -0.9901  0.6353 -0.6334
   20CHL1  H16A 1428   2.182   5.959   5.756  0.7072  0.6621 -0.2455
   20CHL1  H16B 1429   2.222   5.856   5.893 -1.1319  1.6077  2.7806
   20CHL1   C17 1430   2.007   5.888   5.873  0.0065 -0.2698 -0.1828
   20CHL1   H17 1431   2.021   5.798   5.936  1.3539 -1.3698 -1.9359
   20CHL1   C13 1432   1.926   5.993   5.961 -0.3929  0.2483  0.5335
   20CHL1   C18 1433   1.873   6.116   5.872 -0.1533  0.4004 -0.3003
   20CHL1  H18A 1434   1.783   6.074   5.822  1.7301 -0.3698 -3.2831
   20CHL1  H18B 1435   1.841   6.195   5.944 -1.2358 -0.5445  0.3067
   20CHL1  H18C 1436   1.949   6.150   5.799  0.8110 -0.1332  0.4263
   20CHL1   C12 1437   1.825   5.942   6.056  1.1762  0.5920  0.3802
   20CHL1  H12A 1438   1.737   5.899   6.002  3.6634 -1.3410 -2.4750
   20CHL1  H12B 1439   1.871   5.853   6.104  0.0345 -0.0699  0.2967
   20CHL1   C11 1440   1.776   6.047   6.164  0.3789  0.2942  0.8866
   20CHL1  H11A 1441   1.696   6.110   6.120  0.0318  0.3544  1.6112
   20CHL1  H11B 1442   1.718   5.987   6.236 -0.1092  1.2312  1.2836
   20CHL1    C9 1443   1.896   6.118   6.227 -0.5595 -0.4899 -0.0828
   20CHL1    H9 1444   1.944   6.036   6.285 -0.0194  0.6907  1.1901
   20CHL1   C10 1445   1.838   6.212   6.336  0.2460  0.1358  0.3856
   20CHL1   C19 1446   1.759   6.328   6.268 -0.0850  0.2771 -0.4137
   20CHL1  H19A 1447   1.680   6.287   6.202  0.1154  0.0641 -0.5223
   20CHL1  H19B 1448   1.713   6.402   6.336 -0.8963 -0.5887 -0.0069
   20CHL1  H19C 1449   1.825   6.391   6.204 -0.8383  2.8925  1.2631
   20CHL1    C1 1450   1.768   6.143   6.456  0.4592  0.3090 -0.1312
   20CHL1   H1A 1451   1.676   6.089   6.423  0.3228 -0.7421  1.7948
   20CHL1   H1B 1452   1.836   6.062   6.491  1.5230  2.0123  1.9481
   20CHL1    C2 1453   1.721   6.231   6.568 -0.0136 -0.4724  0.0474
   20CHL1   H2A 1454   1.662   6.168   6.639 -1.3303  1.4127  0.7166
   20CHL1   H2B 1455   1.650   6.307   6.528  1.9347  0.6062 -1.5474
   20CHL1   C20 1456   1.958   5.824   5.746  0.8530  0.1451 -0.1098
   20CHL1   H20 1457   1.929   5.903   5.674 -1.5024  0.6000  1.2608
   20CHL1   C21 1458   1.823   5.753   5.775  0.0758 -0.0180  0.2743
   20CHL1  H21A 1459   1.742   5.823   5.802 -1.2547 -2.3330  2.7798
   20CHL1  H21B 1460   1.834   5.693   5.868  1.1525 -0.1137  0.0953
   20CHL1  H21C 1461   1.786   5.697   5.686 -1.7089  0.4062  0.7184
   20CHL1   C22 1462   2.053   5.721   5.683  0.4276 -0.0607 -0.4567
   20CHL1  H22A 1463   2.157   5.757   5.668  0.1815  0.0181 -2.2529
   20CHL1  H22B 1464   2.061   5.634   5.752  2.1576 -0.3645 -0.9689
   20CHL1   C23 1465   2.022   5.655   5.546 -0.4396 -0.8669 -1.0031
   20CHL1  H23A 1466   1.933   5.592   5.564 -1.9746  1.5196  0.3137
   20CHL1  H23B 1467   2.021   5.728   5.462 -0.5602  0.8108  0.4030
   20CHL1   C24 1468   2.140   5.569   5.508 -0.2201  0.1372  0.1282
   20CHL1  H24A 1469   2.229   5.630   5.482  1.1589 -2.4220 -1.6161
   20CHL1  H24B 1470   2.159   5.509   5.599  1.3727 -0.5509 -0.6223
   20CHL1   C25 1471   2.105   5.482   5.382  0.0277 -0.4491  0.0741
   20CHL1   H25 1472   2.001   5.447   5.391 -0.4010 -0.3964 -3.2503
   20CHL1   C26 1473   2.128   5.561   5.251  0.5627 -0.2283  0.0823
   20CHL1  H26A 1474   2.118   5.493   5.164 -0.5329  0.4221 -0.3285
   20CHL1  H26B 1475   2.049   5.639   5.249  1.6517  0.9072  0.5550
   20CHL1  H26C 1476   2.223   5.616   5.238  0.6723 -0.7416 -1.5520
   20CHL1   C27 1477   2.196   5.360   5.375 -0.2969  0.5953  0.3535
   20CHL1  H27A 1478   2.165   5.281   5.447  1.0161 -1.4041 -1.1547
   20CHL1  H27B 1479   2.214   5.311   5.277 -0.2371  0.1212  0.5971
   20CHL1  H27C 1480   2.298   5.387   5.411  0.2182 -0.8833  0.0964
   21CHL1    C3 1481   6.259   6.038   6.708  1.0296 -0.1244 -0.2764
   21CHL1    H3 1482   6.157   5.999   6.728  0.3196  2.3219  1.4052
   21CHL1    O3 1483   6.314   6.056   6.835 -0.6080  0.0511 -0.2354
   21CHL1   H3' 1484   6.356   6.142   6.836  0.3796 -0.4123  0.1627
   21CHL1    C4 1485   6.347   5.956   6.614  1.1530 -0.1825  0.1003
   21CHL1   H4A 1486   6.447   6.003   6.612  1.4464 -0.7724  0.5710
   21CHL1   H4B 1487   6.356   5.856   6.661  1.0317  0.1652  0.8730
   21CHL1    C5 1488   6.300   5.953   6.469  0.9256 -0.5112 -0.0169
   21CHL1    C6 1489   6.264   5.839   6.405  0.5222  0.8285  0.3184
   21CHL1    H6 1490   6.283   5.740   6.451 -1.3441 -0.4173 -1.4216
   21CHL1    C7 1491   6.243   5.831   6.258 -0.0448 -0.2820  0.5673
   21CHL1   H7A 1492   6.319   5.756   6.230  0.0254 -0.7203  1.8760
   21CHL1   H7B 1493   6.140   5.790   6.244  0.1127 -0.0364 -1.7566
   21CHL1    C8 1494   6.265   5.973   6.188  1.1777 -0.0988  0.3959
   21CHL1    H8 1495   6.373   5.994   6.175  0.9535  1.9777  1.4481
   21CHL1   C14 1496   6.191   5.973   6.049 -0.3667 -0.4169 -0.1844
   21CHL1   H14 1497   6.086   5.961   6.083 -0.4198  0.7778  0.1154
   21CHL1   C15 1498   6.227   5.852   5.957 -0.3996  0.3942 -0.2080
   21CHL1  H15A 1499   6.336   5.832   5.948 -0.5436  0.0245 -1.3612
   21CHL1  H15B 1500   6.162   5.771   5.996 -1.0725  1.3372  0.6622
   21CHL1   C16 1501   6.186   5.900   5.819  0.3247 -0.1230 -0.0053
   21CHL1  H16A 1502   6.266   5.895   5.741  0.7323  0.6851  0.3422
   21CHL1  H16B 1503   6.099   5.848   5.774  1.0405 -0.5410 -0.9386
   21CHL1   C17 1504   6.135   6.049   5.841  0.2115 -0.7697 -0.1895
   21CHL1   H17 1505   6.025   6.044   5.856 -0.0008 -1.0153 -1.6248
   21CHL1   C13 1506   6.204   6.096   5.966 -0.1901 -0.5413 -0.4141
   21CHL1   C18 1507   6.346   6.134   5.943 -0.9117  0.8604  0.0397
   21CHL1  H18A 1508   6.359   6.238   5.904  1.0613  0.7114  0.1977
   21CHL1  H18B 1509   6.413   6.149   6.031  0.3396 -1.7927 -0.3772
   21CHL1  H18C 1510   6.399   6.063   5.876 -0.6831 -0.4726  1.5676
   21CHL1   C12 1511   6.120   6.205   6.054  0.3996 -0.1797  1.0226
   21CHL1  H12A 1512   6.124   6.299   5.996 -1.1358 -1.6153 -1.6245
   21CHL1  H12B 1513   6.013   6.173   6.051 -0.0148  1.2143 -0.9201
   21CHL1   C11 1514   6.172   6.215   6.193 -0.4255  0.8535 -1.1891
   21CHL1  H11A 1515   6.271   6.265   6.181  0.0870  0.6089  1.3569
   21CHL1  H11B 1516   6.114   6.288   6.253  2.9440  1.9298  1.0389
   21CHL1    C9 1517   6.203   6.081   6.276  0.3184 -0.2225  0.7669
   21CHL1    H9 1518   6.098   6.047   6.287 -0.6753  1.8868 -1.3401
   21CHL1   C10 1519   6.271   6.091   6.417 -0.0182 -0.2012 -0.0302
   21CHL1   C19 1520   6.390   6.181   6.396 -0.5283 -0.0419 -0.2161
   21CHL1  H19A 1521   6.466   6.151   6.320 -0.5217 -0.4829 -0.0412
   21CHL1  H19B 1522   6.366   6.285   6.365  1.2835  0.3247 -0.5355
   21CHL1  H19C 1523   6.446   6.194   6.491 -0.8633 -0.8938  0.1081
   21CHL1    C1 1524   6.171   6.152   6.512  1.0602 -0.5981  0.5822
   21CHL1   H1A 1525   6.129   6.242   6.460  1.0486 -1.9367 -1.8939
   21CHL1   H1B 1526   6.082   6.086   6.515  0.5603 -0.0598 -1.0827
   21CHL1    C2 1527   6.220   6.177   6.655  0.0017  0.1553 -0.2775
   21CHL1   H2A 1528   6.140   6.220   6.719 -0.3920 -3.2541  1.7841
   21CHL1   H2B 1529   6.308   6.245   6.655  0.0713  0.0658 -0.2709
   21CHL1   C20 1530   6.133   6.150   5.717 -0.3969  0.6647 -0.5271
   21CHL1   H20 1531   6.231   6.201   5.706  0.5490 -1.2203 -1.2255
   21CHL1   C21 1532   6.017   6.243   5.740 -0.0874 -0.9000 -0.6638
   21CHL1  H21A 1533   6.025   6.312   5.826 -1.6772  2.5871 -3.1025
   21CHL1  H21B 1534   5.921   6.187   5.750 -0.9359  0.7568  1.3850
   21CHL1  H21C 1535   6.003   6.317   5.659 -0.5336  0.5926  0.7366
   21CHL1   C22 1536   6.100   6.066   5.587 -0.8391  0.1033  0.0348
   21CHL1  H22A 1537   6.186   5.994   5.582 -0.9951  0.0107 -2.0313
   21CHL1  H22B 1538   6.001   6.018   5.602  0.6630 -3.5096 -0.3756
   21CHL1   C23 1539   6.106   6.145   5.453  0.1354  0.1415  0.1184
   21CHL1  H23A 1540   6.007   6.195   5.455 -0.0790 -0.2185 -1.0762
   21CHL1  H23B 1541   6.197   6.209   5.455  0.5254 -0.2546 -2.2776
   21CHL1   C24 1542   6.134   6.063   5.329 -0.8526 -0.4110 -0.0083
   21CHL1  H24A 1543   6.221   6.000   5.358 -1.2661 -1.1435 -0.3331
   21CHL1  H24B 1544   6.054   5.996   5.290  0.9176 -3.6627  1.4668
   21CHL1   C25 1545   6.174   6.152   5.206 -0.3022 -0.4929 -0.8485
   21CHL1   H25 1546   6.257   6.222   5.229  0.7224 -1.9011 -0.0651
   21CHL1   C26 1547   6.237   6.064   5.096  0.1653  0.5544 -0.0906
   21CHL1  H26A 1548   6.168   5.984   5.062 -0.6713  1.4964 -0.6426
   21CHL1  H26B 1549   6.279   6.136   5.023 -0.8699  1.1994 -0.0672
   21CHL1  H26C 1550   6.321   6.006   5.141 -1.0291 -0.9895  0.2193
   21CHL1   C27 1551   6.065   6.243   5.154  0.7296  0.0287  0.2511
   21CHL1  H27A 1552   6.017   6.299   5.236 -0.1808  0.1862 -0.3682
   21CHL1  H27B 1553   6.095   6.315   5.075  1.0264 -0.1110  0.2324
   21CHL1  H27C 1554   5.984   6.179   5.113 -0.2285  1.9061 -0.9034
   22CHL1    C3 1555   0.628   0.112   6.581 -0.2313 -0.2826 -0.3563
   22CHL1    H3 1556   0.709   0.136   6.508 -2.0943  3.3237 -1.4925
   22CHL1    O3 1557   0.670   0.116   6.712  0.3389 -0.0850 -0.0979
   22CHL1   H3' 1558   0.758   0.154   6.720  0.6862 -1.0264  0.8286
   22CHL1    C4 1559   0.512   0.216   6.553 -1.1223  0.4265 -0.3251
   22CHL1   H4A 1560   0.441   0.178   6.630  1.5165 -0.0840  2.0532
   22CHL1   H4B 1561   0.546   0.317   6.582 -2.7185  0.3466  2.1180
   22CHL1    C5 1562   0.460   0.202   6.414 -0.5889 -0.1711 -0.1385
   22CHL1    C6 1563   0.448   0.316   6.344  0.0041  0.1053  0.2600
   22CHL1    H6 1564   0.482   0.408   6.393  0.4565 -0.8014  1.7479
   22CHL1    C7 1565   0.411   0.329   6.200 -0.1253 -0.8266 -0.0016
   22CHL1   H7A 1566   0.336   0.407   6.172 -0.2779 -0.3781  1.5473
   22CHL1   H7B 1567   0.498   0.351   6.134 -0.9422 -1.1145 -1.2155
   22CHL1    C8 1568   0.352   0.195   6.141 -0.3761 -0.0131  0.0250
   22CHL1    H8 1569   0.248   0.187   6.181 -0.8481  2.1241 -0.6477
   22CHL1   C14 1570   0.332   0.198   5.995  0.5934 -0.1112 -0.8757
   22CHL1   H14 1571   0.428   0.224   5.947 -0.7127  2.5188 -2.2529
   22CHL1   C15 1572   0.241   0.307   5.939  0.6368 -0.5496  0.0399
   22CHL1  H15A 1573   0.149   0.318   6.000  0.4444  1.6786 -0.5598
   22CHL1  H15B 1574   0.293   0.405   5.941  1.7793 -1.1453  1.7505
   22CHL1   C16 1575   0.215   0.267   5.794 -1.1132 -0.5548  0.9071
   22CHL1  H16A 1576   0.108   0.264   5.764 -0.6382 -3.7048 -0.9697
   22CHL1  H16B 1577   0.273   0.321   5.715  1.4851 -2.9044  1.0554
   22CHL1   C17 1578   0.279   0.125   5.780 -0.4434 -0.1941 -0.3985
   22CHL1   H17 1579   0.386   0.127   5.751 -0.6447 -1.4687 -1.3169
   22CHL1   C13 1580   0.283   0.070   5.924  0.3034 -0.0893  0.4483
   22CHL1   C18 1581   0.137   0.026   5.963  0.2967  0.2803  0.1023
   22CHL1  H18A 1582   0.121  -0.077   5.923 -1.6550  0.8984 -0.8068
   22CHL1  H18B 1583   0.130   0.021   6.074 -0.3990 -0.0826  0.0439
   22CHL1  H18C 1584   0.067   0.096   5.913 -0.6356 -0.1990  0.7021
   22CHL1   C12 1585   0.388  -0.033   5.961  0.3373  0.2694 -0.3346
   22CHL1  H12A 1586   0.365  -0.134   5.921 -1.7072  0.4107  0.3874
   22CHL1  H12B 1587   0.484   0.006   5.920  0.2937  0.6694 -0.0659
   22CHL1   C11 1588   0.403  -0.052   6.111  0.6048 -0.6871 -0.5637
   22CHL1  H11A 1589   0.307  -0.090   6.151  0.4025 -1.0070 -1.3446
   22CHL1  H11B 1590   0.477  -0.124   6.150 -2.0000 -1.5279  3.4079
   22CHL1    C9 1591   0.434   0.074   6.191 -0.4749  0.6721 -0.4871
   22CHL1    H9 1592   0.537   0.096   6.154 -0.0603  1.2684  0.9560
   22CHL1   C10 1593   0.448   0.061   6.348  0.5212 -0.4717 -0.8389
   22CHL1   C19 1594   0.306   0.021   6.400  0.1469 -0.6529  0.3861
   22CHL1  H19A 1595   0.301   0.008   6.511  1.2743  0.2178  0.5575
   22CHL1  H19B 1596   0.237   0.100   6.365  0.2382 -1.6821 -2.2917
   22CHL1  H19C 1597   0.279  -0.081   6.364 -1.4650 -0.9115  2.1496
   22CHL1    C1 1598   0.551  -0.040   6.383 -0.1357 -0.5019  0.1887
   22CHL1   H1A 1599   0.520  -0.145   6.366 -0.5943 -0.3971  0.3597
   22CHL1   H1B 1600   0.648  -0.016   6.334 -1.3734  2.4164 -1.1038
   22CHL1    C2 1601   0.580  -0.026   6.539 -0.1344  0.4830  0.4257
   22CHL1   H2A 1602   0.660  -0.101   6.555 -3.8324 -3.9525  0.3969
   22CHL1   H2B 1603   0.493  -0.054   6.602 -0.3745  0.9825  0.3200
   22CHL1   C20 1604   0.219   0.027   5.671  0.8814  0.1568 -0.1061
   22CHL1   H20 1605   0.116  -0.003   5.702  0.6255  0.3261 -0.7740
   22CHL1   C21 1606   0.298  -0.106   5.651 -0.3056  0.2435 -0.2586
   22CHL1  H21A 1607   0.277  -0.182   5.728  2.0998 -0.8134 -0.5404
   22CHL1  H21B 1608   0.407  -0.080   5.655 -0.1106 -0.6740  1.1224
   22CHL1  H21C 1609   0.270  -0.141   5.550  1.2981  1.2087 -1.0835
   22CHL1   C22 1610   0.207   0.093   5.529  0.5550 -0.1351 -0.3992
   22CHL1  H22A 1611   0.133   0.046   5.461  1.4284  0.8217 -2.0897
   22CHL1  H22B 1612   0.170   0.197   5.539  2.2497  0.3497  1.4540
   22CHL1   C23 1613   0.337   0.095   5.456  1.1238 -0.0169  0.0011
   22CHL1  H23A 1614   0.418   0.101   5.532 -0.3028  0.3756  1.5224
   22CHL1  H23B 1615   0.360  -0.005   5.412  1.6204  0.1771 -0.1845
   22CHL1   C24 1616   0.352   0.211   5.351 -0.1245  0.0801 -0.5670
   22CHL1  H24A 1617   0.268   0.222   5.279  0.2728 -2.3984 -1.4973
   22CHL1  H24B 1618   0.353   0.305   5.411  1.3784 -0.5471  0.4489
   22CHL1   C25 1619   0.485   0.211   5.276 -0.7469  0.5030 -0.6752
   22CHL1   H25 1620   0.567   0.201   5.350 -1.4822  1.5746  0.3141
   22CHL1   C26 1621   0.499   0.102   5.168 -0.5153  0.4722  0.6988
   22CHL1  H26A 1622   0.595   0.107   5.113 -0.2619  1.4817  1.2074
   22CHL1  H26B 1623   0.505  -0.001   5.208  5.0302  1.3553  3.0342
   22CHL1  H26C 1624   0.422   0.124   5.091 -0.9280  0.2459  1.0426
   22CHL1   C27 1625   0.510   0.345   5.206  0.0120  0.1889  0.2818
   22CHL1  H27A 1626   0.427   0.354   5.133  0.6624 -2.1878 -0.8653
   22CHL1  H27B 1627   0.502   0.433   5.273  1.6010  0.4552  0.1715
   22CHL1  H27C 1628   0.611   0.351   5.159 -0.3946  0.9160 -0.5432
   23CHL1    C3 1629   4.436   0.941   7.105  0.5847 -0.4643 -0.2344
   23CHL1    H3 1630   4.419   1.050   7.100 -1.8471 -0.8418 -1.4686
   23CHL1    O3 1631   4.425   0.894   7.243 -0.3945 -1.1406  0.3969
   23CHL1   H3' 1632   4.512   0.912   7.280  0.4086  1.1553 -2.2347
   23CHL1    C4 1633   4.312   0.875   7.040 -0.0498  0.9844 -0.2085
   23CHL1   H4A 1634   4.315   0.766   7.061  0.9041  0.7780 -1.2756
   23CHL1   H4B 1635   4.220   0.910   7.090  0.1249  1.4309 -0.1953
   23CHL1    C5 1636   4.315   0.896   6.894 -0.1283  1.1675 -0.6557
   23CHL1    C6 1637   4.207   0.942   6.838 -0.3944  0.0620  0.0300
   23CHL1    H6 1638   4.123   0.969   6.904  0.4739  1.2026  0.7174
   23CHL1    C7 1639   4.182   0.963   6.692 -0.1970 -0.0384  0.3599
   23CHL1   H7A 1640   4.085   0.922   6.655  0.9420 -1.7168 -0.9468
   23CHL1   H7B 1641   4.188   1.073   6.680  2.1676 -0.1795 -0.1926
   23CHL1    C8 1642   4.286   0.899   6.600 -0.9906  0.8044 -0.0355
   23CHL1    H8 1643   4.262   0.790   6.598  2.2787 -0.0543  0.7651
   23CHL1   C14 1644   4.296   0.946   6.464  0.4151 -0.7951  0.5292
   23CHL1   H14 1645   4.308   1.054   6.485 -1.4512 -0.4812  0.1793
   23CHL1   C15 1646   4.164   0.955   6.377 -0.1979 -0.7330 -0.0990
   23CHL1  H15A 1647   4.092   0.872   6.392 -1.0900 -0.7762 -3.6181
   23CHL1  H15B 1648   4.108   1.047   6.404  1.7666  0.4602  0.0513
   23CHL1   C16 1649   4.215   0.961   6.234 -0.6029  0.6393  0.1031
   23CHL1  H16A 1650   4.182   0.861   6.197 -0.5247 -0.2922  2.3716
   23CHL1  H16B 1651   4.169   1.043   6.175 -1.3466  0.7933  0.8672
   23CHL1   C17 1652   4.374   0.959   6.235  0.6193 -0.5816  0.4504
   23CHL1   H17 1653   4.400   1.067   6.235  0.3536 -0.4940 -0.8751
   23CHL1   C13 1654   4.406   0.889   6.367  0.4451 -0.0024  0.1067
   23CHL1   C18 1655   4.372   0.735   6.349  0.1493  0.0759 -0.5382
   23CHL1  H18A 1656   4.279   0.706   6.297  0.6982 -1.0379 -0.9371
   23CHL1  H18B 1657   4.461   0.696   6.294  0.8943  1.5810 -0.4587
   23CHL1  H18C 1658   4.372   0.691   6.451  0.5607  1.2783 -0.0000
   23CHL1   C12 1659   4.540   0.918   6.435 -0.7949  0.3873  1.1832
   23CHL1  H12A 1660   4.619   0.863   6.379 -2.4889 -1.7054  0.7013
   23CHL1  H12B 1661   4.556   1.028   6.432 -0.5124  0.3686 -2.4552
   23CHL1   C11 1662   4.550   0.855   6.573 -0.2454  0.3636 -0.0154
   23CHL1  H11A 1663   4.534   0.745   6.560 -1.4135  0.6045 -0.8019
   23CHL1  H11B 1664   4.651   0.881   6.609 -0.5377  1.4679  0.0323
   23CHL1    C9 1665   4.430   0.910   6.662  1.3696 -0.8308 -0.6161
   23CHL1    H9 1666   4.466   1.015   6.669 -1.1156  0.0837 -0.7557
   23CHL1   C10 1667   4.436   0.853   6.815 -0.1298  0.4138 -0.4504
   23CHL1   C19 1668   4.452   0.697   6.820  0.6678 -0.0884  0.7068
   23CHL1  H19A 1669   4.544   0.676   6.761  0.0567  0.7568 -0.5775
   23CHL1  H19B 1670   4.469   0.670   6.926 -3.0714  0.7853  1.6597
   23CHL1  H19C 1671   4.363   0.649   6.773 -0.3739  0.6313  1.8710
   23CHL1    C1 1672   4.561   0.914   6.889  0.1383  0.2220  0.8671
   23CHL1   H1A 1673   4.641   0.850   6.847  0.0136 -0.0236  1.0009
   23CHL1   H1B 1674   4.595   1.014   6.853 -1.1033  0.2101 -0.3904
   23CHL1    C2 1675   4.565   0.902   7.042  0.2248  0.7781 -0.1672
   23CHL1   H2A 1676   4.644   0.958   7.097  1.4012 -0.3378 -0.6690
   23CHL1   H2B 1677   4.588   0.801   7.082 -0.5563  1.1341  1.2244
   23CHL1   C20 1678   4.425   0.896   6.109  0.2915  0.1015  0.4093
   23CHL1   H20 1679   4.374   0.801   6.085  0.0513  0.2551  0.3145
   23CHL1   C21 1680   4.583   0.874   6.117 -0.4319 -0.5970  0.1096
   23CHL1  H21A 1681   4.614   0.792   6.184  0.4748 -0.1575  0.2369
   23CHL1  H21B 1682   4.632   0.969   6.146 -0.8067 -0.8882  1.7946
   23CHL1  H21C 1683   4.622   0.843   6.018 -0.1887  2.2923 -0.8112
   23CHL1   C22 1684   4.394   0.994   5.983  0.2038 -0.4348  0.8419
   23CHL1  H22A 1685   4.289   1.027   5.998  0.3014  0.4243 -0.2467
   23CHL1  H22B 1686   4.456   1.086   5.980 -1.7493  0.9223 -0.1820
   23CHL1   C23 1687   4.394   0.923   5.848 -0.8251 -0.0751 -0.0243
   23CHL1  H23A 1688   4.495   0.880   5.834 -0.4575  1.1321 -1.3997
   23CHL1  H23B 1689   4.324   0.838   5.862  2.8059 -3.6733 -1.7643
   23CHL1   C24 1690   4.351   1.005   5.729 -0.0720 -0.0308  0.2112
   23CHL1  H24A 1691   4.352   0.938   5.640  0.6836 -0.2660  0.3899
   23CHL1  H24B 1692   4.245   1.037   5.734 -0.2429 -0.3808 -0.8560
   23CHL1   C25 1693   4.449   1.118   5.699 -0.2378 -0.0924 -0.2431
   23CHL1   H25 1694   4.492   1.168   5.789 -0.4622 -0.0843 -0.1404
   23CHL1   C26 1695   4.573   1.053   5.638  0.1087 -0.4098  0.2989
   23CHL1  H26A 1696   4.540   0.971   5.571 -1.6073  2.2047 -2.2840
   23CHL1  H26B 1697   4.629   1.133   5.586  0.4669  0.8090  2.4170
   23CHL1  H26C 1698   4.643   1.017   5.717  4.0631 -1.7622 -3.4675
   23CHL1   C27 1699   4.383   1.222   5.600  0.0242 -0.1259  0.9446
   23CHL1  H27A 1700   4.284   1.250   5.641 -0.2303  1.7696 -0.7656
   23CHL1  H27B 1701   4.442   1.313   5.575  0.1274 -0.3728  0.2447
   23CHL1  H27C 1702   4.358   1.166   5.506  0.3192 -0.5502  1.1177
   24CHL1    C3 1703   0.721   0.564   6.365 -0.5115 -0.2670  0.2579
   24CHL1    H3 1704   0.662   0.470   6.353 -0.2787 -0.2922 -0.7843
   24CHL1    O3 1705   0.809   0.566   6.479  0.8668  0.6711  0.0342
   24CHL1   H3' 1706   0.747   0.580   6.551  1.4576  3.3587  0.1136
   24CHL1    C4 1707   0.797   0.577   6.238  0.3577  0.0678  0.1840
   24CHL1   H4A 1708   0.861   0.668   6.240 -0.1434  0.4723 -1.0733
   24CHL1   H4B 1709   0.861   0.486   6.241  0.3502  0.0629  2.6192
   24CHL1    C5 1710   0.702   0.588   6.118 -0.5641  0.7818  0.4535
   24CHL1    C6 1711   0.703   0.504   6.016 -0.6488 -0.4004  0.2437
   24CHL1    H6 1712   0.773   0.419   6.016 -3.1233 -2.6026 -0.3169
   24CHL1    C7 1713   0.618   0.508   5.897 -0.0439 -0.4179  0.6644
   24CHL1   H7A 1714   0.677   0.475   5.809 -0.5102 -1.8753  0.8842
   24CHL1   H7B 1715   0.532   0.440   5.907 -0.5346  0.5010  3.5441
   24CHL1    C8 1716   0.547   0.644   5.876 -0.0352 -0.4166 -0.5804
   24CHL1    H8 1717   0.631   0.712   5.850  3.4805 -3.5125  1.4816
   24CHL1   C14 1718   0.435   0.634   5.780  0.2920  0.1607  0.4007
   24CHL1   H14 1719   0.361   0.565   5.825  0.6543 -0.0802  0.6409
   24CHL1   C15 1720   0.462   0.559   5.635  0.2608 -0.0248 -0.8043
   24CHL1  H15A 1721   0.564   0.597   5.611 -0.3365  0.1549 -3.3499
   24CHL1  H15B 1722   0.458   0.450   5.658  0.0613 -0.0992 -1.1774
   24CHL1   C16 1723   0.345   0.615   5.548 -0.4421 -0.6542 -0.7195
   24CHL1  H16A 1724   0.411   0.642   5.463  1.4889 -2.3491  0.1556
   24CHL1  H16B 1725   0.259   0.546   5.534 -0.9057 -0.2898  0.2509
   24CHL1   C17 1726   0.277   0.731   5.630  0.3298  0.4293  0.4944
   24CHL1   H17 1727   0.190   0.693   5.688  0.3424 -0.2966  0.0522
   24CHL1   C13 1728   0.367   0.768   5.747  0.1640  0.3222  0.4286
   24CHL1   C18 1729   0.466   0.870   5.691 -0.5893  0.5871 -0.4619
   24CHL1  H18A 1730   0.516   0.839   5.597 -0.6977  1.1245 -0.6999
   24CHL1  H18B 1731   0.409   0.965   5.682 -0.7278  0.6296  0.6765
   24CHL1  H18C 1732   0.546   0.891   5.766 -0.2214 -0.7424 -0.4576
   24CHL1   C12 1733   0.303   0.814   5.886 -0.1283 -0.1781  0.3356
   24CHL1  H12A 1734   0.263   0.915   5.861 -0.9053 -1.4318 -4.6304
   24CHL1  H12B 1735   0.224   0.741   5.912 -1.0876  0.7017 -0.0234
   24CHL1   C11 1736   0.400   0.820   6.002 -0.3289  0.5089  0.1655
   24CHL1  H11A 1737   0.455   0.914   5.981  2.2885 -0.8987  0.2616
   24CHL1  H11B 1738   0.326   0.826   6.085  1.3575  1.6486  1.6535
   24CHL1    C9 1739   0.484   0.686   6.014 -0.0967 -0.7921 -0.3197
   24CHL1    H9 1740   0.416   0.604   6.045  0.8445 -1.5420 -0.2201
   24CHL1   C10 1741   0.590   0.694   6.126 -0.6883  0.2229  0.5425
   24CHL1   C19 1742   0.666   0.830   6.109  0.3650  0.3766  0.7153
   24CHL1  H19A 1743   0.686   0.855   6.002 -0.4998 -0.0389  0.4456
   24CHL1  H19B 1744   0.592   0.900   6.153  0.5563  1.4456 -0.5754
   24CHL1  H19C 1745   0.751   0.841   6.179 -0.2685 -0.3143  1.6100
   24CHL1    C1 1746   0.521   0.687   6.266  0.4434 -0.6089  0.1709
   24CHL1   H1A 1747   0.465   0.781   6.285  1.5500  0.0191  0.4653
   24CHL1   H1B 1748   0.453   0.600   6.275  1.2591 -1.1215  1.9215
   24CHL1    C2 1749   0.618   0.681   6.382 -0.3577 -0.4577  0.3280
   24CHL1   H2A 1750   0.560   0.684   6.476  1.5211  2.1943  1.5186
   24CHL1   H2B 1751   0.666   0.781   6.378 -0.2128 -0.5324  0.1886
   24CHL1   C20 1752   0.233   0.846   5.532  0.3193  0.6538  0.3822
   24CHL1   H20 1753   0.308   0.923   5.505 -0.4801  1.9360  1.6428
   24CHL1   C21 1754   0.121   0.925   5.601 -0.3997  0.4694  0.1783
   24CHL1  H21A 1755   0.165   0.971   5.692  1.4683 -1.7179  0.4579
   24CHL1  H21B 1756   0.034   0.861   5.626 -1.2837  2.5490  2.9750
   24CHL1  H21C 1757   0.083   1.011   5.540 -0.0777 -0.4573 -1.3828
   24CHL1   C22 1758   0.177   0.805   5.394 -0.4581 -0.2224  0.5511
   24CHL1  H22A 1759   0.148   0.893   5.334 -3.1334 -1.4509 -0.1068
   24CHL1  H22B 1760   0.254   0.759   5.329  0.5092  4.2637 -1.8250
   24CHL1   C23 1761   0.051   0.716   5.397  0.0192  0.4279 -0.1112
   24CHL1  H23A 1762   0.077   0.621   5.448 -0.3001  0.4960  0.1890
   24CHL1  H23B 1763  -0.035   0.768   5.445 -1.2306 -2.1337  0.6154
   24CHL1   C24 1764  -0.009   0.684   5.259 -0.8978  0.6488 -0.2715
   24CHL1  H24A 1765  -0.111   0.642   5.273 -0.9300  0.6552 -0.4865
   24CHL1  H24B 1766  -0.031   0.771   5.194  2.9974  2.1333  0.1337
   24CHL1   C25 1767   0.072   0.593   5.164 -0.1022  0.3007  0.4304
   24CHL1   H25 1768   0.169   0.642   5.145 -0.4246  1.0266  0.6181
   24CHL1   C26 1769   0.095   0.455   5.218 -0.0271 -0.0925 -0.3880
   24CHL1  H26A 1770   0.139   0.388   5.141 -1.6295 -1.6070 -0.0554
   24CHL1  H26B 1771   0.171   0.465   5.299 -0.0664 -0.7599 -0.2608
   24CHL1  H26C 1772   0.011   0.406   5.272  0.9462 -0.9487  0.4194
   24CHL1   C27 1773  -0.011   0.591   5.032 -0.2201  0.0970 -0.0963
   24CHL1  H27A 1774  -0.009   0.698   5.005 -0.4002 -0.4551 -2.6106
   24CHL1  H27B 1775   0.029   0.514   4.962 -0.5498 -1.4318  1.3089
   24CHL1  H27C 1776  -0.114   0.557   5.058 -1.2442  2.8365 -0.3156
   25CHL1    C3 1777   5.774   3.916   8.213 -0.4593  0.9521 -0.3920
   25CHL1    H3 1778   5.874   3.895   8.169 -0.0443 -0.9009  1.3341
   25CHL1    O3 1779   5.768   3.878   8.354 -0.7074 -0.1002  0.2444
   25CHL1   H3' 1780   5.673   3.873   8.370 -0.9505 -2.4265 -1.4023
   25CHL1    C4 1781   5.753   4.067   8.197  0.3709 -0.8276  0.6570
   25CHL1   H4A 1782   5.664   4.096   8.258  1.1203  1.5709  0.6875
   25CHL1   H4B 1783   5.841   4.124   8.232 -0.4917 -0.8145  3.0256
   25CHL1    C5 1784   5.725   4.093   8.050 -1.0572 -0.0093 -0.5524
   25CHL1    C6 1785   5.813   4.172   7.988 -0.1535  0.9057 -0.0833
   25CHL1    H6 1786   5.909   4.204   8.032  0.8905 -5.1401  3.1803
   25CHL1    C7 1787   5.801   4.212   7.846  0.2364 -0.2353  0.1885
   25CHL1   H7A 1788   5.798   4.323   7.841  0.4162 -0.0621  2.6036
   25CHL1   H7B 1789   5.887   4.176   7.785  1.0598  3.4584 -1.0881
   25CHL1    C8 1790   5.663   4.170   7.785 -1.0665 -1.4033  0.3973
   25CHL1    H8 1791   5.595   4.246   7.829 -0.3787 -0.5325 -0.0206
   25CHL1   C14 1792   5.667   4.164   7.630 -0.8048 -0.6289  0.2983
   25CHL1   H14 1793   5.738   4.086   7.596 -0.8452 -0.4689 -0.1619
   25CHL1   C15 1794   5.718   4.293   7.563 -0.1146  0.6778  0.0018
   25CHL1  H15A 1795   5.675   4.384   7.610  0.9362  0.2111  1.9746
   25CHL1  H15B 1796   5.828   4.306   7.568 -0.3321  2.1484  2.2672
   25CHL1   C16 1797   5.659   4.289   7.418 -0.4168 -1.3252  0.5501
   25CHL1  H16A 1798   5.611   4.388   7.405  0.0980 -0.9963  1.0894
   25CHL1  H16B 1799   5.723   4.255   7.334 -2.4806 -1.5916 -1.0048
   25CHL1   C17 1800   5.554   4.175   7.414  0.0885  0.0570 -0.1985
   25CHL1   H17 1801   5.606   4.086   7.374  0.0983 -0.2378  0.4544
   25CHL1   C13 1802   5.527   4.143   7.570  0.1782  0.6064  0.3342
   25CHL1   C18 1803   5.406   4.235   7.620  0.0570  0.4695  0.2049
   25CHL1  H18A 1804   5.308   4.216   7.571 -0.5068 -0.4738  1.6437
   25CHL1  H18B 1805   5.389   4.220   7.729  0.2499  1.4254  0.3707
   25CHL1  H18C 1806   5.442   4.337   7.596 -0.7329  0.4880 -1.0206
   25CHL1   C12 1807   5.490   3.995   7.608 -0.0420  0.5147 -0.0020
   25CHL1  H12A 1808   5.390   3.966   7.568 -0.5406 -1.0718  2.2176
   25CHL1  H12B 1809   5.563   3.927   7.559 -0.4799  1.1445 -1.5971
   25CHL1   C11 1810   5.482   3.975   7.760  0.4052 -0.4896  0.5045
   25CHL1  H11A 1811   5.382   4.017   7.786  0.1714 -2.1378  2.5450
   25CHL1  H11B 1812   5.473   3.867   7.783  0.9445 -0.5589  0.3921
   25CHL1    C9 1813   5.612   4.028   7.830 -0.0383  0.2446 -0.2673
   25CHL1    H9 1814   5.694   3.962   7.794  0.4133  0.8594 -0.3922
   25CHL1   C10 1815   5.610   4.018   7.985  0.6674  0.0615  1.0163
   25CHL1   C19 1816   5.479   4.088   8.027 -0.9380  0.3277 -0.2189
   25CHL1  H19A 1817   5.394   4.022   8.000 -1.5021  0.7024  0.6374
   25CHL1  H19B 1818   5.473   4.098   8.137 -1.1065 -0.2607 -0.1765
   25CHL1  H19C 1819   5.478   4.193   7.990  0.9886 -0.2396 -2.1777
   25CHL1    C1 1820   5.604   3.870   8.018  0.6623 -0.1182 -0.0874
   25CHL1   H1A 1821   5.504   3.833   7.988  0.3983 -0.4870  1.1819
   25CHL1   H1B 1822   5.667   3.812   7.946  2.0910 -0.6293  1.5070
   25CHL1    C2 1823   5.662   3.833   8.155 -0.4159  0.0017  0.3729
   25CHL1   H2A 1824   5.679   3.723   8.160  2.1613  0.3672  1.3958
   25CHL1   H2B 1825   5.571   3.847   8.217 -1.1548  1.4244 -0.9839
   25CHL1   C20 1826   5.432   4.207   7.328  0.1365 -0.5095 -0.1676
   25CHL1   H20 1827   5.383   4.295   7.376  1.5995  0.3874 -0.2586
   25CHL1   C21 1828   5.342   4.080   7.313 -0.1090 -1.1445  0.2814
   25CHL1  H21A 1829   5.270   4.092   7.229 -0.3095  1.0339  0.6906
   25CHL1  H21B 1830   5.279   4.058   7.402  0.6641 -0.5310  0.9994
   25CHL1  H21C 1831   5.407   3.995   7.283  1.0236 -0.8163  1.7091
   25CHL1   C22 1832   5.477   4.264   7.190  0.0789 -0.0338 -0.1591
   25CHL1  H22A 1833   5.534   4.358   7.208 -1.2289  0.6876  0.3617
   25CHL1  H22B 1834   5.550   4.187   7.157  1.1174 -0.0352  1.9884
   25CHL1   C23 1835   5.370   4.290   7.079 -0.0862  0.7929 -0.1165
   25CHL1  H23A 1836   5.327   4.198   7.036  3.0272 -0.5704 -0.5473
   25CHL1  H23B 1837   5.279   4.328   7.132 -0.6155 -1.8289  0.9949
   25CHL1   C24 1838   5.402   4.380   6.962 -0.5394  0.0059 -0.2736
   25CHL1  H24A 1839   5.314   4.442   6.935  1.2421  2.2589 -1.2004
   25CHL1  H24B 1840   5.478   4.455   6.993 -0.5724  0.7854 -1.9827
   25CHL1   C25 1841   5.452   4.312   6.835  0.0521  0.5891 -0.0421
   25CHL1   H25 1842   5.373   4.238   6.811 -1.0577  2.1714 -1.4849
   25CHL1   C26 1843   5.481   4.411   6.727 -0.2417  0.1971 -0.2038
   25CHL1  H26A 1844   5.472   4.358   6.630 -0.7991  0.6145 -0.3825
   25CHL1  H26B 1845   5.405   4.491   6.716 -1.4462 -1.1173 -1.8812
   25CHL1  H26C 1846   5.583   4.456   6.735 -0.9620  1.8770 -0.0842
   25CHL1   C27 1847   5.571   4.227   6.873  0.7769  0.7210  0.1631
   25CHL1  H27A 1848   5.631   4.286   6.945 -0.0609  1.0806  0.5745
   25CHL1  H27B 1849   5.541   4.130   6.918  0.6450  0.8312  0.3155
   25CHL1  H27C 1850   5.628   4.198   6.782  1.2215 -1.5156  1.0901
   26CHL1    C3 1851   2.385   2.782   7.570 -0.1180 -0.1089  0.1049
   26CHL1    H3 1852   2.475   2.828   7.617 -1.7713  2.2021  1.2042
   26CHL1    O3 1853   2.319   2.723   7.682  0.4597 -0.0246 -0.2047
   26CHL1   H3' 1854   2.312   2.793   7.747  2.2186  2.0985 -2.1569
   26CHL1    C4 1855   2.301   2.891   7.503 -0.2583  0.4357  0.3523
   26CHL1   H4A 1856   2.196   2.856   7.505 -0.0605 -0.1439  2.0267
   26CHL1   H4B 1857   2.309   2.978   7.571 -0.6709  0.6965  0.0701
   26CHL1    C5 1858   2.349   2.945   7.371 -0.1378  0.2583 -0.2081
   26CHL1    C6 1859   2.358   3.075   7.341 -0.0936 -0.2261  0.4218
   26CHL1    H6 1860   2.315   3.146   7.412 -0.8047 -0.2327  0.0128
   26CHL1    C7 1861   2.382   3.122   7.200 -0.2076  0.2881 -0.2785
   26CHL1   H7A 1862   2.295   3.185   7.175 -2.2563 -1.8022  1.1728
   26CHL1   H7B 1863   2.475   3.182   7.197 -0.5075  0.7785  0.1089
   26CHL1    C8 1864   2.397   3.022   7.087  0.1602 -0.1879  0.0349
   26CHL1    H8 1865   2.294   2.993   7.059  0.2170  0.5650 -0.9794
   26CHL1   C14 1866   2.472   3.077   6.971  0.2046 -0.2022  0.1273
   26CHL1   H14 1867   2.575   3.097   7.008 -0.7135  1.1209  2.1769
   26CHL1   C15 1868   2.420   3.205   6.910 -0.4363 -0.7724  0.3785
   26CHL1  H15A 1869   2.310   3.211   6.894 -0.0916 -0.7378 -2.4084
   26CHL1  H15B 1870   2.461   3.288   6.972  1.3559 -0.4392 -1.1910
   26CHL1   C16 1871   2.489   3.211   6.774 -0.0971  0.8321  0.6858
   26CHL1  H16A 1872   2.411   3.205   6.696 -0.2023 -5.0027  0.8208
   26CHL1  H16B 1873   2.553   3.302   6.772 -0.3239  1.1946  4.0350
   26CHL1   C17 1874   2.568   3.085   6.754 -1.1253  0.1763  0.1318
   26CHL1   H17 1875   2.665   3.114   6.801  0.2274 -1.1528 -1.6629
   26CHL1   C13 1876   2.492   2.985   6.854 -0.0084  0.1501 -0.7659
   26CHL1   C18 1877   2.363   2.941   6.791 -0.1083 -0.5130  0.3734
   26CHL1  H18A 1878   2.387   2.861   6.718  2.5064 -1.4651  2.1128
   26CHL1  H18B 1879   2.293   2.903   6.868 -1.3377  0.2047 -0.3695
   26CHL1  H18C 1880   2.318   3.025   6.734 -0.6387 -1.2983 -0.3916
   26CHL1   C12 1881   2.561   2.853   6.904 -0.3575  0.3092  0.0304
   26CHL1  H12A 1882   2.560   2.782   6.819  0.8109 -1.2320  1.2312
   26CHL1  H12B 1883   2.666   2.884   6.924 -0.2005 -1.0430  1.4912
   26CHL1   C11 1884   2.493   2.802   7.029 -0.2496 -0.1211 -0.4887
   26CHL1  H11A 1885   2.394   2.754   7.012  0.3330 -1.2401 -0.8242
   26CHL1  H11B 1886   2.552   2.716   7.068  0.2552  0.2532 -0.4126
   26CHL1    C9 1887   2.475   2.901   7.148  0.1061  0.3640 -0.3021
   26CHL1    H9 1888   2.575   2.941   7.174  1.0212 -1.3744 -0.9505
   26CHL1   C10 1889   2.403   2.839   7.275  0.1981 -0.5613  0.0204
   26CHL1   C19 1890   2.282   2.757   7.226  0.5806  0.9087  0.0531
   26CHL1  H19A 1891   2.224   2.799   7.142 -2.2990 -0.9704  0.9703
   26CHL1  H19B 1892   2.315   2.656   7.194 -0.6581  0.2241  0.8704
   26CHL1  H19C 1893   2.208   2.728   7.303 -0.1230 -0.1903 -0.9942
   26CHL1    C1 1894   2.507   2.749   7.357  0.0241  0.0815  0.1028
   26CHL1   H1A 1895   2.541   2.673   7.283 -0.3032 -0.6890  0.7221
   26CHL1   H1B 1896   2.590   2.811   7.397  0.2411 -0.8873  1.2052
   26CHL1    C2 1897   2.436   2.682   7.476 -0.2609  0.3787 -0.5139
   26CHL1   H2A 1898   2.502   2.600   7.513 -3.0044 -2.0785 -0.7284
   26CHL1   H2B 1899   2.350   2.623   7.437  1.4123 -2.9798  0.4922
   26CHL1   C20 1900   2.595   3.048   6.613 -0.7389 -0.0209  0.9518
   26CHL1   H20 1901   2.503   3.001   6.572 -0.2896  0.1875 -0.3607
   26CHL1   C21 1902   2.705   2.940   6.602  0.2108 -0.6003  0.1288
   26CHL1  H21A 1903   2.801   2.961   6.654  0.7212 -0.9751 -0.6421
   26CHL1  H21B 1904   2.748   2.929   6.501  0.4201 -1.6005  0.3226
   26CHL1  H21C 1905   2.669   2.838   6.628 -2.6521  0.2217 -0.2904
   26CHL1   C22 1906   2.638   3.164   6.519  0.1028 -0.5303 -0.3731
   26CHL1  H22A 1907   2.587   3.255   6.557  1.2775  0.2569 -0.6173
   26CHL1  H22B 1908   2.746   3.186   6.527 -0.2700  1.5447 -0.5989
   26CHL1   C23 1909   2.602   3.143   6.371  0.3125 -0.6871  0.6961
   26CHL1  H23A 1910   2.653   3.060   6.318 -0.2946 -1.1130  0.7800
   26CHL1  H23B 1911   2.495   3.120   6.356 -0.1972  1.7797 -0.0001
   26CHL1   C24 1912   2.627   3.274   6.295  0.2733 -0.2413  0.0364
   26CHL1  H24A 1913   2.571   3.269   6.200  2.7294 -1.8671 -1.4464
   26CHL1  H24B 1914   2.585   3.354   6.360 -0.5903 -3.1628  3.4259
   26CHL1   C25 1915   2.768   3.311   6.253 -0.2265  0.4535 -0.3086
   26CHL1   H25 1916   2.820   3.314   6.351 -1.0638 -0.4925  0.1822
   26CHL1   C26 1917   2.852   3.206   6.174  0.7413 -0.1163 -0.0763
   26CHL1  H26A 1918   2.850   3.110   6.229  0.0266 -0.0101  0.0927
   26CHL1  H26B 1919   2.806   3.194   6.073 -1.7010 -2.0853  1.1492
   26CHL1  H26C 1920   2.960   3.231   6.170  1.1872 -1.8817  0.1238
   26CHL1   C27 1921   2.787   3.457   6.186 -0.2418  0.6716 -0.1069
   26CHL1  H27A 1922   2.738   3.538   6.244 -1.0747 -1.1969  1.9299
   26CHL1  H27B 1923   2.897   3.476   6.183 -0.3577  1.2920 -1.0245
   26CHL1  H27C 1924   2.743   3.455   6.084 -1.6245 -0.2182  0.4833
   27CHL1    C3 1925   0.777   5.830   6.835 -0.6487  0.4509  0.0913
   27CHL1    H3 1926   0.752   5.935   6.807  1.7293  1.3592  1.0672
   27CHL1    O3 1927   0.800   5.841   6.975  0.1085 -0.0880  0.2843
   27CHL1   H3' 1928   0.721   5.811   7.020  0.6360 -1.2986  0.4419
   27CHL1    C4 1929   0.670   5.719   6.805  0.2036 -0.6188 -0.4626
   27CHL1   H4A 1930   0.700   5.633   6.868 -2.4208  0.4421  2.5300
   27CHL1   H4B 1931   0.572   5.744   6.853  0.4323  0.4868 -0.5298
   27CHL1    C5 1932   0.642   5.671   6.668 -0.1150 -0.6618  0.8224
   27CHL1    C6 1933   0.522   5.678   6.613  0.3612  0.4731 -0.6157
   27CHL1    H6 1934   0.448   5.722   6.681 -0.0601 -0.3929 -0.5077
   27CHL1    C7 1935   0.486   5.631   6.470  0.1633  0.4973 -0.2202
   27CHL1   H7A 1936   0.393   5.570   6.479  0.2386  0.3251 -0.5965
   27CHL1   H7B 1937   0.464   5.721   6.409  0.1160 -0.1330 -1.1446
   27CHL1    C8 1938   0.604   5.553   6.412 -0.2693 -0.9927  0.6157
   27CHL1    H8 1939   0.606   5.449   6.452  1.3472 -0.6581  1.4935
   27CHL1   C14 1940   0.587   5.535   6.258  0.0088 -0.5100  0.1737
   27CHL1   H14 1941   0.601   5.632   6.206 -0.2539 -1.1958 -1.2235
   27CHL1   C15 1942   0.451   5.481   6.206 -0.2172 -0.3547  0.3921
   27CHL1  H15A 1943   0.415   5.388   6.254 -0.1681  0.7018  2.6497
   27CHL1  H15B 1944   0.369   5.550   6.238  0.3201 -0.1864  1.4778
   27CHL1   C16 1945   0.481   5.458   6.056  0.1989  0.4623 -0.3459
   27CHL1  H16A 1946   0.443   5.356   6.034 -0.5960  0.3186  1.5392
   27CHL1  H16B 1947   0.428   5.533   5.993 -0.8524 -0.5327 -0.6643
   27CHL1   C17 1948   0.641   5.453   6.039  0.0314 -0.0129  0.2538
   27CHL1   H17 1949   0.660   5.550   5.988  0.5382 -0.3582 -0.2252
   27CHL1   C13 1950   0.694   5.451   6.187 -0.4854  0.3659 -0.2904
   27CHL1   C18 1951   0.697   5.304   6.239  0.0768 -0.7100  1.1213
   27CHL1  H18A 1952   0.766   5.247   6.174  1.1132 -1.7186  3.0221
   27CHL1  H18B 1953   0.736   5.300   6.343  0.1919 -0.6667  1.0795
   27CHL1  H18C 1954   0.598   5.254   6.244  0.2751 -1.0801  1.3233
   27CHL1   C12 1955   0.832   5.519   6.220 -0.0540 -0.0762 -0.4330
   27CHL1  H12A 1956   0.909   5.452   6.178 -0.6522  0.3364 -2.3050
   27CHL1  H12B 1957   0.846   5.619   6.172  0.4519  0.9385  1.6995
   27CHL1   C11 1958   0.858   5.544   6.373 -0.0325  0.7109  0.0820
   27CHL1  H11A 1959   0.854   5.439   6.409  0.8233  0.4647 -0.5296
   27CHL1  H11B 1960   0.961   5.583   6.385  0.3834 -0.0553 -0.8294
   27CHL1    C9 1961   0.745   5.617   6.448  0.0643 -0.0995  0.2976
   27CHL1    H9 1962   0.730   5.722   6.416 -0.7836 -0.3433 -0.1498
   27CHL1   C10 1963   0.779   5.634   6.595  0.2301  0.1304  0.0763
   27CHL1   C19 1964   0.817   5.505   6.655  0.1077 -0.1915  0.3113
   27CHL1  H19A 1965   0.749   5.425   6.620 -2.2757  1.9515 -0.3266
   27CHL1  H19B 1966   0.920   5.487   6.619  0.2096  2.5798 -1.0338
   27CHL1  H19C 1967   0.822   5.521   6.765 -1.2443 -1.4291  0.5865
   27CHL1    C1 1968   0.880   5.744   6.616 -0.1261  0.2028  0.6712
   27CHL1   H1A 1969   0.976   5.716   6.567 -1.7515 -2.1156 -1.4676
   27CHL1   H1B 1970   0.835   5.830   6.563 -3.0614 -2.4173 -1.5010
   27CHL1    C2 1971   0.902   5.783   6.763  0.0122  0.1019  0.0682
   27CHL1   H2A 1972   0.988   5.853   6.773 -1.2906  1.5997  1.0602
   27CHL1   H2B 1973   0.942   5.696   6.820  1.5705  0.0987 -0.9581
   27CHL1   C20 1974   0.680   5.346   5.938 -0.1332  0.4379  0.4642
   27CHL1   H20 1975   0.648   5.249   5.983 -3.5249  1.0739 -0.3558
   27CHL1   C21 1976   0.830   5.338   5.916 -0.5241 -0.1986  0.6794
   27CHL1  H21A 1977   0.892   5.300   6.000  0.9680  1.3521  0.3379
   27CHL1  H21B 1978   0.883   5.433   5.894  0.4216 -0.6869  0.7755
   27CHL1  H21C 1979   0.864   5.265   5.840  0.7897  0.7420  0.3285
   27CHL1   C22 1980   0.605   5.351   5.800 -0.5704 -0.0510  0.0777
   27CHL1  H22A 1981   0.507   5.403   5.808  0.3226  1.4171  2.0377
   27CHL1  H22B 1982   0.657   5.433   5.747  2.8661 -2.0453  0.0438
   27CHL1   C23 1983   0.598   5.231   5.704 -0.1544  0.5800 -0.2146
   27CHL1  H23A 1984   0.688   5.218   5.640 -1.3227  0.6052 -1.9142
   27CHL1  H23B 1985   0.604   5.146   5.776 -0.9009  0.0431 -0.7683
   27CHL1   C24 1986   0.462   5.226   5.636  0.6875  0.6986 -0.7506
   27CHL1  H24A 1987   0.389   5.207   5.718  0.3748  0.3332 -1.1086
   27CHL1  H24B 1988   0.438   5.320   5.581 -3.1948 -0.7646 -1.9041
   27CHL1   C25 1989   0.460   5.117   5.526  0.3647  0.4752  0.1012
   27CHL1   H25 1990   0.554   5.129   5.467 -0.0373  0.6731 -0.5137
   27CHL1   C26 1991   0.452   4.970   5.588 -0.5407  0.2510  0.0724
   27CHL1  H26A 1992   0.349   4.955   5.627  0.0091 -0.5291  1.2724
   27CHL1  H26B 1993   0.472   4.900   5.504 -0.6119  0.4892 -0.1448
   27CHL1  H26C 1994   0.526   4.967   5.671 -1.7462 -0.5144  1.1472
   27CHL1   C27 1995   0.337   5.138   5.433 -0.2243 -0.2229  0.2370
   27CHL1  H27A 1996   0.246   5.145   5.495  0.2150  3.1728  0.6931
   27CHL1  H27B 1997   0.359   5.232   5.376  2.1366 -0.4941  0.5812
   27CHL1  H27C 1998   0.317   5.058   5.359 -0.0721  0.1703 -0.2366
   28CHL1    C3 1999   5.526   1.328   6.975 -0.8061 -0.2258 -0.6867
   28CHL1    H3 2000   5.424   1.350   7.013 -0.7785 -1.8658  0.4686
   28CHL1    O3 2001   5.587   1.261   7.086 -0.4854 -0.2044  0.4314
   28CHL1   H3' 2002   5.665   1.216   7.051  0.7965 -1.0397  3.9493
   28CHL1    C4 2003   5.515   1.218   6.861 -0.5413  0.5367 -0.3120
   28CHL1   H4A 2004   5.614   1.170   6.849  0.3062  2.2052 -0.3006
   28CHL1   H4B 2005   5.450   1.141   6.908  1.9605 -0.6836  1.3559
   28CHL1    C5 2006   5.471   1.279   6.727 -0.3538 -0.1587  0.1111
   28CHL1    C6 2007   5.365   1.245   6.653  0.6078  0.5956  0.2175
   28CHL1    H6 2008   5.308   1.156   6.682  0.6806 -0.1538 -1.7862
   28CHL1    C7 2009   5.348   1.295   6.512  0.3482  0.6849  0.5025
   28CHL1   H7A 2010   5.328   1.214   6.438  0.4460 -0.6289  1.8595
   28CHL1   H7B 2011   5.260   1.363   6.506 -0.0411  0.1470 -0.0676
   28CHL1    C8 2012   5.464   1.369   6.452 -0.6589  0.7488 -0.0939
   28CHL1    H8 2013   5.543   1.294   6.432 -1.0759  0.3365 -0.2173
   28CHL1   C14 2014   5.424   1.439   6.325 -0.6117  0.5823 -0.3351
   28CHL1   H14 2015   5.349   1.516   6.352 -0.6073 -0.0541  1.7529
   28CHL1   C15 2016   5.360   1.347   6.224  0.4306  0.1429  0.1096
   28CHL1  H15A 2017   5.415   1.251   6.222  1.1458  0.5486  0.0698
   28CHL1  H15B 2018   5.252   1.325   6.238  0.9583 -1.6478  1.6733
   28CHL1   C16 2019   5.369   1.425   6.094  0.0716  0.7932  0.8729
   28CHL1  H16A 2020   5.415   1.353   6.023  1.9486 -0.9297  3.6255
   28CHL1  H16B 2021   5.273   1.469   6.059 -0.7213 -0.2867  1.6237
   28CHL1   C17 2022   5.462   1.548   6.122  0.0675  0.8344  0.1969
   28CHL1   H17 2023   5.397   1.635   6.146  0.9625  1.5148  0.2123
   28CHL1   C13 2024   5.536   1.517   6.257 -0.3059  0.3374 -0.1776
   28CHL1   C18 2025   5.654   1.427   6.237  0.2459 -0.2279 -0.2535
   28CHL1  H18A 2026   5.614   1.362   6.156 -2.5907  1.0877 -0.0523
   28CHL1  H18B 2027   5.743   1.483   6.201 -0.5013  1.9713  1.1299
   28CHL1  H18C 2028   5.695   1.359   6.314 -0.1875  0.5798  0.7085
   28CHL1   C12 2029   5.567   1.632   6.350  0.3160  0.5651  0.7709
   28CHL1  H12A 2030   5.653   1.696   6.320 -0.4188  2.3533  2.2759
   28CHL1  H12B 2031   5.484   1.704   6.364  0.1789  0.1307  2.3998
   28CHL1   C11 2032   5.608   1.577   6.492  0.3664  0.0780 -0.0886
   28CHL1  H11A 2033   5.710   1.533   6.490 -0.0914 -1.1908  2.1744
   28CHL1  H11B 2034   5.613   1.661   6.565 -0.3634 -0.7602  0.9439
   28CHL1    C9 2035   5.510   1.470   6.555  0.5356 -0.1913  0.1981
   28CHL1    H9 2036   5.420   1.526   6.589  0.4171 -0.4270  0.2734
   28CHL1   C10 2037   5.559   1.403   6.687 -0.0168  0.1588 -0.0654
   28CHL1   C19 2038   5.709   1.354   6.664 -0.2983 -0.2585 -0.5144
   28CHL1  H19A 2039   5.726   1.289   6.575  0.5173 -2.0191  0.8580
   28CHL1  H19B 2040   5.777   1.442   6.662  0.0386 -0.4020  2.0668
   28CHL1  H19C 2041   5.743   1.297   6.753  2.1254  0.7943 -0.6976
   28CHL1    C1 2042   5.566   1.512   6.800  0.4152 -0.5392  0.7335
   28CHL1   H1A 2043   5.628   1.603   6.786  0.7406 -0.8239  0.3136
   28CHL1   H1B 2044   5.461   1.548   6.809  0.0934 -0.6249 -1.8917
   28CHL1    C2 2045   5.606   1.455   6.941 -0.9386  0.0866  0.2715
   28CHL1   H2A 2046   5.581   1.535   7.015 -0.0972 -0.4491  1.1701
   28CHL1   H2B 2047   5.714   1.430   6.947 -1.2870 -1.3592  1.2061
   28CHL1   C20 2048   5.539   1.585   5.993  0.0148  0.5796  0.5008
   28CHL1   H20 2049   5.623   1.516   5.974  1.4248  2.8951 -2.6012
   28CHL1   C21 2050   5.624   1.711   6.016 -0.0428  0.1226 -0.8764
   28CHL1  H21A 2051   5.689   1.740   5.931 -0.0321  0.1961 -0.8435
   28CHL1  H21B 2052   5.693   1.698   6.102 -1.6544 -0.9895  0.3089
   28CHL1  H21C 2053   5.561   1.801   6.032 -0.3040 -0.3542  1.0058
   28CHL1   C22 2054   5.463   1.593   5.859  0.4925  0.4201 -0.5226
   28CHL1  H22A 2055   5.408   1.497   5.848 -0.2024  0.6889  0.4505
   28CHL1  H22B 2056   5.389   1.672   5.837  0.0569  0.0823 -0.2816
   28CHL1   C23 2057   5.558   1.587   5.739  0.1067 -0.1208  0.8296
   28CHL1  H23A 2058   5.633   1.669   5.745 -1.7639  1.7571  0.0233
   28CHL1  H23B 2059   5.615   1.492   5.742  0.5112 -0.0011 -1.3851
   28CHL1   C24 2060   5.484   1.594   5.602  0.0793  0.5674  0.2744
   28CHL1  H24A 2061   5.394   1.529   5.607  0.5488 -0.2294 -1.1485
   28CHL1  H24B 2062   5.445   1.699   5.607  1.6200  1.1041  1.8844
   28CHL1   C25 2063   5.569   1.591   5.474  0.2735 -0.0014 -0.4455
   28CHL1   H25 2064   5.644   1.518   5.512 -1.9830 -0.6259  3.2514
   28CHL1   C26 2065   5.478   1.549   5.353 -0.4788 -0.3698 -0.3856
   28CHL1  H26A 2066   5.541   1.497   5.278  0.3889 -1.2801  0.9526
   28CHL1  H26B 2067   5.404   1.471   5.382  0.9167 -2.3283 -1.8288
   28CHL1  H26C 2068   5.435   1.643   5.311 -2.9309 -1.1802  0.1207
   28CHL1   C27 2069   5.628   1.732   5.444  0.2089 -0.0231 -0.0097
   28CHL1  H27A 2070   5.548   1.792   5.396  1.0529  3.3387  2.4783
   28CHL1  H27B 2071   5.671   1.781   5.533 -1.9743  1.5371  0.2386
   28CHL1  H27C 2072   5.708   1.717   5.367 -2.3809 -0.1345 -2.8636
   29CHL1    C3 2073   5.983   0.563   3.213  0.3121  0.0541  0.2578
   29CHL1    H3 2074   5.918   0.472   3.209  0.9703 -0.4359  0.4883
   29CHL1    O3 2075   5.987   0.616   3.079  0.2156 -0.6536  0.1087
   29CHL1   H3' 2076   5.989   0.538   3.022 -0.7163 -0.5859 -0.0324
   29CHL1    C4 2077   5.910   0.662   3.304  0.3479  0.3619  0.2838
   29CHL1   H4A 2078   5.952   0.764   3.308  1.8604 -0.2761  2.7067
   29CHL1   H4B 2079   5.808   0.679   3.263 -0.5075  0.3694  2.2750
   29CHL1    C5 2080   5.912   0.616   3.451 -0.0675 -0.2729  0.8520
   29CHL1    C6 2081   5.803   0.627   3.528  0.0334  0.1484  0.4943
   29CHL1    H6 2082   5.712   0.662   3.477  0.5664  0.3659 -0.3433
   29CHL1    C7 2083   5.797   0.587   3.678 -0.1714 -0.7988 -0.2325
   29CHL1   H7A 2084   5.745   0.665   3.737  2.8962  1.6874 -0.5885
   29CHL1   H7B 2085   5.749   0.491   3.707  0.1052 -0.1596  2.6157
   29CHL1    C8 2086   5.943   0.571   3.738 -0.1975  0.5251 -0.4715
   29CHL1    H8 2087   5.987   0.672   3.756 -0.6946  0.8576 -1.1085
   29CHL1   C14 2088   5.934   0.502   3.868  0.1332 -0.5536 -1.4113
   29CHL1   H14 2089   5.892   0.402   3.845 -3.1054  0.3942 -0.1548
   29CHL1   C15 2090   5.838   0.562   3.968 -0.5536  0.5911  0.3254
   29CHL1  H15A 2091   5.852   0.672   3.975  0.4357  0.4854  0.0787
   29CHL1  H15B 2092   5.733   0.531   3.949 -0.3968 -0.5307  1.2067
   29CHL1   C16 2093   5.874   0.486   4.099 -0.5624  0.4497 -0.0688
   29CHL1  H16A 2094   5.888   0.567   4.173 -2.3017  1.9046 -1.2248
   29CHL1  H16B 2095   5.802   0.406   4.128 -0.0646  0.1945  0.4766
   29CHL1   C17 2096   6.018   0.421   4.071  0.5599 -0.0444 -0.0589
   29CHL1   H17 2097   6.001   0.313   4.056  0.2115  0.2004 -1.5575
   29CHL1   C13 2098   6.068   0.475   3.937  0.2121  0.3164  0.1540
   29CHL1   C18 2099   6.143   0.607   3.960 -0.2272  0.9161  0.2327
   29CHL1  H18A 2100   6.086   0.671   4.030 -0.4320  1.3251 -0.3008
   29CHL1  H18B 2101   6.245   0.578   3.993  0.5745  0.3320 -2.4890
   29CHL1  H18C 2102   6.152   0.664   3.865  0.8561 -2.1677 -1.6528
   29CHL1   C12 2103   6.140   0.369   3.843  0.5230 -0.1072 -0.2236
   29CHL1  H12A 2104   6.240   0.341   3.882  1.5119  2.5287 -0.6892
   29CHL1  H12B 2105   6.075   0.279   3.840 -2.2276  1.7593 -1.0577
   29CHL1   C11 2106   6.151   0.426   3.703  0.4173 -0.0259 -0.0155
   29CHL1  H11A 2107   6.222   0.511   3.712  1.5725 -0.9449 -0.1701
   29CHL1  H11B 2108   6.196   0.350   3.635 -0.2217  1.3001 -2.0238
   29CHL1    C9 2109   6.022   0.481   3.642  0.0008 -0.5125  0.6823
   29CHL1    H9 2110   5.959   0.391   3.630 -0.7854  0.2790 -1.7565
   29CHL1   C10 2111   6.039   0.554   3.503 -0.0709 -0.1065  0.3793
   29CHL1   C19 2112   6.141   0.671   3.516  0.2417 -0.3458 -0.7532
   29CHL1  H19A 2113   6.238   0.641   3.561 -0.1620 -1.8627 -0.8350
   29CHL1  H19B 2114   6.156   0.718   3.417 -2.1536 -1.0317 -1.5175
   29CHL1  H19C 2115   6.112   0.745   3.594  1.7225 -1.9136  1.4185
   29CHL1    C1 2116   6.092   0.455   3.407  0.8945  0.0465 -0.3842
   29CHL1   H1A 2117   6.175   0.391   3.444 -0.0996 -1.1315 -0.1313
   29CHL1   H1B 2118   6.014   0.376   3.401  1.6985 -0.8943  0.8916
   29CHL1    C2 2119   6.115   0.502   3.262  0.3349  0.2483 -0.0132
   29CHL1   H2A 2120   6.149   0.414   3.202 -0.3213  0.9713 -1.5001
   29CHL1   H2B 2121   6.187   0.584   3.245 -1.8936  2.0661 -1.3210
   29CHL1   C20 2122   6.113   0.418   4.198  0.5153  0.5131  0.2183
   29CHL1   H20 2123   6.127   0.525   4.224 -1.0702  0.6745  0.4752
   29CHL1   C21 2124   6.239   0.349   4.158  0.1549  0.2319  0.4640
   29CHL1  H21A 2125   6.303   0.325   4.245  0.8680  0.0490 -0.1063
   29CHL1  H21B 2126   6.310   0.406   4.094  1.4801 -2.6552 -0.7954
   29CHL1  H21C 2127   6.224   0.258   4.097  1.1536  0.8757 -0.7746
   29CHL1   C22 2128   6.045   0.352   4.317  0.2330  0.0701  0.4519
   29CHL1  H22A 2129   5.935   0.368   4.309  0.5948  2.1300 -1.1931
   29CHL1  H22B 2130   6.059   0.242   4.315  3.6351  0.3995 -0.6497
   29CHL1   C23 2131   6.103   0.403   4.448 -0.6155 -0.0271 -0.1846
   29CHL1  H23A 2132   6.201   0.358   4.475 -1.4024 -0.6707  1.7145
   29CHL1  H23B 2133   6.122   0.512   4.443 -2.2798  0.2798 -0.5018
   29CHL1   C24 2134   6.009   0.366   4.558  0.2704 -0.4056  0.4570
   29CHL1  H24A 2135   5.905   0.373   4.520  0.0274 -3.5863  0.2746
   29CHL1  H24B 2136   6.029   0.264   4.596 -0.7819 -0.5297  0.7061
   29CHL1   C25 2137   6.026   0.460   4.685 -0.2330  0.0221  0.2053
   29CHL1   H25 2138   6.011   0.568   4.662  0.4632  0.4811  1.7684
   29CHL1   C26 2139   5.919   0.421   4.792 -0.2552  0.1044 -0.2710
   29CHL1  H26A 2140   5.820   0.429   4.742  0.9264  4.4805 -2.3607
   29CHL1  H26B 2141   5.938   0.324   4.843  2.1073  0.3097 -0.6346
   29CHL1  H26C 2142   5.919   0.496   4.874  2.1950 -1.0867  0.9482
   29CHL1   C27 2143   6.164   0.446   4.741 -0.3194 -0.2979 -0.3408
   29CHL1  H27A 2144   6.181   0.341   4.772  2.1595  0.6507  1.9301
   29CHL1  H27B 2145   6.241   0.489   4.673 -1.4864 -0.5773 -1.8832
   29CHL1  H27C 2146   6.175   0.518   4.825 -0.9412 -1.5774  0.8898
   30CHL1    C3 2147   0.579   0.144   2.965 -0.2796  0.3004 -0.1309
   30CHL1    H3 2148   0.608   0.041   2.994  1.3314  0.7166 -0.1502
   30CHL1    O3 2149   0.531   0.150   2.826  0.3037 -0.0246  0.0331
   30CHL1   H3' 2150   0.488   0.235   2.813 -1.4844 -1.1207 -2.0195
   30CHL1    C4 2151   0.469   0.179   3.053 -0.3743  0.5589  0.5541
   30CHL1   H4A 2152   0.447   0.285   3.027 -1.1610  0.0825 -0.7583
   30CHL1   H4B 2153   0.383   0.115   3.028 -0.3204  0.4948  0.5336
   30CHL1    C5 2154   0.500   0.176   3.201  0.3714 -0.2364 -0.8347
   30CHL1    C6 2155   0.429   0.111   3.284  0.7084  0.3340 -1.2583
   30CHL1    H6 2156   0.333   0.065   3.256 -0.2391  1.5302 -0.1138
   30CHL1    C7 2157   0.458   0.101   3.432 -0.5738 -0.1574 -0.5008
   30CHL1   H7A 2158   0.370   0.126   3.494  0.3756 -0.8178  1.1813
   30CHL1   H7B 2159   0.483  -0.003   3.463 -1.6710  0.4299  2.7243
   30CHL1    C8 2160   0.564   0.205   3.479 -0.1360  0.2256  0.5362
   30CHL1    H8 2161   0.515   0.305   3.482 -1.0451 -0.0759 -2.1105
   30CHL1   C14 2162   0.611   0.166   3.610 -0.6362 -0.2146 -1.6097
   30CHL1   H14 2163   0.663   0.071   3.584  0.1819 -0.2089 -0.1431
   30CHL1   C15 2164   0.519   0.140   3.731 -0.7179 -0.1028 -0.3285
   30CHL1  H15A 2165   0.446   0.224   3.734 -0.0200  0.5032  0.1214
   30CHL1  H15B 2166   0.452   0.052   3.724 -1.1533  0.0026  1.8216
   30CHL1   C16 2167   0.611   0.156   3.859  0.0930 -0.6729 -0.5770
   30CHL1  H16A 2168   0.572   0.246   3.912  0.7975 -2.4148  3.2128
   30CHL1  H16B 2169   0.584   0.072   3.925  0.4292 -0.4550 -0.1576
   30CHL1   C17 2170   0.754   0.167   3.808  0.2103 -0.9111 -0.1721
   30CHL1   H17 2171   0.780   0.061   3.793 -1.9097 -1.1832 -2.8156
   30CHL1   C13 2172   0.738   0.241   3.670 -0.0481 -0.5759  0.5011
   30CHL1   C18 2173   0.685   0.390   3.695 -0.2231 -0.2894  0.1065
   30CHL1  H18A 2174   0.778   0.449   3.714  0.2604 -1.2547  0.8915
   30CHL1  H18B 2175   0.622   0.434   3.615 -0.1495 -1.9897 -0.9451
   30CHL1  H18C 2176   0.629   0.402   3.790  3.0748 -0.5055  2.2418
   30CHL1   C12 2177   0.857   0.232   3.569 -0.1752  0.1191  0.9539
   30CHL1  H12A 2178   0.948   0.285   3.604 -0.6775  1.5065  0.2279
   30CHL1  H12B 2179   0.883   0.128   3.540 -0.5447  0.0755  0.7672
   30CHL1   C11 2180   0.801   0.281   3.436 -0.5785 -0.1430 -0.3005
   30CHL1  H11A 2181   0.764   0.384   3.457 -2.3792 -0.7628 -0.2460
   30CHL1  H11B 2182   0.887   0.286   3.366  0.3774  1.0426  0.8882
   30CHL1    C9 2183   0.680   0.212   3.382  0.1766 -0.6368  0.1466
   30CHL1    H9 2184   0.711   0.105   3.384 -1.9164 -1.2851  0.3905
   30CHL1   C10 2185   0.631   0.252   3.244  0.3408 -0.0830 -0.4744
   30CHL1   C19 2186   0.601   0.404   3.241 -0.1476  0.4264 -0.2458
   30CHL1  H19A 2187   0.529   0.433   3.321 -1.1755  2.0395 -1.6981
   30CHL1  H19B 2188   0.691   0.466   3.260  0.5756 -0.1383 -1.7277
   30CHL1  H19C 2189   0.541   0.434   3.153  0.2686 -1.6757 -1.3250
   30CHL1    C1 2190   0.742   0.221   3.140  0.3035 -0.0488 -0.7527
   30CHL1   H1A 2191   0.823   0.295   3.155 -1.2215  1.3981  0.8076
   30CHL1   H1B 2192   0.785   0.122   3.167  0.9495  0.2807 -0.5707
   30CHL1    C2 2193   0.700   0.231   2.993  0.3217  0.4304  0.6029
   30CHL1   H2A 2194   0.785   0.199   2.928  1.6808  2.7922  1.0966
   30CHL1   H2B 2195   0.675   0.334   2.960 -0.2909 -0.9697 -4.2010
   30CHL1   C20 2196   0.869   0.228   3.892  0.1120 -0.2735  0.3178
   30CHL1   H20 2197   0.896   0.330   3.859  3.0258 -1.1418 -0.3553
   30CHL1   C21 2198   0.992   0.144   3.865 -0.8019 -0.1962  0.3868
   30CHL1  H21A 2199   1.036   0.148   3.763  0.8566  0.7578  1.0973
   30CHL1  H21B 2200   0.987   0.037   3.894 -1.6288 -0.0708  0.7538
   30CHL1  H21C 2201   1.069   0.196   3.926  2.9731 -2.8229 -1.7231
   30CHL1   C22 2202   0.827   0.227   4.044  1.3233 -0.2178  0.2962
   30CHL1  H22A 2203   0.744   0.296   4.073  0.6295 -1.3549  1.0910
   30CHL1  H22B 2204   0.795   0.122   4.061 -0.3711  0.1922 -0.1544
   30CHL1   C23 2205   0.937   0.248   4.148  0.0745  0.1211  0.0550
   30CHL1  H23A 2206   1.022   0.180   4.129  0.4793  1.4054 -3.6307
   30CHL1  H23B 2207   0.962   0.356   4.135 -0.4477  0.3052  0.5376
   30CHL1   C24 2208   0.893   0.244   4.300  0.2724 -0.3992  0.4832
   30CHL1  H24A 2209   0.799   0.299   4.324  0.1865 -0.5204  0.4239
   30CHL1  H24B 2210   0.877   0.139   4.333  0.1723 -0.4963  0.1328
   30CHL1   C25 2211   0.999   0.292   4.394  0.0190  0.2656  0.2675
   30CHL1   H25 2212   1.030   0.393   4.361 -1.1032  0.4386 -0.3180
   30CHL1   C26 2213   0.919   0.301   4.527 -0.3857 -0.2130 -0.6386
   30CHL1  H26A 2214   0.991   0.342   4.601 -0.0704 -0.5592 -0.7470
   30CHL1  H26B 2215   0.837   0.375   4.517  0.7136  0.9589 -1.1612
   30CHL1  H26C 2216   0.880   0.198   4.548  1.3999 -1.3840 -2.6774
   30CHL1   C27 2217   1.117   0.194   4.415  0.0087 -0.4305 -0.3357
   30CHL1  H27A 2218   1.170   0.233   4.505 -1.4598 -1.5153  1.0734
   30CHL1  H27B 2219   1.072   0.099   4.451 -1.3043  0.4833  0.5739
   30CHL1  H27C 2220   1.179   0.189   4.324 -1.0653  1.3628 -1.2311
   31CHL1    C3 2221   1.478   2.467   3.508 -0.0127 -0.0853  0.3442
   31CHL1    H3 2222   1.477   2.377   3.443 -0.8371 -1.7103  2.4920
   31CHL1    O3 2223   1.430   2.581   3.433 -0.2328 -0.3167 -0.3177
   31CHL1   H3' 2224   1.443   2.653   3.494 -0.8677 -1.4752  1.2503
   31CHL1    C4 2225   1.391   2.451   3.636  0.7388 -0.1261  0.8390
   31CHL1   H4A 2226   1.392   2.553   3.678  3.0086 -0.1220  0.8988
   31CHL1   H4B 2227   1.284   2.440   3.605  0.4125  4.6614 -0.5189
   31CHL1    C5 2228   1.449   2.365   3.740 -0.1161 -0.1094  0.0853
   31CHL1    C6 2229   1.382   2.255   3.779 -0.6103  0.1436  0.0073
   31CHL1    H6 2230   1.278   2.244   3.745  0.1623  0.5983 -2.7831
   31CHL1    C7 2231   1.427   2.151   3.878  0.5065 -0.1830  0.6322
   31CHL1   H7A 2232   1.349   2.126   3.952 -0.3404  0.6470  0.0343
   31CHL1   H7B 2233   1.466   2.063   3.821 -0.0674 -0.5622  0.8206
   31CHL1    C8 2234   1.548   2.205   3.957 -0.2430  0.4454  0.2621
   31CHL1    H8 2235   1.517   2.284   4.030 -0.4384  2.1146 -1.5466
   31CHL1   C14 2236   1.612   2.087   4.034 -0.3648 -0.3651  0.2104
   31CHL1   H14 2237   1.653   2.025   3.951  0.8201  0.6952 -0.0303
   31CHL1   C15 2238   1.521   2.000   4.125  0.4198 -0.2554  0.1091
   31CHL1  H15A 2239   1.454   2.069   4.180  1.1696  1.0934 -0.6263
   31CHL1  H15B 2240   1.461   1.925   4.070  0.2247  0.2511 -0.3761
   31CHL1   C16 2241   1.621   1.930   4.216  0.0882 -0.6179 -0.5287
   31CHL1  H16A 2242   1.584   1.961   4.316 -0.1007 -0.8527 -0.5268
   31CHL1  H16B 2243   1.612   1.819   4.215  0.6294 -0.7337  1.6727
   31CHL1   C17 2244   1.767   1.981   4.177 -0.2415  0.1750 -0.0007
   31CHL1   H17 2245   1.799   1.924   4.087 -0.0985  1.5292 -0.8387
   31CHL1   C13 2246   1.740   2.117   4.107 -0.3519 -0.5751 -0.2361
   31CHL1   C18 2247   1.717   2.218   4.230 -0.2755  0.4016  0.5262
   31CHL1  H18A 2248   1.686   2.314   4.184 -0.0934 -0.4170 -1.3846
   31CHL1  H18B 2249   1.646   2.173   4.303  0.1051 -1.2656 -0.0850
   31CHL1  H18C 2250   1.815   2.234   4.279 -0.5276 -0.3903  1.3339
   31CHL1   C12 2251   1.844   2.169   4.008  0.0528  0.0333 -0.1817
   31CHL1  H12A 2252   1.936   2.195   4.063  0.2120 -3.2216  1.3326
   31CHL1  H12B 2253   1.884   2.081   3.952 -0.1229 -0.9531  1.1869
   31CHL1   C11 2254   1.795   2.281   3.919 -0.5017 -0.0487  0.1182
   31CHL1  H11A 2255   1.792   2.378   3.973 -1.7702 -0.2009  0.3575
   31CHL1  H11B 2256   1.859   2.298   3.829 -0.1273  1.8430  0.6900
   31CHL1    C9 2257   1.649   2.263   3.860  0.0795 -0.2835  0.1344
   31CHL1    H9 2258   1.656   2.185   3.781 -0.1151 -0.3275  0.1612
   31CHL1   C10 2259   1.597   2.389   3.785 -0.3062  0.5007 -0.0716
   31CHL1   C19 2260   1.595   2.513   3.875  0.0551 -0.4103 -0.1180
   31CHL1  H19A 2261   1.523   2.595   3.852  0.7773  1.1191  2.6370
   31CHL1  H19B 2262   1.568   2.487   3.979  0.7303 -0.2600  0.0958
   31CHL1  H19C 2263   1.690   2.569   3.881 -1.0480  1.7997 -1.7865
   31CHL1    C1 2264   1.683   2.409   3.657 -0.5472  0.8349 -0.1653
   31CHL1   H1A 2265   1.779   2.457   3.687 -1.5255  1.4129  2.2995
   31CHL1   H1B 2266   1.706   2.312   3.609  1.6785  1.3124 -0.1489
   31CHL1    C2 2267   1.618   2.504   3.556  0.7140  0.1519  0.0515
   31CHL1   H2A 2268   1.678   2.493   3.463 -0.4555 -2.4503 -0.4882
   31CHL1   H2B 2269   1.624   2.610   3.589  0.5289 -0.0985  0.9311
   31CHL1   C20 2270   1.877   1.964   4.283  0.4692 -0.5407 -0.4783
   31CHL1   H20 2271   1.963   2.019   4.239  1.7140 -1.3334  0.9099
   31CHL1   C21 2272   1.920   1.823   4.274 -0.1229  0.0657  0.0657
   31CHL1  H21A 2273   1.953   1.795   4.171 -1.0686 -1.7156  0.1996
   31CHL1  H21B 2274   1.834   1.757   4.297  0.4182 -1.2535 -1.4598
   31CHL1  H21C 2275   2.005   1.801   4.342  1.8348  2.4333 -1.4503
   31CHL1   C22 2276   1.843   1.996   4.433 -0.2888 -0.2833  0.3580
   31CHL1  H22A 2277   1.820   2.105   4.443 -0.7813 -0.4933  1.7000
   31CHL1  H22B 2278   1.759   1.938   4.475 -2.5147  3.3651  1.4163
   31CHL1   C23 2279   1.950   1.963   4.535 -1.0732 -0.8343  0.4573
   31CHL1  H23A 2280   1.949   1.854   4.559  1.7059 -1.2816 -1.0047
   31CHL1  H23B 2281   2.049   1.971   4.485 -0.9154 -1.9177  0.5571
   31CHL1   C24 2282   1.946   2.059   4.654 -0.2429  0.5324  0.3926
   31CHL1  H24A 2283   1.945   2.163   4.617  3.1343  0.9602  1.2131
   31CHL1  H24B 2284   1.853   2.038   4.712 -1.0574  0.7491 -0.7894
   31CHL1   C25 2285   2.069   2.040   4.745 -0.4665  0.4299 -0.4975
   31CHL1   H25 2286   2.159   2.054   4.682  0.2476 -2.2278 -0.2185
   31CHL1   C26 2287   2.058   2.136   4.861  0.4439  0.6985  0.4304
   31CHL1  H26A 2288   1.960   2.122   4.912  0.6760 -0.4939  0.5848
   31CHL1  H26B 2289   2.144   2.106   4.925  1.6345 -0.2224 -1.5213
   31CHL1  H26C 2290   2.048   2.244   4.841 -0.9065  0.5511  0.2192
   31CHL1   C27 2291   2.088   1.893   4.817 -0.6341  0.4396 -0.5749
   31CHL1  H27A 2292   1.987   1.877   4.859 -0.3888  0.5996  0.0838
   31CHL1  H27B 2293   2.112   1.815   4.741  0.0212 -0.0951  0.1715
   31CHL1  H27C 2294   2.165   1.896   4.897 -0.3870 -0.4143 -0.7647
   32CHL1    C3 2295   3.883   2.399   3.804 -0.4781  0.3484 -0.6038
   32CHL1    H3 2296   3.774   2.422   3.806 -0.2854  1.4542 -1.5282
   32CHL1    O3 2297   3.931   2.397   3.668 -0.0330 -0.5326 -0.5034
   32CHL1   H3' 2298   3.988   2.320   3.657  0.6549 -0.4033  1.7690
   32CHL1    C4 2299   3.965   2.496   3.884  0.2796  0.3795  0.1354
   32CHL1   H4A 2300   4.071   2.464   3.870  1.0951  2.7060  0.5676
   32CHL1   H4B 2301   3.949   2.595   3.836 -0.7602 -0.3066 -0.9668
   32CHL1    C5 2302   3.933   2.495   4.034  0.2938  0.2118  0.1172
   32CHL1    C6 2303   3.897   2.605   4.103 -0.1300  0.0677 -0.4370
   32CHL1    H6 2304   3.888   2.703   4.054  0.6033  0.3862  0.0577
   32CHL1    C7 2305   3.878   2.606   4.252  0.6716 -0.5554 -0.6698
   32CHL1   H7A 2306   3.949   2.684   4.286  0.9377 -1.5018  1.0357
   32CHL1   H7B 2307   3.773   2.634   4.276  1.2144  0.7299  0.2598
   32CHL1    C8 2308   3.917   2.482   4.320  0.2779  0.1568  0.5411
   32CHL1    H8 2309   4.027   2.477   4.339  0.4186 -0.5403 -0.3500
   32CHL1   C14 2310   3.841   2.467   4.453 -0.1419 -0.1243  0.0233
   32CHL1   H14 2311   3.735   2.447   4.425 -0.8106  1.9662  0.8753
   32CHL1   C15 2312   3.831   2.591   4.539  0.4980  0.6776  0.1795
   32CHL1  H15A 2313   3.936   2.627   4.546  1.1363 -0.9947 -0.4348
   32CHL1  H15B 2314   3.770   2.673   4.494 -0.3163  0.4276  0.8240
   32CHL1   C16 2315   3.780   2.544   4.675  0.4696  0.3463 -0.0381
   32CHL1  H16A 2316   3.844   2.594   4.751 -1.7380  2.2827  0.6698
   32CHL1  H16B 2317   3.673   2.571   4.686 -0.6540 -2.7679 -2.0162
   32CHL1   C17 2318   3.796   2.389   4.676 -0.2348 -0.5960  0.3920
   32CHL1   H17 2319   3.690   2.360   4.657 -0.2773  0.2785 -0.8537
   32CHL1   C13 2320   3.888   2.355   4.552  0.5075 -0.4607 -0.1479
   32CHL1   C18 2321   4.026   2.378   4.600 -0.6348 -0.4271 -0.1300
   32CHL1  H18A 2322   4.046   2.471   4.659 -0.8865  0.1943 -1.0123
   32CHL1  H18B 2323   4.064   2.297   4.666 -1.3466  1.3418  2.6319
   32CHL1  H18C 2324   4.097   2.388   4.515  1.0599 -1.0650  1.1305
   32CHL1   C12 2325   3.866   2.224   4.480  0.3107  0.1932 -0.4035
   32CHL1  H12A 2326   3.904   2.141   4.545 -1.2898 -0.3690 -0.1462
   32CHL1  H12B 2327   3.755   2.224   4.487  0.3691 -0.7579  0.9344
   32CHL1   C11 2328   3.922   2.221   4.332 -0.6839 -0.3146 -0.5976
   32CHL1  H11A 2329   4.031   2.221   4.352 -0.1012  2.2946 -3.1721
   32CHL1  H11B 2330   3.886   2.132   4.274 -2.8827  2.0109 -3.0867
   32CHL1    C9 2331   3.880   2.352   4.243  0.8210  0.5359  0.0004
   32CHL1    H9 2332   3.769   2.342   4.239  1.0299 -2.9258 -0.2274
   32CHL1   C10 2333   3.935   2.354   4.098 -0.5550  0.5714  0.2231
   32CHL1   C19 2334   4.088   2.313   4.100 -0.2596  0.2302  0.3507
   32CHL1  H19A 2335   4.109   2.215   4.146 -0.6569 -0.1056 -0.1752
   32CHL1  H19B 2336   4.126   2.301   3.996 -1.1451  1.5198 -0.1475
   32CHL1  H19C 2337   4.145   2.389   4.158 -3.3248  1.8902  1.3937
   32CHL1    C1 2338   3.847   2.255   4.007 -0.6774  0.3699 -0.5884
   32CHL1   H1A 2339   3.860   2.155   4.053  3.4108 -0.0665 -2.2499
   32CHL1   H1B 2340   3.741   2.288   4.016 -1.7651 -2.8991 -0.0167
   32CHL1    C2 2341   3.892   2.254   3.854 -0.3442 -0.9153 -0.3432
   32CHL1   H2A 2342   3.816   2.195   3.797 -0.8752 -0.7961  0.2256
   32CHL1   H2B 2343   3.984   2.195   3.838  1.6098  2.3032 -1.9228
   32CHL1   C20 2344   3.843   2.326   4.806  0.3687  0.0885 -0.6044
   32CHL1   H20 2345   3.940   2.363   4.845  1.7971 -0.9752 -2.9382
   32CHL1   C21 2346   3.852   2.169   4.820  0.2241 -0.4111  0.4889
   32CHL1  H21A 2347   3.941   2.135   4.764 -0.3935  1.0062 -1.4955
   32CHL1  H21B 2348   3.757   2.128   4.778  0.4457 -1.1364  0.6856
   32CHL1  H21C 2349   3.854   2.146   4.929  2.0548  1.9959  1.0506
   32CHL1   C22 2350   3.740   2.374   4.909 -0.2814 -0.4207 -1.0225
   32CHL1  H22A 2351   3.712   2.481   4.896  1.4851  0.2344  0.0591
   32CHL1  H22B 2352   3.645   2.316   4.903 -0.2226 -0.4302 -2.1649
   32CHL1   C23 2353   3.800   2.363   5.048  0.2412  0.6290 -0.4967
   32CHL1  H23A 2354   3.817   2.261   5.091  3.1576  1.6218  1.0205
   32CHL1  H23B 2355   3.895   2.420   5.044  0.6482  0.0883  0.7828
   32CHL1   C24 2356   3.699   2.404   5.158  0.0407 -0.3522 -0.4250
   32CHL1  H24A 2357   3.662   2.509   5.152  1.1789  0.1131  0.3321
   32CHL1  H24B 2358   3.617   2.329   5.152  0.2904 -0.8081  1.3399
   32CHL1   C25 2359   3.757   2.383   5.299 -0.2230  0.2481 -0.3938
   32CHL1   H25 2360   3.820   2.292   5.305 -1.5721 -0.6327  2.1038
   32CHL1   C26 2361   3.841   2.508   5.311 -0.1046  0.1841  0.0033
   32CHL1  H26A 2362   3.779   2.600   5.321 -0.1561  0.0919  0.5743
   32CHL1  H26B 2363   3.916   2.519   5.392  0.2318 -1.9301  0.0580
   32CHL1  H26C 2364   3.904   2.523   5.221  1.9275 -0.0643  1.3219
   32CHL1   C27 2365   3.651   2.376   5.399  0.7937  0.1105 -0.0849
   32CHL1  H27A 2366   3.595   2.280   5.396  2.4599 -0.9271  0.5932
   32CHL1  H27B 2367   3.695   2.373   5.501 -0.9425  0.0727  0.7012
   32CHL1  H27C 2368   3.574   2.455   5.384  0.2819 -0.6044 -1.3664
   33CHL1    C3 2369   5.093   1.820   3.639  0.5472 -0.0515 -0.0680
   33CHL1    H3 2370   5.017   1.874   3.699 -0.4096  0.0148 -1.3030
   33CHL1    O3 2371   5.047   1.809   3.508 -0.1755 -0.0274 -0.2609
   33CHL1   H3' 2372   5.125   1.783   3.459 -0.4659  0.4669 -0.9936
   33CHL1    C4 2373   5.240   1.874   3.636 -0.0547  0.0811 -0.6856
   33CHL1   H4A 2374   5.307   1.810   3.576  0.4431 -0.9099  0.8637
   33CHL1   H4B 2375   5.231   1.974   3.589  2.7215  0.6400 -0.1535
   33CHL1    C5 2376   5.295   1.884   3.780 -0.5946 -0.1388  0.5451
   33CHL1    C6 2377   5.340   2.002   3.827  1.0004 -0.6024  0.5728
   33CHL1    H6 2378   5.345   2.087   3.757  1.1731 -0.9795  0.1293
   33CHL1    C7 2379   5.386   2.029   3.971 -0.2150  1.0345 -0.0596
   33CHL1   H7A 2380   5.476   2.094   3.979  0.1619  0.4028  0.9446
   33CHL1   H7B 2381   5.310   2.071   4.039  0.3706 -0.1137  1.3566
   33CHL1    C8 2382   5.416   1.894   4.040 -0.4174 -0.5830 -0.6145
   33CHL1    H8 2383   5.508   1.853   3.993  0.1853 -1.0583  0.9079
   33CHL1   C14 2384   5.419   1.912   4.189 -0.0849  0.1635 -0.7882
   33CHL1   H14 2385   5.317   1.929   4.231  0.1850  1.0706 -0.4834
   33CHL1   C15 2386   5.508   2.020   4.240  0.3313  0.3520 -0.6097
   33CHL1  H15A 2387   5.596   2.019   4.173 -0.8190  0.9910 -2.2055
   33CHL1  H15B 2388   5.457   2.118   4.229 -2.6396 -0.8771  0.8743
   33CHL1   C16 2389   5.543   1.987   4.388 -0.4378  0.7865 -0.9419
   33CHL1  H16A 2390   5.654   1.988   4.382 -0.3480 -0.6752  0.0607
   33CHL1  H16B 2391   5.512   2.057   4.469  1.3021 -1.4383  1.8288
   33CHL1   C17 2392   5.475   1.851   4.413  0.1506  0.2405 -0.2239
   33CHL1   H17 2393   5.371   1.859   4.452  0.4888 -2.8176  1.6865
   33CHL1   C13 2394   5.451   1.790   4.271 -0.9263  0.7810 -0.0283
   33CHL1   C18 2395   5.589   1.733   4.223  0.4575 -0.0893  0.3410
   33CHL1  H18A 2396   5.676   1.800   4.240 -0.1343  1.5125 -2.3653
   33CHL1  H18B 2397   5.616   1.636   4.271  1.3492  0.3445  0.7318
   33CHL1  H18C 2398   5.585   1.718   4.113 -1.7856  1.2164  0.1933
   33CHL1   C12 2399   5.339   1.687   4.246 -0.9051 -0.4310 -0.0397
   33CHL1  H12A 2400   5.352   1.594   4.305 -0.6406 -0.3050  0.1048
   33CHL1  H12B 2401   5.242   1.723   4.287 -0.4229 -0.8752  1.5937
   33CHL1   C11 2402   5.326   1.660   4.098 -0.4336 -0.4329 -1.3012
   33CHL1  H11A 2403   5.417   1.606   4.065  0.0041  0.3932 -1.4604
   33CHL1  H11B 2404   5.243   1.587   4.085 -2.3318  1.8082 -2.5261
   33CHL1    C9 2405   5.313   1.790   4.014  0.4142  1.0351 -0.3577
   33CHL1    H9 2406   5.211   1.818   4.048 -0.0950 -1.7656  0.6963
   33CHL1   C10 2407   5.296   1.764   3.864 -0.6814  0.5222 -0.3679
   33CHL1   C19 2408   5.402   1.662   3.809  0.4407 -0.4440  0.2004
   33CHL1  H19A 2409   5.387   1.647   3.700 -1.0985  1.4331  0.1072
   33CHL1  H19B 2410   5.503   1.695   3.841  0.3197  0.1969 -0.0631
   33CHL1  H19C 2411   5.381   1.563   3.855 -2.6366  0.0664  0.1208
   33CHL1    C1 2412   5.155   1.698   3.843 -0.5746 -0.5438 -0.2233
   33CHL1   H1A 2413   5.141   1.600   3.895 -0.5706 -0.3918  0.0679
   33CHL1   H1B 2414   5.083   1.760   3.900  1.3674 -0.9196  2.9426
   33CHL1    C2 2415   5.101   1.685   3.699 -0.1930 -0.1337 -0.8746
   33CHL1   H2A 2416   4.999   1.644   3.709  0.1663 -0.5229  2.3588
   33CHL1   H2B 2417   5.170   1.619   3.640 -0.2466 -0.2328 -0.8269
   33CHL1   C20 2418   5.562   1.766   4.512  0.4832  0.3204 -0.2930
   33CHL1   H20 2419   5.663   1.732   4.483  0.1097  0.1099 -1.4256
   33CHL1   C21 2420   5.481   1.640   4.541 -0.1215  0.3072  0.1852
   33CHL1  H21A 2421   5.381   1.665   4.582  0.1960  0.9057  0.5986
   33CHL1  H21B 2422   5.529   1.578   4.619  0.0553  0.9912  0.6342
   33CHL1  H21C 2423   5.482   1.571   4.454  1.5672  0.6343 -0.0865
   33CHL1   C22 2424   5.572   1.862   4.636 -0.1572 -0.5142 -0.1726
   33CHL1  H22A 2425   5.630   1.952   4.611  0.6719 -0.4706  1.7507
   33CHL1  H22B 2426   5.467   1.889   4.662 -0.5027 -1.0469 -0.9606
   33CHL1   C23 2427   5.638   1.794   4.754 -0.7830 -0.0837 -0.3084
   33CHL1  H23A 2428   5.576   1.710   4.791  0.4785 -1.1654 -0.5656
   33CHL1  H23B 2429   5.737   1.748   4.732 -1.0271 -0.5427 -0.4743
   33CHL1   C24 2430   5.657   1.893   4.872  0.4155 -0.7718  0.7048
   33CHL1  H24A 2431   5.724   1.973   4.834 -0.3267 -0.6311 -0.3487
   33CHL1  H24B 2432   5.565   1.942   4.911  0.1434  1.1918 -2.0811
   33CHL1   C25 2433   5.728   1.843   4.996 -0.3586 -0.4732  0.4829
   33CHL1   H25 2434   5.816   1.781   4.967 -1.8840 -2.3599 -0.2790
   33CHL1   C26 2435   5.759   1.952   5.096  0.0958  0.6680  0.6281
   33CHL1  H26A 2436   5.843   2.016   5.061  0.5235 -0.4802 -0.4956
   33CHL1  H26B 2437   5.672   2.009   5.134  1.4591  1.2372  3.1701
   33CHL1  H26C 2438   5.792   1.901   5.190  0.3319 -0.2366  0.0621
   33CHL1   C27 2439   5.639   1.736   5.067  0.1518  0.0912 -0.0341
   33CHL1  H27A 2440   5.599   1.662   4.995  0.0581  1.2781 -1.2510
   33CHL1  H27B 2441   5.693   1.686   5.150 -2.0005 -3.4561 -0.5562
   33CHL1  H27C 2442   5.551   1.780   5.119 -0.8242  0.1079 -1.6372
   34CHL1    C3 2443   2.752   2.355   3.997  0.1557 -0.6008 -0.2222
   34CHL1    H3 2444   2.821   2.271   3.973  2.0878  0.8946 -0.2064
   34CHL1    O3 2445   2.749   2.421   3.873 -0.0811  0.3420  0.2576
   34CHL1   H3' 2446   2.708   2.507   3.878 -0.6887  0.2102 -1.5813
   34CHL1    C4 2447   2.606   2.314   4.042  0.7006 -0.5354 -0.8299
   34CHL1   H4A 2448   2.534   2.395   4.018  1.9997  1.2854  1.0089
   34CHL1   H4B 2449   2.573   2.230   3.978 -0.7250 -0.1575 -0.6135
   34CHL1    C5 2450   2.613   2.270   4.186  0.0214 -0.7566  0.5909
   34CHL1    C6 2451   2.564   2.153   4.231  0.0998  0.3138 -0.4856
   34CHL1    H6 2452   2.502   2.091   4.165  0.8413 -1.3184  0.2999
   34CHL1    C7 2453   2.560   2.113   4.376  0.3242  0.0162 -0.6098
   34CHL1   H7A 2454   2.471   2.052   4.402 -0.7471  0.5422 -2.8038
   34CHL1   H7B 2455   2.647   2.046   4.389  0.8523  0.9104  0.8319
   34CHL1    C8 2456   2.568   2.240   4.473 -0.0975 -0.2004  0.4352
   34CHL1    H8 2457   2.480   2.307   4.463  1.0449  1.4803  1.1261
   34CHL1   C14 2458   2.584   2.203   4.622 -0.0299  1.2177 -0.9356
   34CHL1   H14 2459   2.679   2.145   4.622 -1.8784 -2.0099 -1.7104
   34CHL1   C15 2460   2.485   2.103   4.682  0.3957 -0.0124  0.3696
   34CHL1  H15A 2461   2.381   2.130   4.656  0.0058 -0.2249  1.6399
   34CHL1  H15B 2462   2.506   2.001   4.642 -0.0725 -0.4451  1.1904
   34CHL1   C16 2463   2.505   2.116   4.834 -0.7949  0.0402  0.5258
   34CHL1  H16A 2464   2.408   2.146   4.880 -0.6800  2.2369 -0.5104
   34CHL1  H16B 2465   2.531   2.018   4.879  0.3869 -0.3744 -0.9724
   34CHL1   C17 2466   2.610   2.234   4.858 -0.3450 -0.0601 -0.2392
   34CHL1   H17 2467   2.708   2.181   4.851 -0.3475 -0.0197 -0.6281
   34CHL1   C13 2468   2.620   2.314   4.729  0.7225 -0.0537  0.3672
   34CHL1   C18 2469   2.501   2.411   4.733 -0.2375  0.1184  0.9935
   34CHL1  H18A 2470   2.531   2.505   4.785  0.9033 -0.0397  0.6553
   34CHL1  H18B 2471   2.463   2.442   4.634  0.2301 -1.5324  0.2588
   34CHL1  H18C 2472   2.418   2.351   4.776 -0.9993  0.7180  0.3750
   34CHL1   C12 2473   2.756   2.377   4.677 -0.2979 -0.4811 -0.2531
   34CHL1  H12A 2474   2.788   2.447   4.758 -0.9723 -0.4243 -0.0293
   34CHL1  H12B 2475   2.818   2.285   4.676 -0.9183 -0.9367  0.7818
   34CHL1   C11 2476   2.724   2.439   4.537  0.9886  0.3282  0.3235
   34CHL1  H11A 2477   2.645   2.516   4.551 -0.3242 -0.8864 -0.1682
   34CHL1  H11B 2478   2.818   2.495   4.515  1.0314  0.6901  1.3763
   34CHL1    C9 2479   2.687   2.323   4.429  0.6963 -0.0192 -0.5312
   34CHL1    H9 2480   2.771   2.251   4.441  0.2088 -0.5179 -0.0070
   34CHL1   C10 2481   2.675   2.370   4.288 -0.1412  0.2932  0.8254
   34CHL1   C19 2482   2.603   2.497   4.282  0.4488  0.1819 -0.8322
   34CHL1  H19A 2483   2.578   2.530   4.179 -2.3649  0.9761 -0.0110
   34CHL1  H19B 2484   2.502   2.499   4.330  0.6135  0.4209 -0.4860
   34CHL1  H19C 2485   2.666   2.580   4.323 -0.0586  0.7351 -1.1566
   34CHL1    C1 2486   2.821   2.381   4.244  0.4271 -0.6913  0.5200
   34CHL1   H1A 2487   2.870   2.446   4.320  0.8826 -1.8047  1.1974
   34CHL1   H1B 2488   2.868   2.281   4.251 -0.0586 -0.9395  0.2894
   34CHL1    C2 2489   2.829   2.444   4.100 -0.5375  0.5710 -1.2441
   34CHL1   H2A 2490   2.935   2.459   4.070  0.6014 -1.1263  1.5661
   34CHL1   H2B 2491   2.782   2.545   4.098 -0.7806  0.4772 -0.5355
   34CHL1   C20 2492   2.601   2.309   4.992 -0.8752  0.1531  0.2753
   34CHL1   H20 2493   2.513   2.377   4.991 -0.5084  0.7080  2.2489
   34CHL1   C21 2494   2.728   2.397   5.016 -0.0344  0.6842  0.1137
   34CHL1  H21A 2495   2.733   2.491   4.958 -1.2150  0.6775 -0.0374
   34CHL1  H21B 2496   2.813   2.333   4.986  0.3399  1.5486 -0.6819
   34CHL1  H21C 2497   2.736   2.429   5.122 -1.6495 -1.5353  0.9927
   34CHL1   C22 2498   2.585   2.210   5.112 -0.3483 -0.5377 -0.3167
   34CHL1  H22A 2499   2.576   2.274   5.203  3.1114 -1.4168  0.7737
   34CHL1  H22B 2500   2.487   2.160   5.096  0.5616 -1.9713 -1.7333
   34CHL1   C23 2501   2.691   2.100   5.120 -0.0491 -0.4434  0.3191
   34CHL1  H23A 2502   2.687   2.039   5.028  2.6469 -0.2860  0.0223
   34CHL1  H23B 2503   2.788   2.154   5.125 -0.1852  0.5934 -4.3421
   34CHL1   C24 2504   2.658   2.003   5.246  0.0163 -0.3655 -0.1788
   34CHL1  H24A 2505   2.700   2.051   5.337  1.8998 -0.7371 -0.8169
   34CHL1  H24B 2506   2.552   1.982   5.269  0.3028 -0.2263  1.3752
   34CHL1   C25 2507   2.736   1.877   5.245 -0.4387  0.1131  0.2028
   34CHL1   H25 2508   2.709   1.837   5.145  1.9479  0.1236 -0.5050
   34CHL1   C26 2509   2.880   1.907   5.246 -0.9896  0.5050  0.2843
   34CHL1  H26A 2510   2.937   1.814   5.227 -0.9670  0.3640  0.9990
   34CHL1  H26B 2511   2.904   1.978   5.165 -1.8458  1.0972  0.5294
   34CHL1  H26C 2512   2.926   1.961   5.332  1.6838 -1.5008  0.2268
   34CHL1   C27 2513   2.701   1.786   5.364  0.5258 -0.1541 -0.2484
   34CHL1  H27A 2514   2.751   1.687   5.361  1.2473  0.2172 -1.0347
   34CHL1  H27B 2515   2.716   1.844   5.457 -1.2470  1.4303 -0.8771
   34CHL1  H27C 2516   2.594   1.763   5.348  0.7265 -0.2705 -1.6171
   35CHL1    C3 2517   4.509   2.151   4.212  0.1240  0.2577 -0.3697
   35CHL1    H3 2518   4.608   2.111   4.182  0.7924  2.2345 -0.9394
   35CHL1    O3 2519   4.443   2.200   4.098 -0.5670 -0.2002  0.3722
   35CHL1   H3' 2520   4.469   2.292   4.095 -0.5309 -0.2235 -0.1867
   35CHL1    C4 2521   4.421   2.040   4.275  0.2050  0.2321 -0.4231
   35CHL1   H4A 2522   4.321   2.086   4.292  0.2442 -0.1974  1.0708
   35CHL1   H4B 2523   4.413   1.959   4.200  1.6879  1.9190 -2.5381
   35CHL1    C5 2524   4.479   1.989   4.405 -0.9663  0.3051  0.0225
   35CHL1    C6 2525   4.495   1.858   4.418  0.1088  0.3232  0.0375
   35CHL1    H6 2526   4.462   1.790   4.338  0.8396 -1.2009  1.0066
   35CHL1    C7 2527   4.543   1.790   4.546  0.1157 -0.0869  0.2003
   35CHL1   H7A 2528   4.481   1.699   4.566 -2.2187  1.5799  1.0540
   35CHL1   H7B 2529   4.646   1.751   4.533 -0.5576 -1.3629 -1.7455
   35CHL1    C8 2530   4.545   1.889   4.668  0.4754 -0.6312 -0.5143
   35CHL1    H8 2531   4.442   1.906   4.706  1.1210  1.1626  0.5718
   35CHL1   C14 2532   4.631   1.825   4.778  1.1337 -0.1650  1.0554
   35CHL1   H14 2533   4.733   1.818   4.735  1.0023  1.9328  0.2847
   35CHL1   C15 2534   4.602   1.683   4.833  0.2308  0.6828 -0.2164
   35CHL1  H15A 2535   4.492   1.679   4.849  0.3231  2.8093  1.5536
   35CHL1  H15B 2536   4.645   1.604   4.769 -1.7732 -0.7256  0.0878
   35CHL1   C16 2537   4.669   1.674   4.971 -0.1503 -0.0656  0.5934
   35CHL1  H16A 2538   4.602   1.632   5.049  2.4519 -3.9597  0.9999
   35CHL1  H16B 2539   4.758   1.608   4.969  0.3212  0.5683  0.3357
   35CHL1   C17 2540   4.716   1.816   4.992 -0.0110  0.2576 -0.1628
   35CHL1   H17 2541   4.811   1.819   4.934 -1.2090 -0.1420 -2.2536
   35CHL1   C13 2542   4.636   1.906   4.903 -0.6397 -0.1947  0.3193
   35CHL1   C18 2543   4.492   1.938   4.958  0.1468  0.0356 -0.4890
   35CHL1  H18A 2544   4.491   1.954   5.068  1.2209 -1.9516 -0.1325
   35CHL1  H18B 2545   4.445   2.020   4.901  0.6984  0.6616 -0.0538
   35CHL1  H18C 2546   4.429   1.847   4.948  0.6763 -1.0662  3.8597
   35CHL1   C12 2547   4.702   2.044   4.860  0.5137 -0.3654 -0.4678
   35CHL1  H12A 2548   4.725   2.113   4.944 -2.7578  0.5927 -0.2315
   35CHL1  H12B 2549   4.801   2.003   4.828  0.6827 -0.8832  0.6656
   35CHL1   C11 2550   4.631   2.120   4.744 -0.4805  0.0591  0.0774
   35CHL1  H11A 2551   4.541   2.165   4.790  0.5320  0.4446  1.7786
   35CHL1  H11B 2552   4.693   2.206   4.709 -1.1012  0.6677  0.4521
   35CHL1    C9 2553   4.604   2.025   4.632  0.3530  0.5966  0.4754
   35CHL1    H9 2554   4.700   1.990   4.588  2.0375  1.7141  3.0437
   35CHL1   C10 2555   4.520   2.085   4.518 -0.2069 -0.6386 -0.3013
   35CHL1   C19 2556   4.393   2.156   4.567  0.4267 -0.4000 -0.2822
   35CHL1  H19A 2557   4.354   2.085   4.643  1.7863  0.0665  0.8847
   35CHL1  H19B 2558   4.430   2.237   4.632  0.6690 -1.7109  1.2585
   35CHL1  H19C 2559   4.318   2.195   4.495 -1.2482  0.7309  1.9843
   35CHL1    C1 2560   4.603   2.189   4.438 -0.1910  0.0671  0.2920
   35CHL1   H1A 2561   4.633   2.268   4.511 -0.1951  0.4058 -0.0708
   35CHL1   H1B 2562   4.698   2.144   4.401 -0.3340 -0.7091  0.8383
   35CHL1    C2 2563   4.537   2.261   4.313  0.3868  0.2966  0.6954
   35CHL1   H2A 2564   4.605   2.327   4.256 -1.0721 -0.5667 -2.2495
   35CHL1   H2B 2565   4.442   2.313   4.335 -1.2855 -2.2451  0.0244
   35CHL1   C20 2566   4.738   1.860   5.136  0.0268  0.4779 -1.6656
   35CHL1   H20 2567   4.708   1.965   5.157 -2.2707 -0.6400  1.4598
   35CHL1   C21 2568   4.889   1.878   5.171  0.6074  0.3343 -0.6774
   35CHL1  H21A 2569   4.929   1.775   5.178  1.0155  0.5178 -0.2083
   35CHL1  H21B 2570   4.906   1.931   5.268 -1.7785 -0.5829  0.3034
   35CHL1  H21C 2571   4.947   1.927   5.090 -0.1551 -0.7906 -1.9346
   35CHL1   C22 2572   4.668   1.772   5.243 -0.0639  0.6631 -0.6769
   35CHL1  H22A 2573   4.559   1.778   5.223 -0.3047 -0.2663  0.2499
   35CHL1  H22B 2574   4.689   1.663   5.238  0.0266  0.6169  0.4394
   35CHL1   C23 2575   4.705   1.802   5.386  0.0695 -0.0842  0.8193
   35CHL1  H23A 2576   4.809   1.772   5.407  0.0686 -0.5429  0.2127
   35CHL1  H23B 2577   4.702   1.912   5.404  0.6945  0.1144 -0.1600
   35CHL1   C24 2578   4.626   1.727   5.493 -0.3021 -0.0944  0.2187
   35CHL1  H24A 2579   4.623   1.619   5.467  0.4337 -0.4590  1.5581
   35CHL1  H24B 2580   4.680   1.731   5.590 -0.4958 -0.2847  0.3357
   35CHL1   C25 2581   4.479   1.773   5.511 -0.3612  0.3877  0.7593
   35CHL1   H25 2582   4.420   1.769   5.417 -1.2231  1.3571  1.2440
   35CHL1   C26 2583   4.396   1.682   5.598  0.0692  0.2210  0.2028
   35CHL1  H26A 2584   4.426   1.695   5.704  1.5214 -0.9923 -0.0124
   35CHL1  H26B 2585   4.288   1.701   5.584 -0.6537 -2.3744  1.6109
   35CHL1  H26C 2586   4.410   1.576   5.566  2.0330  0.2902  0.7111
   35CHL1   C27 2587   4.468   1.920   5.548  0.1352  0.2268  0.3802
   35CHL1  H27A 2588   4.360   1.943   5.564  0.5501  1.6187  1.4204
   35CHL1  H27B 2589   4.529   1.935   5.639  0.3272  0.0275  0.2856
   35CHL1  H27C 2590   4.505   1.989   5.469 -0.5366  0.4016  0.2120
   36CHL1    C3 2591   6.257   3.247   3.932  0.4372  0.3529  0.2755
   36CHL1    H3 2592   6.146   3.242   3.933  0.4832 -2.1567  1.4475
   36CHL1    O3 2593   6.301   3.257   3.792  0.0474  0.2365 -1.1791
   36CHL1   H3' 2594   6.396   3.266   3.803  0.0249  0.9223 -1.4594
   36CHL1    C4 2595   6.314   3.359   4.020  0.0281 -0.2974  0.0476
   36CHL1   H4A 2596   6.421   3.370   3.993 -0.4896  1.1852 -1.5865
   36CHL1   H4B 2597   6.265   3.449   3.976 -1.5726 -1.9746 -1.7564
   36CHL1    C5 2598   6.305   3.346   4.169  0.4707  0.6701  0.3943
   36CHL1    C6 2599   6.261   3.438   4.250 -0.1637  0.0080 -0.0131
   36CHL1    H6 2600   6.231   3.535   4.207 -1.1440 -0.1358  0.3295
   36CHL1    C7 2601   6.242   3.422   4.397  1.0283 -0.0701 -0.7615
   36CHL1   H7A 2602   6.306   3.499   4.446 -0.4020  1.1809 -0.8006
   36CHL1   H7B 2603   6.133   3.419   4.416  0.9820 -2.0751 -1.1385
   36CHL1    C8 2604   6.305   3.299   4.458 -0.1383  0.3190  0.6968
   36CHL1    H8 2605   6.416   3.304   4.464 -0.2499  1.8903  2.4788
   36CHL1   C14 2606   6.259   3.276   4.601  0.1009  0.4469  0.0215
   36CHL1   H14 2607   6.149   3.268   4.589  0.2254  1.1163 -1.9976
   36CHL1   C15 2608   6.266   3.391   4.703  0.2059  0.3621  0.6249
   36CHL1  H15A 2609   6.368   3.433   4.699  0.7445 -0.9590 -0.4878
   36CHL1  H15B 2610   6.195   3.476   4.696 -0.4658 -0.1870  0.5795
   36CHL1   C16 2611   6.238   3.319   4.833  0.0694 -0.6731 -0.5457
   36CHL1  H16A 2612   6.328   3.331   4.896  0.7616 -0.6571 -1.5220
   36CHL1  H16B 2613   6.140   3.350   4.876 -1.5200 -4.3307 -1.1766
   36CHL1   C17 2614   6.233   3.166   4.800  0.1199  0.0304 -0.4391
   36CHL1   H17 2615   6.127   3.147   4.775 -0.2257  1.4754 -0.1668
   36CHL1   C13 2616   6.308   3.150   4.667 -0.3078  0.4766  0.1956
   36CHL1   C18 2617   6.463   3.155   4.691  0.2971  0.1968 -0.0012
   36CHL1  H18A 2618   6.482   3.247   4.751 -2.6929  0.6655  0.3741
   36CHL1  H18B 2619   6.496   3.056   4.728 -0.3179 -0.4718 -1.1863
   36CHL1  H18C 2620   6.513   3.179   4.595  0.0994 -0.1552 -0.1920
   36CHL1   C12 2621   6.271   3.027   4.578 -0.2601 -1.1000 -0.0907
   36CHL1  H12A 2622   6.319   2.935   4.620  0.3102 -0.3357  0.9794
   36CHL1  H12B 2623   6.161   3.016   4.580 -0.5598  1.2797 -0.3861
   36CHL1   C11 2624   6.325   3.049   4.438  0.0883 -0.4350  0.0822
   36CHL1  H11A 2625   6.436   3.044   4.446  0.1161 -2.8785 -0.9609
   36CHL1  H11B 2626   6.288   2.964   4.377  2.7433 -1.3188 -0.4290
   36CHL1    C9 2627   6.280   3.179   4.368  0.3832  0.2726  0.0585
   36CHL1    H9 2628   6.170   3.171   4.356 -0.0276  2.9835  1.2347
   36CHL1   C10 2629   6.332   3.204   4.225 -0.1864 -0.4714  0.3053
   36CHL1   C19 2630   6.485   3.186   4.226  0.4622 -0.0896 -0.1879
   36CHL1  H19A 2631   6.539   3.252   4.297  1.5083 -2.1054  1.0050
   36CHL1  H19B 2632   6.519   3.083   4.250  1.0827 -0.2282 -1.5742
   36CHL1  H19C 2633   6.533   3.217   4.131 -0.5024 -0.4504 -0.8110
   36CHL1    C1 2634   6.263   3.096   4.132  0.2639  0.6335 -0.4448
   36CHL1   H1A 2635   6.296   2.995   4.165 -0.5246  0.7327  0.7068
   36CHL1   H1B 2636   6.153   3.100   4.147 -0.0211 -4.7048  0.6388
   36CHL1    C2 2637   6.311   3.113   3.985  0.5312  0.1007 -0.4142
   36CHL1   H2A 2638   6.275   3.028   3.922  1.0629 -1.3277  1.1558
   36CHL1   H2B 2639   6.421   3.108   3.975  0.5482 -1.4575  0.3196
   36CHL1   C20 2640   6.272   3.083   4.926  0.5459  0.5825 -0.4424
   36CHL1   H20 2641   6.381   3.097   4.941  0.5101 -1.8622  3.6995
   36CHL1   C21 2642   6.262   2.928   4.893 -0.1181 -0.0360 -0.1687
   36CHL1  H21A 2643   6.334   2.897   4.815  0.9780  0.3074  0.6870
   36CHL1  H21B 2644   6.155   2.910   4.871 -0.2711 -0.4574  0.8509
   36CHL1  H21C 2645   6.272   2.865   4.984 -1.9915  1.0799  0.8793
   36CHL1   C22 2646   6.187   3.123   5.049 -0.2799  0.0929  0.0747
   36CHL1  H22A 2647   6.192   3.232   5.071  0.3997  0.4072 -1.4955
   36CHL1  H22B 2648   6.083   3.088   5.027  0.9926 -3.4076 -0.9804
   36CHL1   C23 2649   6.241   3.062   5.173  0.3556 -0.7405 -0.1315
   36CHL1  H23A 2650   6.256   2.952   5.167  0.0285 -0.8027  0.1344
   36CHL1  H23B 2651   6.340   3.109   5.189 -0.5420  1.9382 -1.7584
   36CHL1   C24 2652   6.144   3.088   5.293  0.1118 -0.5907 -0.0953
   36CHL1  H24A 2653   6.115   3.195   5.293 -0.0832 -0.6407 -0.6995
   36CHL1  H24B 2654   6.049   3.038   5.267 -0.4156 -0.3058  1.1649
   36CHL1   C25 2655   6.197   3.043   5.430  0.0623  0.3438  0.1408
   36CHL1   H25 2656   6.301   3.077   5.446 -0.0148  1.3908 -1.3412
   36CHL1   C26 2657   6.097   3.091   5.537  0.1515  0.4526  0.6338
   36CHL1  H26A 2658   6.112   3.033   5.631 -1.6905  0.7840  1.1805
   36CHL1  H26B 2659   6.115   3.196   5.569 -2.8589  0.2451  3.6175
   36CHL1  H26C 2660   5.994   3.082   5.497 -0.1463 -0.9576  1.6544
   36CHL1   C27 2661   6.200   2.889   5.435 -0.3306 -0.1813  0.4902
   36CHL1  H27A 2662   6.279   2.855   5.506  1.3334  1.3086 -0.5542
   36CHL1  H27B 2663   6.100   2.847   5.456 -1.0669  1.3435  0.1778
   36CHL1  H27C 2664   6.232   2.855   5.334 -0.5149 -0.7807  0.6288
   37CHL1    C3 2665   2.564   3.634   4.411  0.7840 -0.0239  0.1565
   37CHL1    H3 2666   2.669   3.615   4.441  0.3586 -0.5039  1.4212
   37CHL1    O3 2667   2.549   3.631   4.270  0.0388 -0.3882 -0.4830
   37CHL1   H3' 2668   2.457   3.659   4.267 -0.4723 -1.6602  1.5183
   37CHL1    C4 2669   2.463   3.535   4.477  0.1665  0.2655 -0.0918
   37CHL1   H4A 2670   2.358   3.555   4.447 -0.0977 -1.1056 -0.1715
   37CHL1   H4B 2671   2.483   3.438   4.427 -3.2255  0.5865 -2.3954
   37CHL1    C5 2672   2.482   3.534   4.627 -0.6245 -0.7833  0.2250
   37CHL1    C6 2673   2.515   3.422   4.696  0.0096 -0.4521 -0.1428
   37CHL1    H6 2674   2.512   3.331   4.633  0.1787  1.2305 -2.7200
   37CHL1    C7 2675   2.527   3.411   4.850  0.0805 -0.0505  0.3220
   37CHL1   H7A 2676   2.447   3.345   4.892 -0.8656  0.2254 -1.0004
   37CHL1   H7B 2677   2.634   3.386   4.869  0.6506  2.1331  0.2132
   37CHL1    C8 2678   2.494   3.550   4.911 -0.5554 -0.0615  0.2149
   37CHL1    H8 2679   2.384   3.562   4.905 -0.3880  0.7654 -1.7168
   37CHL1   C14 2680   2.528   3.556   5.066 -0.2378 -0.4576  0.8274
   37CHL1   H14 2681   2.638   3.540   5.061 -0.0590  1.0308 -2.1586
   37CHL1   C15 2682   2.467   3.454   5.162 -0.1625  0.1360  0.6257
   37CHL1  H15A 2683   2.357   3.451   5.154 -0.1137 -1.1475  0.1569
   37CHL1  H15B 2684   2.512   3.354   5.147  3.4661  1.6524  0.3351
   37CHL1   C16 2685   2.509   3.509   5.301  0.2976 -0.3576  0.4941
   37CHL1  H16A 2686   2.425   3.496   5.373  0.2777  0.4544  0.6290
   37CHL1  H16B 2687   2.596   3.444   5.321 -0.4643 -0.6800  3.1642
   37CHL1   C17 2688   2.554   3.664   5.277  0.4822  0.4596 -1.0808
   37CHL1   H17 2689   2.665   3.666   5.269  0.4157  0.6873 -2.0541
   37CHL1   C13 2690   2.515   3.696   5.129  0.2639 -0.3315  0.0421
   37CHL1   C18 2691   2.364   3.734   5.128 -0.8330 -0.1659 -0.1421
   37CHL1  H18A 2692   2.304   3.672   5.198  1.1300 -1.2519  0.6621
   37CHL1  H18B 2693   2.358   3.842   5.152  0.4003 -0.2212  0.4998
   37CHL1  H18C 2694   2.331   3.739   5.022 -0.0445  0.2161 -0.3821
   37CHL1   C12 2695   2.598   3.794   5.048  0.2423 -0.0649 -0.2339
   37CHL1  H12A 2696   2.582   3.896   5.090  1.1728 -0.1225  0.2666
   37CHL1  H12B 2697   2.705   3.766   5.056 -0.1924 -1.6053  0.7757
   37CHL1   C11 2698   2.553   3.798   4.908 -0.1615  0.1812  1.3951
   37CHL1  H11A 2699   2.453   3.847   4.909  0.5204  1.6355  2.3797
   37CHL1  H11B 2700   2.616   3.869   4.851  0.9350 -0.7689  1.3777
   37CHL1    C9 2701   2.557   3.662   4.832 -0.5124  0.1711 -0.1955
   37CHL1    H9 2702   2.661   3.627   4.810 -0.8135 -2.0098  1.5061
   37CHL1   C10 2703   2.490   3.675   4.693  0.3060 -0.1861 -0.2430
   37CHL1   C19 2704   2.339   3.729   4.696 -0.2202 -0.5060  0.0457
   37CHL1  H19A 2705   2.305   3.746   4.592 -0.4671 -0.8627  0.0677
   37CHL1  H19B 2706   2.275   3.649   4.739 -1.4788  0.4268 -0.0292
   37CHL1  H19C 2707   2.330   3.822   4.758  2.2346  0.3690 -0.7769
   37CHL1    C1 2708   2.572   3.764   4.605 -0.4250 -0.1292 -0.2389
   37CHL1   H1A 2709   2.568   3.867   4.646 -0.8339 -0.2999  0.1505
   37CHL1   H1B 2710   2.675   3.725   4.620 -0.4576  0.4743  1.9583
   37CHL1    C2 2711   2.542   3.775   4.457 -0.8137 -0.3885 -0.7569
   37CHL1   H2A 2712   2.618   3.843   4.414  0.1549  0.6811  2.3722
   37CHL1   H2B 2713   2.437   3.805   4.437 -0.2089  1.5216 -1.3195
   37CHL1   C20 2714   2.518   3.755   5.396 -0.4951 -0.5406  0.3253
   37CHL1   H20 2715   2.410   3.755   5.423 -0.6605  0.9672 -0.2235
   37CHL1   C21 2716   2.574   3.898   5.362  0.5933 -0.1419  0.4476
   37CHL1  H21A 2717   2.563   3.959   5.455  0.9538 -1.0154  1.0794
   37CHL1  H21B 2718   2.516   3.958   5.289  1.1647  0.1963  0.2723
   37CHL1  H21C 2719   2.678   3.894   5.324 -0.8020 -1.2525 -3.8177
   37CHL1   C22 2720   2.587   3.706   5.524 -0.3484  0.5120 -0.3958
   37CHL1  H22A 2721   2.571   3.599   5.549  1.1780  0.0546 -1.2692
   37CHL1  H22B 2722   2.698   3.713   5.513 -0.1372 -0.4707  0.8136
   37CHL1   C23 2723   2.535   3.784   5.652 -0.3267 -0.0770  0.1064
   37CHL1  H23A 2724   2.547   3.894   5.641 -0.3332  0.1166  1.6910
   37CHL1  H23B 2725   2.425   3.765   5.658 -0.4052  0.6770  1.5573
   37CHL1   C24 2726   2.608   3.733   5.773  0.0908 -0.2081  0.4076
   37CHL1  H24A 2727   2.622   3.623   5.771  0.7607 -0.2649  3.3802
   37CHL1  H24B 2728   2.708   3.780   5.771 -0.3297  0.7153 -1.0756
   37CHL1   C25 2729   2.543   3.785   5.905  0.2632 -0.0523  0.2886
   37CHL1   H25 2730   2.539   3.896   5.898  1.3893 -0.0463 -0.5056
   37CHL1   C26 2731   2.404   3.732   5.931  0.7003  0.0515  0.6711
   37CHL1  H26A 2732   2.366   3.763   6.031  0.2029  1.2883  0.1310
   37CHL1  H26B 2733   2.322   3.762   5.862  1.4933 -3.4505 -2.0183
   37CHL1  H26C 2734   2.405   3.621   5.930  0.8330 -0.0348  3.0865
   37CHL1   C27 2735   2.621   3.754   6.031 -1.0433 -0.4173 -0.4419
   37CHL1  H27A 2736   2.726   3.775   6.001 -0.7265  2.9256  2.4650
   37CHL1  H27B 2737   2.600   3.806   6.126  0.7904 -0.6583  0.1359
   37CHL1  H27C 2738   2.625   3.645   6.053  1.4937 -0.2265  0.3131
   38CHL1    C3 2739   4.921   2.216   4.107  0.2498  0.2079 -1.1222
   38CHL1    H3 2740   4.817   2.208   4.145  0.4264  1.3012 -0.3660
   38CHL1    O3 2741   4.923   2.244   3.967  0.0208  0.3612  0.1577
   38CHL1   H3' 2742   5.010   2.273   3.939  0.7478 -0.6057  1.3102
   38CHL1    C4 2743   4.979   2.337   4.177  0.7095 -0.2674 -0.1055
   38CHL1   H4A 2744   5.079   2.357   4.133  0.5104 -1.8332 -1.3800
   38CHL1   H4B 2745   4.910   2.420   4.152 -1.0239 -1.1556  1.5231
   38CHL1    C5 2746   4.985   2.315   4.325 -0.5021 -0.2387 -0.0646
   38CHL1    C6 2747   4.928   2.389   4.423 -0.1571  0.0127  0.3123
   38CHL1    H6 2748   4.876   2.481   4.393 -1.5296 -0.9474 -0.3641
   38CHL1    C7 2749   4.937   2.371   4.570 -0.0601 -0.6686 -0.8039
   38CHL1   H7A 2750   4.960   2.470   4.616  0.3172 -1.9440  1.9788
   38CHL1   H7B 2751   4.840   2.341   4.616 -0.8880  0.9266 -1.4369
   38CHL1    C8 2752   5.053   2.277   4.607 -0.1732  0.3981 -0.4017
   38CHL1    H8 2753   5.149   2.331   4.588  0.6248 -0.9891 -0.4453
   38CHL1   C14 2754   5.043   2.226   4.750  0.4895 -0.4368 -0.1595
   38CHL1   H14 2755   4.949   2.168   4.751 -0.7385  1.3926  2.2365
   38CHL1   C15 2756   5.014   2.320   4.871 -0.7269  0.6491 -0.5152
   38CHL1  H15A 2757   5.074   2.411   4.850  1.5630 -0.5944  0.2240
   38CHL1  H15B 2758   4.905   2.340   4.864 -0.7710 -0.0097 -2.1125
   38CHL1   C16 2759   5.077   2.243   4.994  0.0822 -0.8940 -0.2666
   38CHL1  H16A 2760   5.169   2.301   5.017 -0.1603 -0.8054  0.5279
   38CHL1  H16B 2761   5.001   2.228   5.074  1.2039 -0.2276  0.9628
   38CHL1   C17 2762   5.130   2.104   4.946 -0.3427 -0.1658 -0.4781
   38CHL1   H17 2763   5.039   2.041   4.940  0.6628 -1.6200 -0.8363
   38CHL1   C13 2764   5.160   2.138   4.793 -0.2567  1.3193 -0.1402
   38CHL1   C18 2765   5.292   2.218   4.787  0.4432 -0.1249  0.7039
   38CHL1  H18A 2766   5.378   2.153   4.816  0.9469  0.5709  0.7831
   38CHL1  H18B 2767   5.311   2.247   4.681  2.6837 -1.6787  0.6044
   38CHL1  H18C 2768   5.301   2.310   4.848 -0.9139  1.5581 -1.5084
   38CHL1   C12 2769   5.172   2.009   4.707  0.5447 -1.0014 -0.4221
   38CHL1  H12A 2770   5.262   1.953   4.739 -0.2973 -2.0116  0.2338
   38CHL1  H12B 2771   5.093   1.942   4.746 -0.4921 -0.9868 -2.3641
   38CHL1   C11 2772   5.169   2.038   4.555  0.5901 -0.0062 -0.1593
   38CHL1  H11A 2773   5.271   2.073   4.530  0.3984 -0.3739 -1.5586
   38CHL1  H11B 2774   5.144   1.940   4.510  0.5120 -1.2848  2.4847
   38CHL1    C9 2775   5.060   2.149   4.517 -0.7412 -0.2751  0.0027
   38CHL1    H9 2776   4.961   2.102   4.534 -0.3785 -0.9894  0.1757
   38CHL1   C10 2777   5.063   2.188   4.366 -0.7614  0.6837  0.6432
   38CHL1   C19 2778   5.209   2.213   4.337  0.7862  0.7690 -0.2009
   38CHL1  H19A 2779   5.251   2.286   4.410 -0.9980  1.0747  0.5778
   38CHL1  H19B 2780   5.262   2.116   4.339  0.9888  0.8799 -0.1181
   38CHL1  H19C 2781   5.234   2.264   4.241 -0.5335  3.6523  0.8555
   38CHL1    C1 2782   5.012   2.064   4.289 -0.4668 -0.3789  0.6755
   38CHL1   H1A 2783   5.082   1.982   4.314 -0.6384 -0.5899  0.4775
   38CHL1   H1B 2784   4.916   2.019   4.323 -0.5504 -0.8355 -0.1358
   38CHL1    C2 2785   5.001   2.088   4.135 -0.4586 -0.2534  0.0310
   38CHL1   H2A 2786   4.953   2.002   4.086 -2.1081  0.7091 -0.1026
   38CHL1   H2B 2787   5.094   2.121   4.083 -0.3515 -0.8988 -0.1935
   38CHL1   C20 2788   5.242   2.051   5.036  0.0986  0.5482  0.4304
   38CHL1   H20 2789   5.333   2.111   5.013  1.5632 -1.8527 -0.3575
   38CHL1   C21 2790   5.265   1.900   5.005 -0.5183 -0.0409  0.0912
   38CHL1  H21A 2791   5.303   1.838   5.089  0.2948 -1.1265 -1.0391
   38CHL1  H21B 2792   5.341   1.900   4.923  0.9180  3.0709  1.2828
   38CHL1  H21C 2793   5.171   1.858   4.962  0.3995  1.2252 -3.5130
   38CHL1   C22 2794   5.213   2.069   5.188 -0.1908 -0.1864 -0.3871
   38CHL1  H22A 2795   5.212   2.179   5.202  3.1289 -0.1697  0.4572
   38CHL1  H22B 2796   5.110   2.032   5.210 -0.6803  0.1981 -1.9425
   38CHL1   C23 2797   5.331   2.035   5.281  0.1204 -0.4067 -0.0123
   38CHL1  H23A 2798   5.331   1.928   5.314  0.3276 -0.4683 -0.2150
   38CHL1  H23B 2799   5.421   2.053   5.219 -0.5856 -0.1869 -0.9927
   38CHL1   C24 2800   5.343   2.116   5.414 -0.6404 -0.8658 -0.4542
   38CHL1  H24A 2801   5.357   2.224   5.392 -0.3642 -0.8649 -0.2811
   38CHL1  H24B 2802   5.253   2.117   5.479  0.2182  0.3174  0.7740
   38CHL1   C25 2803   5.462   2.068   5.510  0.3572 -0.2848  0.4911
   38CHL1   H25 2804   5.442   1.960   5.524 -0.8848 -0.0748  0.4351
   38CHL1   C26 2805   5.599   2.104   5.454 -0.0034 -0.1144  0.2385
   38CHL1  H26A 2806   5.677   2.096   5.534  1.2994 -2.9046 -1.1591
   38CHL1  H26B 2807   5.638   2.057   5.361 -1.6213  2.4919 -1.8926
   38CHL1  H26C 2808   5.578   2.208   5.422 -1.1205 -1.1056 -2.5042
   38CHL1   C27 2809   5.438   2.140   5.649 -0.4737 -0.3441 -0.6836
   38CHL1  H27A 2810   5.480   2.082   5.734  1.7513  1.8077 -0.1869
   38CHL1  H27B 2811   5.500   2.232   5.642  0.0600 -0.6826 -0.4931
   38CHL1  H27C 2812   5.335   2.177   5.665 -0.6589  0.0537 -2.6056
   39CHL1    C3 2813   0.409   1.851   3.497  0.3196 -0.3097  0.1159
   39CHL1    H3 2814   0.328   1.928   3.495  0.3600 -0.2648  0.2012
   39CHL1    O3 2815   0.445   1.828   3.366  0.4424  0.0227  0.5688
   39CHL1   H3' 2816   0.495   1.905   3.338  1.9947 -1.5095 -1.1116
   39CHL1    C4 2817   0.526   1.911   3.580  0.4927 -0.0213  0.2834
   39CHL1   H4A 2818   0.613   1.846   3.556  0.5269  0.2999 -0.4917
   39CHL1   H4B 2819   0.551   2.015   3.552 -0.6289  0.7524  1.9894
   39CHL1    C5 2820   0.508   1.897   3.730  0.2502 -0.8250  0.3956
   39CHL1    C6 2821   0.533   2.005   3.810 -0.3363 -0.0247  0.9687
   39CHL1    H6 2822   0.575   2.096   3.766 -1.9896  0.2737 -0.0952
   39CHL1    C7 2823   0.535   2.006   3.965  0.0822  0.3772  0.6346
   39CHL1   H7A 2824   0.630   2.052   4.001  1.2630 -1.4271 -0.0217
   39CHL1   H7B 2825   0.442   2.049   4.008  0.0925 -0.0386  1.0813
   39CHL1    C8 2826   0.531   1.858   4.014 -0.2600 -0.1161 -0.2827
   39CHL1    H8 2827   0.637   1.823   4.008 -0.1590  0.4106 -3.1799
   39CHL1   C14 2828   0.493   1.862   4.155  0.0131  0.4051 -0.4536
   39CHL1   H14 2829   0.392   1.906   4.169 -0.0529  0.7280 -1.7743
   39CHL1   C15 2830   0.584   1.940   4.248 -0.1540 -0.1952 -0.3173
   39CHL1  H15A 2831   0.693   1.933   4.224 -0.2928  1.6756 -1.7051
   39CHL1  H15B 2832   0.559   2.048   4.248 -1.7646 -0.5446 -1.4612
   39CHL1   C16 2833   0.553   1.890   4.388 -0.3442 -0.4890 -0.5442
   39CHL1  H16A 2834   0.650   1.882   4.442  0.1749  0.9367 -1.2107
   39CHL1  H16B 2835   0.504   1.966   4.453 -0.5518 -2.7830  2.2323
   39CHL1   C17 2836   0.468   1.760   4.365  0.2112 -0.0432 -0.4466
   39CHL1   H17 2837   0.362   1.793   4.371  0.5897  1.9317 -2.8810
   39CHL1   C13 2838   0.484   1.720   4.219 -0.7571 -0.3461  0.2765
   39CHL1   C18 2839   0.618   1.640   4.212 -0.4374  0.4924 -0.6551
   39CHL1  H18A 2840   0.691   1.673   4.288 -1.1221  1.8743 -0.5710
   39CHL1  H18B 2841   0.600   1.530   4.223  0.9735  0.2824 -0.2990
   39CHL1  H18C 2842   0.661   1.647   4.110  3.2478 -2.0335  0.5154
   39CHL1   C12 2843   0.369   1.647   4.152  0.3085  0.4839 -0.4076
   39CHL1  H12A 2844   0.342   1.546   4.192  0.3538  0.3735 -0.6547
   39CHL1  H12B 2845   0.285   1.719   4.159 -0.2719 -0.2961  1.8505
   39CHL1   C11 2846   0.403   1.632   4.001 -0.1213  1.4188  0.3878
   39CHL1  H11A 2847   0.490   1.563   3.999 -0.2291  1.2989 -1.0285
   39CHL1  H11B 2848   0.328   1.566   3.952  1.7361 -0.1011 -0.4998
   39CHL1    C9 2849   0.431   1.772   3.935 -0.4463  0.3006 -0.6377
   39CHL1    H9 2850   0.332   1.820   3.946 -1.1910 -1.2845 -0.1386
   39CHL1   C10 2851   0.467   1.766   3.785  0.4571 -0.4597 -0.7067
   39CHL1   C19 2852   0.574   1.657   3.771  0.5381  0.6294 -0.4536
   39CHL1  H19A 2853   0.531   1.555   3.783  0.7440  0.5564 -0.3270
   39CHL1  H19B 2854   0.632   1.656   3.677 -0.1737  1.3231 -0.9106
   39CHL1  H19C 2855   0.644   1.652   3.857 -1.0988 -1.2544  0.8595
   39CHL1    C1 2856   0.341   1.723   3.713 -0.0551  0.5865 -0.2401
   39CHL1   H1A 2857   0.317   1.618   3.738 -0.1134  1.0396  1.7313
   39CHL1   H1B 2858   0.257   1.790   3.742  0.0203  0.5267  0.1204
   39CHL1    C2 2859   0.342   1.722   3.555  0.0454 -0.5243  0.3575
   39CHL1   H2A 2860   0.241   1.702   3.516 -0.0972 -1.5318  1.2112
   39CHL1   H2B 2861   0.402   1.634   3.523  1.4592  0.0115  1.3897
   39CHL1   C20 2862   0.486   1.653   4.480  0.1706 -1.0243  0.5820
   39CHL1   H20 2863   0.587   1.607   4.483  0.0253 -1.3881  0.0389
   39CHL1   C21 2864   0.394   1.545   4.456  0.4815  0.7990  1.0174
   39CHL1  H21A 2865   0.289   1.580   4.450  0.5159  0.9565  1.3015
   39CHL1  H21B 2866   0.405   1.464   4.532  2.0840  0.5895  0.6022
   39CHL1  H21C 2867   0.424   1.494   4.362 -1.8918 -0.7091  0.9928
   39CHL1   C22 2868   0.451   1.721   4.616 -0.3718  0.0472  0.4446
   39CHL1  H22A 2869   0.501   1.818   4.637 -2.8907  1.9619 -1.7347
   39CHL1  H22B 2870   0.346   1.756   4.624 -0.6938 -1.2832  3.4295
   39CHL1   C23 2871   0.483   1.629   4.736 -0.1651 -0.3240  0.0045
   39CHL1  H23A 2872   0.435   1.530   4.718 -1.0604 -0.2152  1.6377
   39CHL1  H23B 2873   0.593   1.615   4.736 -0.0053  0.5869  2.3652
   39CHL1   C24 2874   0.447   1.694   4.865  0.3985  0.6971  0.2974
   39CHL1  H24A 2875   0.511   1.784   4.881  1.2435  0.0039  0.9507
   39CHL1  H24B 2876   0.349   1.744   4.850  1.1546  2.1525  0.0185
   39CHL1   C25 2877   0.454   1.606   4.989 -0.2727 -0.3033 -0.1514
   39CHL1   H25 2878   0.388   1.519   4.973  0.6824 -0.6645 -2.5193
   39CHL1   C26 2879   0.598   1.560   5.013  0.5184 -0.6241 -0.5540
   39CHL1  H26A 2880   0.665   1.648   5.023  1.3451 -1.2516 -0.4892
   39CHL1  H26B 2881   0.608   1.494   5.102 -1.1063 -0.6620 -0.3664
   39CHL1  H26C 2882   0.633   1.503   4.924 -0.1191 -0.8000 -0.6967
   39CHL1   C27 2883   0.417   1.690   5.107  0.0633  0.2859 -0.1325
   39CHL1  H27A 2884   0.314   1.732   5.112 -0.0555 -0.1520  1.5777
   39CHL1  H27B 2885   0.434   1.637   5.203  1.6420  1.8873  0.5048
   39CHL1  H27C 2886   0.481   1.780   5.120  0.2255  0.0757  0.5575
   40CHL1    C3 2887   4.817   0.574   3.391 -0.4149  0.4019  0.1397
   40CHL1    H3 2888   4.800   0.471   3.430 -1.6500  0.4783 -0.1510
   40CHL1    O3 2889   4.780   0.578   3.250  0.2964 -0.6839  0.3227
   40CHL1   H3' 2890   4.693   0.619   3.247  0.5164 -0.1454  1.0662
   40CHL1    C4 2891   4.713   0.664   3.463 -0.1808 -0.1827 -0.2750
   40CHL1   H4A 2892   4.725   0.772   3.437 -0.7657  0.6027  2.3827
   40CHL1   H4B 2893   4.612   0.625   3.439 -0.4090  0.1975  0.0551
   40CHL1    C5 2894   4.749   0.632   3.612  0.0623 -0.4221  0.7012
   40CHL1    C6 2895   4.661   0.564   3.687 -0.3373  0.2227 -0.0504
   40CHL1    H6 2896   4.559   0.533   3.659 -1.2557  2.6178  0.3926
   40CHL1    C7 2897   4.683   0.531   3.833 -0.4369  0.1694 -1.1202
   40CHL1   H7A 2898   4.586   0.545   3.887  1.6981  0.5186  3.0589
   40CHL1   H7B 2899   4.716   0.426   3.845  0.5675  0.3522 -2.1319
   40CHL1    C8 2900   4.792   0.632   3.893 -0.1112 -0.2713  0.8094
   40CHL1    H8 2901   4.743   0.731   3.896 -0.9074 -0.6826  2.0331
   40CHL1   C14 2902   4.826   0.587   4.034  0.2931 -0.2301  0.1733
   40CHL1   H14 2903   4.875   0.489   4.016 -1.3630 -1.3200  1.2973
   40CHL1   C15 2904   4.707   0.581   4.139 -0.1098  0.4961 -0.3471
   40CHL1  H15A 2905   4.651   0.676   4.119 -0.6789  0.3751  0.6063
   40CHL1  H15B 2906   4.643   0.492   4.123  0.4227  0.1588 -0.6159
   40CHL1   C16 2907   4.776   0.593   4.278  0.2880 -0.2731  0.0719
   40CHL1  H16A 2908   4.738   0.686   4.326  0.3159  0.4389 -1.2477
   40CHL1  H16B 2909   4.753   0.511   4.349 -3.4935  0.7345  0.2518
   40CHL1   C17 2910   4.930   0.615   4.244 -0.3020 -0.0281  0.0477
   40CHL1   H17 2911   4.973   0.512   4.250  0.9586  0.3565 -1.7703
   40CHL1   C13 2912   4.937   0.675   4.100 -0.1545 -0.4181 -0.4595
   40CHL1   C18 2913   4.886   0.822   4.105  0.4267  0.2290 -0.2395
   40CHL1  H18A 2914   4.799   0.829   4.175 -0.3836 -1.5258 -1.0118
   40CHL1  H18B 2915   4.969   0.888   4.139 -0.9690  1.7909  0.3372
   40CHL1  H18C 2916   4.855   0.858   4.005  0.9379 -1.2039 -0.9222
   40CHL1   C12 2917   5.064   0.661   4.014 -0.3767  0.6911 -0.6594
   40CHL1  H12A 2918   5.129   0.742   4.053  0.3210 -0.0662 -0.2258
   40CHL1  H12B 2919   5.117   0.564   4.020  0.1759  0.9374 -1.3461
   40CHL1   C11 2920   5.039   0.699   3.871 -0.5243 -0.3559  0.3539
   40CHL1  H11A 2921   5.039   0.810   3.870  0.7152 -0.3224 -1.6365
   40CHL1  H11B 2922   5.125   0.667   3.809 -0.3759  1.3518 -0.3760
   40CHL1    C9 2923   4.918   0.628   3.802  0.1008 -0.2369 -0.2074
   40CHL1    H9 2924   4.944   0.521   3.786 -4.2477 -1.5632  0.2619
   40CHL1   C10 2925   4.889   0.683   3.661  0.1448  0.4706  0.7245
   40CHL1   C19 2926   4.889   0.840   3.649 -0.9332 -1.0314 -0.6587
   40CHL1  H19A 2927   4.990   0.885   3.659 -0.5885 -1.5813 -1.5838
   40CHL1  H19B 2928   4.867   0.866   3.543 -1.6038 -2.1743 -0.8184
   40CHL1  H19C 2929   4.811   0.894   3.707  0.8900  0.3155  0.6779
   40CHL1    C1 2930   5.001   0.624   3.562  0.1075  0.2854  0.2575
   40CHL1   H1A 2931   5.098   0.673   3.586  0.1910  0.5688 -0.6212
   40CHL1   H1B 2932   5.009   0.515   3.585 -3.2507 -0.9994 -3.3990
   40CHL1    C2 2933   4.961   0.619   3.416  0.5674  0.4238  0.6699
   40CHL1   H2A 2934   5.025   0.558   3.349  1.7327 -0.8284  2.7788
   40CHL1   H2B 2935   4.960   0.723   3.379 -2.7129 -0.5643 -2.5527
   40CHL1   C20 2936   5.000   0.689   4.359 -0.3895  0.6230 -0.3903
   40CHL1   H20 2937   4.962   0.791   4.377 -0.5583  0.2779  1.4508
   40CHL1   C21 2938   5.155   0.690   4.346 -0.2638  0.5701 -0.5200
   40CHL1  H21A 2939   5.206   0.593   4.363  0.6237  0.8012 -1.7064
   40CHL1  H21B 2940   5.185   0.765   4.422  0.0170  0.2300 -0.2918
   40CHL1  H21C 2941   5.195   0.730   4.250  0.9521 -1.5982 -0.9794
   40CHL1   C22 2942   4.982   0.619   4.497  0.5023  0.2630  0.1786
   40CHL1  H22A 2943   4.874   0.601   4.520  0.1025 -0.6822 -2.1827
   40CHL1  H22B 2944   5.044   0.527   4.500 -0.3940 -0.3395  1.5680
   40CHL1   C23 2945   5.039   0.704   4.619  0.0753 -0.2978 -1.2875
   40CHL1  H23A 2946   5.149   0.692   4.611  0.0992  0.4094 -2.3072
   40CHL1  H23B 2947   5.013   0.811   4.606  1.6354  0.1241 -1.1891
   40CHL1   C24 2948   4.980   0.680   4.760  0.2476 -0.4602 -0.0162
   40CHL1  H24A 2949   4.872   0.708   4.762  0.7964  1.9397  2.7139
   40CHL1  H24B 2950   4.969   0.570   4.775 -1.8156 -0.3554 -0.5187
   40CHL1   C25 2951   5.035   0.758   4.874  0.2643 -0.2655 -0.2772
   40CHL1   H25 2952   5.021   0.866   4.851  0.6401  0.0824  1.0217
   40CHL1   C26 2953   4.971   0.712   5.000  0.7818  0.1613  0.3844
   40CHL1  H26A 2954   4.860   0.702   4.998  0.9507 -2.2947  0.3125
   40CHL1  H26B 2955   5.012   0.613   5.027  0.0862  0.2933  2.0081
   40CHL1  H26C 2956   5.002   0.775   5.086  1.0311 -1.1635  1.2806
   40CHL1   C27 2957   5.182   0.747   4.895  0.6555 -0.6381  0.1519
   40CHL1  H27A 2958   5.220   0.643   4.900  1.4938 -0.4170 -0.9408
   40CHL1  H27B 2959   5.236   0.790   4.807  0.4249  1.5000  0.9817
   40CHL1  H27C 2960   5.210   0.792   4.993 -1.5965 -0.4484  0.7457
   41CHL1    C3 2961   1.338   3.669   3.738 -0.4452 -0.1847 -0.3853
   41CHL1    H3 2962   1.345   3.561   3.766  0.8820 -0.1129 -0.3837
   41CHL1    O3 2963   1.319   3.673   3.593  0.4458  0.2254 -0.0970
   41CHL1   H3' 2964   1.277   3.757   3.573  0.5346  0.3595  0.2708
   41CHL1    C4 2965   1.209   3.729   3.814 -0.2330 -0.0655 -0.1221
   41CHL1   H4A 2966   1.193   3.834   3.780 -1.6885  0.1109  0.9680
   41CHL1   H4B 2967   1.111   3.684   3.787 -0.8573  0.6355  0.9112
   41CHL1    C5 2968   1.220   3.744   3.959 -0.2843  0.0066 -0.6409
   41CHL1    C6 2969   1.141   3.674   4.043  0.9764 -1.2378  0.2182
   41CHL1    H6 2970   1.048   3.627   4.007  1.9577 -3.5610  0.5528
   41CHL1    C7 2971   1.135   3.676   4.195 -0.7115 -0.0894 -0.2432
   41CHL1   H7A 2972   1.032   3.701   4.227 -1.1696  0.3621 -1.9592
   41CHL1   H7B 2973   1.174   3.575   4.220  0.7470  0.0328 -1.8318
   41CHL1    C8 2974   1.242   3.772   4.250  0.1001 -0.4012  0.1930
   41CHL1    H8 2975   1.199   3.874   4.244 -0.0263 -0.5401 -2.2313
   41CHL1   C14 2976   1.267   3.742   4.398 -0.2093 -0.1385 -0.1482
   41CHL1   H14 2977   1.317   3.644   4.410 -0.7168 -0.0928  3.5233
   41CHL1   C15 2978   1.149   3.733   4.490 -0.5791  0.8903  0.4972
   41CHL1  H15A 2979   1.084   3.823   4.479 -1.6749  0.2479  1.5610
   41CHL1  H15B 2980   1.085   3.645   4.468 -0.1356  0.4380  1.0085
   41CHL1   C16 2981   1.209   3.747   4.630 -0.0069 -0.3552 -0.0667
   41CHL1  H16A 2982   1.143   3.819   4.682 -1.8472 -0.9792 -1.4540
   41CHL1  H16B 2983   1.218   3.653   4.689 -0.6303 -0.7885 -0.6505
   41CHL1   C17 2984   1.355   3.799   4.608  0.0267 -0.2143 -1.2272
   41CHL1   H17 2985   1.420   3.709   4.618  0.5979  0.3562  0.5839
   41CHL1   C13 2986   1.366   3.840   4.461  0.0159 -0.7479 -0.2873
   41CHL1   C18 2987   1.324   3.987   4.457  0.1955  0.5509 -0.8149
   41CHL1  H18A 2988   1.221   3.995   4.498 -0.2565  0.2699 -1.8765
   41CHL1  H18B 2989   1.391   4.054   4.516  0.9830  0.8031 -1.9520
   41CHL1  H18C 2990   1.320   4.024   4.352  0.4716 -1.2697 -1.4997
   41CHL1   C12 2991   1.502   3.825   4.390 -0.0535  0.4068 -0.2917
   41CHL1  H12A 2992   1.572   3.905   4.421 -0.8059  1.5048 -1.3199
   41CHL1  H12B 2993   1.542   3.724   4.416  0.7560  0.0001 -2.8935
   41CHL1   C11 2994   1.495   3.841   4.235  0.5245 -0.1946  0.0669
   41CHL1  H11A 2995   1.485   3.949   4.214 -0.2159 -0.7938 -3.2620
   41CHL1  H11B 2996   1.582   3.792   4.186 -0.2393 -1.8513  0.2791
   41CHL1    C9 2997   1.373   3.768   4.169  0.1068  0.4330  0.0642
   41CHL1    H9 2998   1.391   3.659   4.164 -2.1681  0.0027  0.1856
   41CHL1   C10 2999   1.353   3.808   4.017  0.5827 -0.7120  0.5296
   41CHL1   C19 3000   1.339   3.962   3.989 -0.0201 -0.1082 -0.0614
   41CHL1  H19A 3001   1.313   3.975   3.882 -0.1123 -3.6064 -0.5637
   41CHL1  H19B 3002   1.257   3.994   4.056 -1.2893 -1.3083 -0.9916
   41CHL1  H19C 3003   1.438   4.005   4.019  0.1895 -1.2081  0.9147
   41CHL1    C1 3004   1.478   3.761   3.940  0.4184  0.2071 -0.5541
   41CHL1   H1A 3005   1.564   3.829   3.962  1.9108 -1.5553 -0.6629
   41CHL1   H1B 3006   1.517   3.672   3.993 -0.6851  0.7967  1.3339
   41CHL1    C2 3007   1.466   3.747   3.790 -0.5067 -0.1007  0.1623
   41CHL1   H2A 3008   1.559   3.697   3.755  0.5166 -0.0344  2.5750
   41CHL1   H2B 3009   1.465   3.845   3.737 -0.0620 -0.0288  0.2858
   41CHL1   C20 3010   1.395   3.895   4.723 -0.3466  0.1904  0.1361
   41CHL1   H20 3011   1.325   3.981   4.725 -1.1125 -0.4008  2.6365
   41CHL1   C21 3012   1.542   3.935   4.699  0.0980  0.2813  0.5803
   41CHL1  H21A 3013   1.562   3.979   4.599  2.3963 -1.4580  0.1843
   41CHL1  H21B 3014   1.601   3.841   4.703 -0.0324  0.2262  1.6311
   41CHL1  H21C 3015   1.571   4.009   4.777 -1.9606  2.0711 -0.2458
   41CHL1   C22 3016   1.394   3.836   4.867 -0.6226 -0.6570 -0.3311
   41CHL1  H22A 3017   1.288   3.810   4.887 -1.0031  1.6660  0.9981
   41CHL1  H22B 3018   1.448   3.739   4.866 -0.4400 -0.5553 -0.4011
   41CHL1   C23 3019   1.439   3.922   4.982 -0.4028 -0.1105 -0.2674
   41CHL1  H23A 3020   1.548   3.944   4.976 -1.1243  3.9215 -2.2050
   41CHL1  H23B 3021   1.386   4.019   4.988  1.6585  0.9988  1.0957
   41CHL1   C24 3022   1.419   3.843   5.109  0.1223  0.3414 -0.5370
   41CHL1  H24A 3023   1.321   3.793   5.108 -0.4803  1.4490  0.4665
   41CHL1  H24B 3024   1.499   3.766   5.109 -1.3235 -1.2010 -0.8982
   41CHL1   C25 3025   1.433   3.937   5.233 -0.0805  0.3541  0.1234
   41CHL1   H25 3026   1.379   4.032   5.215  0.7639  1.3648  2.5552
   41CHL1   C26 3027   1.376   3.871   5.355 -0.1797  0.6208 -0.3306
   41CHL1  H26A 3028   1.271   3.837   5.345  0.2780 -0.4648 -1.7518
   41CHL1  H26B 3029   1.436   3.781   5.381 -0.4887  0.5562  0.1740
   41CHL1  H26C 3030   1.369   3.932   5.448  1.1979  0.7641 -0.3056
   41CHL1   C27 3031   1.574   3.987   5.264  0.5210  0.1449 -0.1220
   41CHL1  H27A 3032   1.629   3.894   5.290  1.6168  0.6579 -0.5420
   41CHL1  H27B 3033   1.621   4.032   5.175  1.2891 -1.7322 -0.7227
   41CHL1  H27C 3034   1.582   4.060   5.347  3.6864  1.1272 -1.1657
   42CHL1    C3 3035   3.435   2.521   3.947 -1.2964 -0.3461  0.2228
   42CHL1    H3 3036   3.485   2.422   3.945  2.3890  1.3685  0.5721
   42CHL1    O3 3037   3.452   2.573   3.819 -0.0973 -0.0498  0.6157
   42CHL1   H3' 3038   3.370   2.614   3.788  0.1493 -0.1648 -0.1948
   42CHL1    C4 3039   3.290   2.507   3.992  0.1900  0.1854 -0.3863
   42CHL1   H4A 3040   3.248   2.609   3.989  2.1364  1.1334  1.3951
   42CHL1   H4B 3041   3.229   2.442   3.925  0.8355 -0.9795  0.1187
   42CHL1    C5 3042   3.270   2.465   4.133  0.1290 -0.1254 -0.3439
   42CHL1    C6 3043   3.201   2.356   4.160  0.4352  0.1524 -0.2160
   42CHL1    H6 3044   3.149   2.304   4.079  0.4460  1.9660 -1.4350
   42CHL1    C7 3045   3.179   2.303   4.298  0.1610  0.4647 -0.4880
   42CHL1   H7A 3046   3.073   2.270   4.309  0.1313  0.5876 -0.4048
   42CHL1   H7B 3047   3.240   2.211   4.311 -2.6069 -1.4174  0.2246
   42CHL1    C8 3048   3.214   2.403   4.409  0.5201  0.0104  0.2619
   42CHL1    H8 3049   3.133   2.480   4.409  0.5087  0.1562  3.6671
   42CHL1   C14 3050   3.216   2.331   4.545  0.2176  0.2268 -0.2098
   42CHL1   H14 3051   3.294   2.253   4.538  0.2658  0.2420  0.1213
   42CHL1   C15 3052   3.082   2.263   4.590 -0.1408 -0.0822  0.0803
   42CHL1  H15A 3053   2.994   2.325   4.561  0.3444  0.8164  0.4813
   42CHL1  H15B 3054   3.062   2.161   4.551  0.8608 -0.6504  1.0178
   42CHL1   C16 3055   3.087   2.254   4.743  0.0052  0.0162  0.0308
   42CHL1  H16A 3056   3.008   2.311   4.796  1.9242  2.1989  0.7181
   42CHL1  H16B 3057   3.103   2.151   4.781  3.1214  0.3648 -0.0588
   42CHL1   C17 3058   3.224   2.334   4.786 -0.2798  0.0683 -0.4131
   42CHL1   H17 3059   3.298   2.251   4.780  1.4844  1.6107 -0.7638
   42CHL1   C13 3060   3.246   2.431   4.662  0.1104  0.3503 -0.0668
   42CHL1   C18 3061   3.146   2.545   4.675 -0.4176  0.8703 -0.6684
   42CHL1  H18A 3062   3.050   2.504   4.715  0.7807 -0.0688  1.4117
   42CHL1  H18B 3063   3.184   2.621   4.747 -0.8618 -0.3375  0.9072
   42CHL1  H18C 3064   3.131   2.591   4.575  1.1902  1.1313 -0.8174
   42CHL1   C12 3065   3.385   2.480   4.639 -0.3358 -0.4421  0.5646
   42CHL1  H12A 3066   3.410   2.551   4.721 -1.0029 -0.2387  0.5972
   42CHL1  H12B 3067   3.457   2.397   4.625 -0.8612 -0.7001 -0.7433
   42CHL1   C11 3068   3.391   2.557   4.501  0.0286 -0.1040  0.2386
   42CHL1  H11A 3069   3.322   2.644   4.506 -1.5048 -1.2958  0.5987
   42CHL1  H11B 3070   3.492   2.600   4.492  1.4140 -3.0271  0.6449
   42CHL1    C9 3071   3.346   2.473   4.383 -0.5391  0.0213 -0.2682
   42CHL1    H9 3072   3.421   2.393   4.368  0.1981  0.7505 -0.5826
   42CHL1   C10 3073   3.354   2.544   4.237 -0.5590  0.1772  0.7875
   42CHL1   C19 3074   3.297   2.687   4.249 -0.4283 -0.1439 -0.7069
   42CHL1  H19A 3075   3.189   2.690   4.274 -1.1382 -1.5812 -3.2020
   42CHL1  H19B 3076   3.355   2.756   4.313  0.1463  1.9495 -3.2916
   42CHL1  H19C 3077   3.311   2.751   4.159 -0.8947 -0.7432 -1.2158
   42CHL1    C1 3078   3.503   2.555   4.191 -0.9383  0.5839  0.2090
   42CHL1   H1A 3079   3.563   2.621   4.257  0.4874  0.2737 -0.7305
   42CHL1   H1B 3080   3.551   2.457   4.208 -2.0472  0.2374  1.5306
   42CHL1    C2 3081   3.517   2.603   4.049 -0.0145  0.0353  0.4254
   42CHL1   H2A 3082   3.624   2.606   4.019 -0.2904  2.2758 -0.5462
   42CHL1   H2B 3083   3.488   2.707   4.021  3.1327  0.3575 -2.3269
   42CHL1   C20 3084   3.221   2.396   4.934 -0.4178 -0.7028  0.7820
   42CHL1   H20 3085   3.170   2.495   4.937 -1.5660 -1.3135  2.3341
   42CHL1   C21 3086   3.369   2.431   4.970 -0.1568  0.0128 -0.1286
   42CHL1  H21A 3087   3.417   2.333   4.993 -0.1753  0.1997  0.7605
   42CHL1  H21B 3088   3.386   2.498   5.057  2.3869 -0.1344 -0.4096
   42CHL1  H21C 3089   3.413   2.486   4.884 -3.3718  0.8804 -1.3392
   42CHL1   C22 3090   3.162   2.298   5.035  0.4845  0.1677 -0.4996
   42CHL1  H22A 3091   3.068   2.250   5.000 -0.3930  0.6625  1.0397
   42CHL1  H22B 3092   3.232   2.215   5.059  1.5792  0.8344 -1.3110
   42CHL1   C23 3093   3.152   2.363   5.177  0.1714 -0.3135  0.3575
   42CHL1  H23A 3094   3.254   2.386   5.214 -0.2129 -0.0636  1.2834
   42CHL1  H23B 3095   3.090   2.455   5.175  0.5831 -0.0342  0.5118
   42CHL1   C24 3096   3.092   2.257   5.276  0.3202  0.4558  0.3226
   42CHL1  H24A 3097   2.990   2.231   5.241  1.6640 -2.3057 -1.9224
   42CHL1  H24B 3098   3.155   2.167   5.261  0.8762  0.4050  2.5896
   42CHL1   C25 3099   3.105   2.299   5.426 -0.1819 -0.4658  0.1356
   42CHL1   H25 3100   3.044   2.392   5.430 -0.7236 -0.8496  1.1629
   42CHL1   C26 3101   3.028   2.196   5.516  0.3065 -0.3094  0.3841
   42CHL1  H26A 3102   3.041   2.238   5.618  1.1494  1.3424 -0.3624
   42CHL1  H26B 3103   2.919   2.192   5.497  0.3159  0.0913  0.2405
   42CHL1  H26C 3104   3.073   2.095   5.507 -1.0512 -0.8713 -0.3596
   42CHL1   C27 3105   3.241   2.320   5.485  0.2913  0.4108 -0.2758
   42CHL1  H27A 3106   3.237   2.386   5.574 -0.0941 -0.6053  0.4934
   42CHL1  H27B 3107   3.281   2.221   5.516 -1.1614 -0.2581 -0.4489
   42CHL1  H27C 3108   3.314   2.371   5.419  0.5493  0.1144 -0.2215
   43CHL1    C3 3109   0.898   0.735   2.975  0.3264 -0.0490  0.6850
   43CHL1    H3 3110   0.793   0.749   3.007  0.5321 -0.0693  1.3730
   43CHL1    O3 3111   0.902   0.725   2.833  0.0535  0.2797 -0.3549
   43CHL1   H3' 3112   0.992   0.737   2.803  0.1424 -1.9744 -1.2363
   43CHL1    C4 3113   0.995   0.840   3.032  0.3743 -0.0417  0.2787
   43CHL1   H4A 3114   1.097   0.821   2.993 -0.3503 -1.3668 -1.0455
   43CHL1   H4B 3115   0.980   0.941   2.988 -1.1289 -0.2255  0.3288
   43CHL1    C5 3116   0.995   0.841   3.186  0.3982  0.1276  0.3554
   43CHL1    C6 3117   0.952   0.946   3.254 -0.2925 -0.0646  0.1047
   43CHL1    H6 3118   0.926   1.034   3.193 -0.5854  0.1304  0.5085
   43CHL1    C7 3119   0.951   0.946   3.407  0.1805 -0.3481  0.1301
   43CHL1   H7A 3120   0.982   1.044   3.449  0.6779 -1.3688  2.3147
   43CHL1   H7B 3121   0.844   0.931   3.436  0.1812 -1.2816 -0.3057
   43CHL1    C8 3122   1.038   0.835   3.469 -0.0594  0.5530 -0.2413
   43CHL1    H8 3123   1.143   0.862   3.442 -0.1733  0.8042 -0.4360
   43CHL1   C14 3124   1.011   0.823   3.624 -0.5629 -0.5036  0.0300
   43CHL1   H14 3125   0.904   0.794   3.631 -1.0037  0.8661 -0.6995
   43CHL1   C15 3126   1.039   0.950   3.705  1.2374  0.2486  0.3985
   43CHL1  H15A 3127   1.118   1.019   3.668  0.4765  0.2195 -1.4038
   43CHL1  H15B 3128   0.944   1.009   3.708  0.8528 -0.3134 -0.3825
   43CHL1   C16 3129   1.070   0.899   3.848 -0.5668 -0.5642  0.4975
   43CHL1  H16A 3130   1.172   0.932   3.877 -0.5691 -1.0095  1.0154
   43CHL1  H16B 3131   0.990   0.927   3.921 -1.5208 -0.2426 -0.6293
   43CHL1   C17 3132   1.069   0.747   3.838 -0.5441  0.7350 -0.0836
   43CHL1   H17 3133   0.964   0.712   3.849 -0.2453 -0.6945 -1.4446
   43CHL1   C13 3134   1.102   0.715   3.690 -0.0676 -0.2361 -0.0367
   43CHL1   C18 3135   1.247   0.742   3.671  0.0146 -0.0563 -0.1109
   43CHL1  H18A 3136   1.317   0.669   3.717  1.2491  0.9540 -0.3254
   43CHL1  H18B 3137   1.268   0.743   3.562  1.1960  1.1387  0.0906
   43CHL1  H18C 3138   1.270   0.845   3.707 -0.5575 -0.0892  0.3753
   43CHL1   C12 3139   1.070   0.580   3.626 -0.3087 -0.4144 -0.2261
   43CHL1  H12A 3140   1.128   0.497   3.672  2.2728  0.6216 -1.3711
   43CHL1  H12B 3141   0.964   0.572   3.659 -0.2119  1.0526  0.5128
   43CHL1   C11 3142   1.076   0.572   3.471  0.1800 -0.7186  0.1191
   43CHL1  H11A 3143   1.187   0.573   3.461  0.5702  2.0668  2.9956
   43CHL1  H11B 3144   1.028   0.480   3.432 -0.4521 -0.5296  0.4422
   43CHL1    C9 3145   1.013   0.700   3.403  0.2652  0.2734  0.4562
   43CHL1    H9 3146   0.905   0.681   3.420  0.3436 -2.6093 -1.4436
   43CHL1   C10 3147   1.038   0.704   3.252 -1.1859 -0.5952  0.3726
   43CHL1   C19 3148   1.189   0.682   3.216  0.0072 -0.2097 -0.0646
   43CHL1  H19A 3149   1.243   0.770   3.258  0.0982 -1.0544  1.6996
   43CHL1  H19B 3150   1.232   0.591   3.263 -0.0321 -0.5523 -0.6917
   43CHL1  H19C 3151   1.208   0.674   3.107  0.6635 -0.8622  0.0873
   43CHL1    C1 3152   0.955   0.596   3.180 -0.3465 -0.7417 -0.0362
   43CHL1   H1A 3153   0.974   0.496   3.224  1.7210  0.1490  1.3026
   43CHL1   H1B 3154   0.853   0.607   3.222 -0.5406 -1.0018 -0.4464
   43CHL1    C2 3155   0.949   0.602   3.027  0.0137  0.2227  0.3886
   43CHL1   H2A 3156   0.881   0.527   2.981 -0.2965  0.7517 -0.0192
   43CHL1   H2B 3157   1.055   0.601   2.993  0.2077 -0.3324  0.9656
   43CHL1   C20 3158   1.135   0.669   3.949 -0.0061  0.7463 -0.5124
   43CHL1   H20 3159   1.245   0.661   3.938 -0.0094 -0.4966  0.1796
   43CHL1   C21 3160   1.091   0.515   3.956 -1.0073  0.3589 -1.0335
   43CHL1  H21A 3161   0.982   0.495   3.944 -0.5789 -1.9084 -1.6979
   43CHL1  H21B 3162   1.119   0.463   4.051  1.4305 -0.3654 -2.0893
   43CHL1  H21C 3163   1.126   0.457   3.869 -1.5200  1.0287 -1.6951
   43CHL1   C22 3164   1.110   0.740   4.089 -0.3467  0.0218 -0.3949
   43CHL1  H22A 3165   1.144   0.845   4.091 -1.5577  0.4277  1.8482
   43CHL1  H22B 3166   1.000   0.740   4.105 -0.0682  0.1441  1.7154
   43CHL1   C23 3167   1.187   0.668   4.205  0.1725  0.4385  0.9901
   43CHL1  H23A 3168   1.135   0.577   4.241  1.4802 -0.8248 -0.1758
   43CHL1  H23B 3169   1.289   0.649   4.165 -0.0317 -0.6417  0.9664
   43CHL1   C24 3170   1.211   0.759   4.324 -0.3014 -0.1404 -0.3733
   43CHL1  H24A 3171   1.264   0.851   4.294 -1.3249  0.5932  0.0203
   43CHL1  H24B 3172   1.112   0.790   4.364  0.0644  1.6700 -0.8247
   43CHL1   C25 3173   1.268   0.682   4.442  0.2094 -0.7761 -0.0514
   43CHL1   H25 3174   1.199   0.600   4.472 -0.5258 -0.1675 -0.0627
   43CHL1   C26 3175   1.395   0.611   4.408  0.0255  0.2500 -0.0508
   43CHL1  H26A 3176   1.473   0.681   4.374 -0.9630  0.4647 -2.0039
   43CHL1  H26B 3177   1.426   0.556   4.500  1.1246  1.2214  0.1907
   43CHL1  H26C 3178   1.377   0.536   4.329 -3.0368 -0.5680  1.2600
   43CHL1   C27 3179   1.288   0.783   4.557 -0.4804 -0.0311  0.1797
   43CHL1  H27A 3180   1.298   0.733   4.656  0.1106 -1.2954 -0.4996
   43CHL1  H27B 3181   1.384   0.836   4.541 -0.1339 -1.7019 -4.8270
   43CHL1  H27C 3182   1.201   0.853   4.561 -0.0906  0.6924 -2.2727
   44CHL1    C3 3183   3.346   5.191   4.289  0.1489 -0.2273 -0.5543
   44CHL1    H3 3184   3.251   5.137   4.309  0.3625 -1.0242 -1.6431
   44CHL1    O3 3185   3.379   5.155   4.161 -0.4630  0.1971  0.5834
   44CHL1   H3' 3186   3.446   5.217   4.132  0.8971 -2.0303 -1.4550
   44CHL1    C4 3187   3.331   5.346   4.302  0.5676  0.8498  0.0928
   44CHL1   H4A 3188   3.430   5.380   4.266  0.6863 -1.3514 -1.8953
   44CHL1   H4B 3189   3.257   5.388   4.231  0.5058  2.7233  1.2040
   44CHL1    C5 3190   3.323   5.399   4.439  0.5307 -0.3332  0.2300
   44CHL1    C6 3191   3.237   5.500   4.472 -1.0645 -0.0973  0.3561
   44CHL1    H6 3192   3.172   5.538   4.391  0.0611 -0.8460 -0.9459
   44CHL1    C7 3193   3.220   5.562   4.605  0.1439  0.6710 -0.0212
   44CHL1   H7A 3194   3.231   5.672   4.595 -0.5068  0.5870 -2.3685
   44CHL1   H7B 3195   3.115   5.555   4.639 -0.7811 -0.3513 -2.8180
   44CHL1    C8 3196   3.314   5.507   4.715 -0.0010 -0.2595  0.4294
   44CHL1    H8 3197   3.407   5.565   4.697  1.5506 -2.7068  0.0599
   44CHL1   C14 3198   3.257   5.519   4.856  0.5786 -0.5709 -0.6583
   44CHL1   H14 3199   3.176   5.443   4.866  1.5215 -1.3314  2.1381
   44CHL1   C15 3200   3.190   5.656   4.898  0.1696  0.2180  0.1528
   44CHL1  H15A 3201   3.252   5.742   4.864  0.2567 -0.5417 -1.6970
   44CHL1  H15B 3202   3.092   5.659   4.845 -0.0176 -2.2581  0.2690
   44CHL1   C16 3203   3.189   5.645   5.052  0.4219  0.2786  0.1619
   44CHL1  H16A 3204   3.206   5.743   5.101 -2.9254 -0.4228  3.1758
   44CHL1  H16B 3205   3.086   5.617   5.084  0.2775 -0.9975 -1.2871
   44CHL1   C17 3206   3.282   5.525   5.096  0.3348  0.4812 -0.1937
   44CHL1   H17 3207   3.212   5.440   5.112  0.6685  0.1725 -0.3602
   44CHL1   C13 3208   3.361   5.491   4.966 -0.2171  0.0880  0.2220
   44CHL1   C18 3209   3.480   5.585   4.968  0.0803 -0.6437 -0.2195
   44CHL1  H18A 3210   3.531   5.585   4.869  1.9474  1.8711  0.6349
   44CHL1  H18B 3211   3.452   5.690   4.990  2.3010 -0.1323  0.4035
   44CHL1  H18C 3212   3.561   5.558   5.040  1.8435 -1.6285 -2.4320
   44CHL1   C12 3213   3.404   5.339   4.941 -0.1670 -0.8550  0.1961
   44CHL1  H12A 3214   3.473   5.294   5.017  0.4214  0.6628  0.5957
   44CHL1  H12B 3215   3.313   5.277   4.954 -1.1987  0.9415  2.0633
   44CHL1   C11 3216   3.458   5.319   4.802  0.0714  0.4501  0.7472
   44CHL1  H11A 3217   3.556   5.371   4.798  0.2025  0.1870  0.4660
   44CHL1  H11B 3218   3.482   5.212   4.788 -0.9032  0.2329  0.6803
   44CHL1    C9 3219   3.361   5.357   4.689  0.1040 -0.7501 -0.2021
   44CHL1    H9 3220   3.265   5.302   4.701 -1.1968  0.9533 -2.0549
   44CHL1   C10 3221   3.408   5.325   4.547 -0.5528  0.0723 -0.4894
   44CHL1   C19 3222   3.553   5.386   4.534 -0.3076 -0.0955 -0.5653
   44CHL1  H19A 3223   3.598   5.366   4.435  1.8688  2.2601 -0.1758
   44CHL1  H19B 3224   3.546   5.497   4.546 -1.3394 -0.2432  0.4437
   44CHL1  H19C 3225   3.622   5.343   4.610  1.3345  0.5748 -1.6256
   44CHL1    C1 3226   3.417   5.181   4.527 -0.4527  0.8410 -0.2454
   44CHL1   H1A 3227   3.499   5.141   4.591 -1.1833  0.7832  0.6737
   44CHL1   H1B 3228   3.321   5.129   4.548  0.1567  0.3818  1.5335
   44CHL1    C2 3229   3.449   5.129   4.390 -0.7323 -0.0482 -0.1642
   44CHL1   H2A 3230   3.442   5.018   4.384 -0.6566 -0.0945  0.5551
   44CHL1   H2B 3231   3.553   5.155   4.362 -0.5339  4.1515  3.3390
   44CHL1   C20 3232   3.354   5.547   5.235  0.6474 -1.1775  0.4255
   44CHL1   H20 3233   3.417   5.639   5.238 -1.1709  0.1173  2.2103
   44CHL1   C21 3234   3.448   5.426   5.277  0.1929  0.2949  0.0543
   44CHL1  H21A 3235   3.470   5.437   5.385  2.5373  3.9906 -0.6193
   44CHL1  H21B 3236   3.539   5.419   5.214  0.3224  2.7125 -0.0950
   44CHL1  H21C 3237   3.395   5.329   5.270 -0.1929  0.4826  0.3695
   44CHL1   C22 3238   3.248   5.570   5.350 -0.0052  0.6479  0.4848
   44CHL1  H22A 3239   3.146   5.563   5.306  0.1258  1.5277  0.0085
   44CHL1  H22B 3240   3.246   5.482   5.417  1.8422 -0.8586 -1.3087
   44CHL1   C23 3241   3.255   5.703   5.430 -0.0704 -0.2608  0.8480
   44CHL1  H23A 3242   3.354   5.698   5.480 -0.3359 -3.1896  1.2636
   44CHL1  H23B 3243   3.253   5.787   5.358  1.5690  0.4236  1.5561
   44CHL1   C24 3244   3.156   5.723   5.537  0.2061 -0.1208  0.8659
   44CHL1  H24A 3245   3.058   5.714   5.485 -0.5972  2.5466  1.7126
   44CHL1  H24B 3246   3.164   5.642   5.612  2.6494 -0.7453  0.0130
   44CHL1   C25 3247   3.159   5.866   5.607 -0.1831  0.5658  0.6281
   44CHL1   H25 3248   3.264   5.878   5.643  0.0915 -2.2043  0.9585
   44CHL1   C26 3249   3.124   5.972   5.509 -0.3297 -0.4521 -0.2167
   44CHL1  H26A 3250   3.083   6.060   5.565 -1.1020 -1.3057  0.5958
   44CHL1  H26B 3251   3.206   6.000   5.440 -1.1509 -0.4788 -1.2318
   44CHL1  H26C 3252   3.044   5.944   5.438 -0.9572  1.2829 -0.2398
   44CHL1   C27 3253   3.059   5.874   5.720  0.2793  1.0335 -0.3511
   44CHL1  H27A 3254   2.968   5.813   5.702 -0.0194  0.5417  2.4241
   44CHL1  H27B 3255   3.106   5.820   5.804  0.3261 -0.6966 -1.4391
   44CHL1  H27C 3256   3.038   5.976   5.759  0.4710  0.3870  1.4963
   45CHL1    C3 3257   4.430   3.063   4.298 -0.0899 -0.5624  0.0358
   45CHL1    H3 3258   4.334   3.009   4.312 -0.9585  1.0137  0.3544
   45CHL1    O3 3259   4.463   3.053   4.165 -0.0096  0.0781  0.6857
   45CHL1   H3' 3260   4.382   3.076   4.120 -0.4491 -0.5222  1.1615
   45CHL1    C4 3261   4.418   3.211   4.342  0.6977 -0.2323  0.2587
   45CHL1   H4A 3262   4.514   3.258   4.310 -0.8465  2.1781 -1.1859
   45CHL1   H4B 3263   4.333   3.258   4.288 -1.3918 -1.1047  2.5885
   45CHL1    C5 3264   4.393   3.227   4.490 -0.2406  0.3262 -0.4073
   45CHL1    C6 3265   4.290   3.309   4.533 -0.3207 -0.3582 -0.6418
   45CHL1    H6 3266   4.235   3.372   4.461 -1.9035 -1.3851 -0.3727
   45CHL1    C7 3267   4.249   3.344   4.673  0.7037 -0.0150  0.0761
   45CHL1   H7A 3268   4.233   3.451   4.698 -1.4997 -0.2434 -0.1144
   45CHL1   H7B 3269   4.159   3.286   4.703  2.1673 -1.8309  1.1727
   45CHL1    C8 3270   4.357   3.286   4.772  0.2017  0.0470  0.0313
   45CHL1    H8 3271   4.448   3.350   4.778  0.7179 -0.4890 -1.5666
   45CHL1   C14 3272   4.299   3.268   4.915  0.1835 -0.4339  0.0905
   45CHL1   H14 3273   4.227   3.184   4.905 -2.2660  1.1873  2.6384
   45CHL1   C15 3274   4.219   3.381   4.977  0.0521  0.2533  0.3443
   45CHL1  H15A 3275   4.288   3.468   4.971  0.5345 -0.1383  0.0871
   45CHL1  H15B 3276   4.125   3.411   4.927  0.4719 -0.9085 -1.2407
   45CHL1   C16 3277   4.198   3.335   5.117  0.4468 -0.5574  0.1524
   45CHL1  H16A 3278   4.236   3.415   5.184  0.4109 -0.8326  0.5029
   45CHL1  H16B 3279   4.096   3.298   5.142  1.4545 -2.1165  2.1918
   45CHL1   C17 3280   4.293   3.215   5.143  0.3675  0.3976  0.0899
   45CHL1   H17 3281   4.232   3.122   5.137  0.8675 -0.0917  1.9332
   45CHL1   C13 3282   4.394   3.226   5.025 -1.0121  0.7405 -0.5788
   45CHL1   C18 3283   4.508   3.326   5.062 -0.1413 -0.4167 -0.1495
   45CHL1  H18A 3284   4.562   3.363   4.972 -1.3139 -0.1408 -0.7507
   45CHL1  H18B 3285   4.475   3.419   5.112  1.4277  0.1112 -0.0295
   45CHL1  H18C 3286   4.583   3.283   5.133  1.6609  0.1243 -1.6493
   45CHL1   C12 3287   4.454   3.084   4.978 -0.0746  0.2955  0.9017
   45CHL1  H12A 3288   4.523   3.047   5.057 -0.3006 -0.3355  0.8086
   45CHL1  H12B 3289   4.366   3.017   4.966 -0.1400  0.2727  1.4705
   45CHL1   C11 3290   4.516   3.092   4.829  0.0662  0.0957 -1.1220
   45CHL1  H11A 3291   4.596   3.169   4.839 -1.0329  0.9732  1.7877
   45CHL1  H11B 3292   4.552   2.993   4.794  0.1891 -0.2561 -0.0196
   45CHL1    C9 3293   4.420   3.148   4.725  0.0214  0.4636 -0.2842
   45CHL1    H9 3294   4.342   3.070   4.713 -0.2476  1.0176 -2.7169
   45CHL1   C10 3295   4.483   3.147   4.582 -0.1132  0.3378 -0.1464
   45CHL1   C19 3296   4.614   3.228   4.584 -0.5817  0.0317 -0.5674
   45CHL1  H19A 3297   4.605   3.330   4.628 -1.1871  1.3050 -3.3537
   45CHL1  H19B 3298   4.685   3.169   4.645  0.4709 -0.0099 -1.7657
   45CHL1  H19C 3299   4.663   3.248   4.486  1.2772  1.2512  0.5512
   45CHL1    C1 3300   4.500   2.998   4.529 -0.1520  0.4195  0.2764
   45CHL1   H1A 3301   4.578   2.937   4.581 -0.1768  0.7562  0.7074
   45CHL1   H1B 3302   4.400   2.951   4.538  0.0431  0.0302  0.4642
   45CHL1    C2 3303   4.535   2.996   4.381 -0.1493  0.9708  0.3728
   45CHL1   H2A 3304   4.535   2.892   4.341  1.0174  1.3081 -0.5752
   45CHL1   H2B 3305   4.636   3.040   4.364  0.3032 -0.9708 -2.9470
   45CHL1   C20 3306   4.338   3.214   5.294 -0.0235 -0.2307  0.3255
   45CHL1   H20 3307   4.406   3.300   5.315 -2.4214  1.4680  1.5593
   45CHL1   C21 3308   4.422   3.086   5.323  0.1240 -0.2888 -0.1520
   45CHL1  H21A 3309   4.360   2.994   5.323 -1.1375  0.4721  2.5621
   45CHL1  H21B 3310   4.485   3.096   5.413  1.2399 -2.8064 -0.5630
   45CHL1  H21C 3311   4.497   3.067   5.243 -1.6422 -1.4246 -1.6228
   45CHL1   C22 3312   4.216   3.233   5.392 -0.3390  0.0517  0.8572
   45CHL1  H22A 3313   4.163   3.330   5.386  1.8482  1.5130  3.0825
   45CHL1  H22B 3314   4.143   3.155   5.362  0.3115 -0.4890  0.6466
   45CHL1   C23 3315   4.229   3.211   5.539  0.6296 -0.5719  0.4110
   45CHL1  H23A 3316   4.249   3.103   5.552 -1.5624 -1.2214 -0.9342
   45CHL1  H23B 3317   4.304   3.273   5.592 -0.8671  0.1534  1.7760
   45CHL1   C24 3318   4.096   3.244   5.602 -0.4010  0.3298  0.1117
   45CHL1  H24A 3319   4.079   3.353   5.596 -2.0608  0.1513  0.9917
   45CHL1  H24B 3320   4.018   3.179   5.557 -0.2648 -0.7837  1.4070
   45CHL1   C25 3321   4.088   3.228   5.757  0.2081 -0.3055 -0.1059
   45CHL1   H25 3322   4.152   3.306   5.802  1.4305 -2.3590  1.9218
   45CHL1   C26 3323   3.944   3.259   5.803 -0.5851  0.3190 -0.1108
   45CHL1  H26A 3324   3.918   3.365   5.785  0.0029  0.4656 -0.1295
   45CHL1  H26B 3325   3.878   3.194   5.742 -1.5725  1.9035 -0.7986
   45CHL1  H26C 3326   3.937   3.237   5.912 -1.0803  0.4574 -0.1136
   45CHL1   C27 3327   4.137   3.091   5.813 -0.6512 -0.2551 -0.1285
   45CHL1  H27A 3328   4.243   3.074   5.786 -0.5317 -2.8340  1.6179
   45CHL1  H27B 3329   4.135   3.083   5.924  1.3126  2.3751  0.2013
   45CHL1  H27C 3330   4.091   3.005   5.759  2.7616 -1.6593 -1.0817
   46CHL1    C3 3331   6.405   1.985   3.562  0.4205 -0.5932 -0.2215
   46CHL1    H3 3332   6.489   1.919   3.534  0.5872  0.1207 -1.4899
   46CHL1    O3 3333   6.327   2.010   3.446 -0.5642 -0.3562  0.3730
   46CHL1   H3' 3334   6.266   2.081   3.469 -0.9512 -0.3173 -0.6780
   46CHL1    C4 3335   6.314   1.919   3.665  0.1474 -0.2593  0.7249
   46CHL1   H4A 3336   6.220   1.978   3.675  1.1003  1.6349 -0.6820
   46CHL1   H4B 3337   6.284   1.820   3.626 -0.0269  0.5424 -1.3158
   46CHL1    C5 3338   6.378   1.924   3.799 -0.1523 -0.2265 -0.4108
   46CHL1    C6 3339   6.381   1.814   3.873  0.0022 -0.2808 -0.1393
   46CHL1    H6 3340   6.337   1.722   3.830 -1.4383 -0.3605  1.4086
   46CHL1    C7 3341   6.433   1.817   4.014  0.2939  0.1293 -0.5638
   46CHL1   H7A 3342   6.367   1.757   4.080 -1.2176  1.3724 -0.8958
   46CHL1   H7B 3343   6.538   1.778   4.017 -0.3172 -1.5196  0.7749
   46CHL1    C8 3344   6.439   1.956   4.077  0.5306 -0.8399  0.2441
   46CHL1    H8 3345   6.334   1.985   4.098 -0.5076 -2.5709 -2.0697
   46CHL1   C14 3346   6.519   1.957   4.207  0.7521  0.2339  0.1039
   46CHL1   H14 3347   6.619   1.918   4.178  1.0764 -0.0931  1.5866
   46CHL1   C15 3348   6.475   1.856   4.314 -0.0912  0.3360  0.2231
   46CHL1  H15A 3349   6.365   1.837   4.314 -0.1861  0.4079  2.9160
   46CHL1  H15B 3350   6.511   1.751   4.300  0.2806  0.4310  0.4531
   46CHL1   C16 3351   6.520   1.921   4.444 -0.7131 -0.2708 -0.8406
   46CHL1  H16A 3352   6.434   1.943   4.512  0.0239 -0.8703  0.3154
   46CHL1  H16B 3353   6.583   1.844   4.493  0.7853  1.0670 -0.6088
   46CHL1   C17 3354   6.603   2.043   4.411  0.4836 -0.2234  0.1605
   46CHL1   H17 3355   6.702   2.004   4.380 -0.6390 -2.1841 -1.1575
   46CHL1   C13 3356   6.540   2.092   4.272  0.7417 -0.6476 -0.1276
   46CHL1   C18 3357   6.412   2.167   4.300  0.3689  0.2619 -0.0784
   46CHL1  H18A 3358   6.339   2.161   4.216  1.0113 -3.6144 -0.5629
   46CHL1  H18B 3359   6.357   2.121   4.385 -0.0572 -0.4827 -0.7333
   46CHL1  H18C 3360   6.439   2.271   4.329 -1.4915  1.3113 -1.8056
   46CHL1   C12 3361   6.632   2.164   4.177 -0.5696  0.3282  0.2590
   46CHL1  H12A 3362   6.640   2.268   4.215  2.8902  0.7869 -1.3448
   46CHL1  H12B 3363   6.726   2.107   4.170 -0.7189  0.1225 -0.0755
   46CHL1   C11 3364   6.570   2.171   4.041 -0.7219  0.2661 -0.2898
   46CHL1  H11A 3365   6.489   2.247   4.043  1.9154  3.2693 -0.9388
   46CHL1  H11B 3366   6.644   2.209   3.968 -1.7562  1.7043 -0.6103
   46CHL1    C9 3367   6.520   2.040   3.975 -0.1670 -0.1667 -0.0365
   46CHL1    H9 3368   6.604   1.975   3.946 -0.3043 -0.6134  0.5543
   46CHL1   C10 3369   6.444   2.059   3.842 -0.1457 -0.0886  0.0606
   46CHL1   C19 3370   6.325   2.162   3.857  0.1896 -0.5522  0.0814
   46CHL1  H19A 3371   6.263   2.145   3.947 -0.5710  1.6042  0.0398
   46CHL1  H19B 3372   6.359   2.266   3.876  0.3096 -0.4264 -0.7601
   46CHL1  H19C 3373   6.252   2.162   3.773 -0.0309 -2.2821  0.2362
   46CHL1    C1 3374   6.545   2.102   3.731 -0.0717 -0.3587  0.3585
   46CHL1   H1A 3375   6.605   2.191   3.761  0.8682 -1.7077  2.7586
   46CHL1   H1B 3376   6.624   2.026   3.710 -0.5984 -0.9672  0.5704
   46CHL1    C2 3377   6.482   2.114   3.595 -0.2262 -0.4024  0.1585
   46CHL1   H2A 3378   6.557   2.147   3.520 -0.2893 -0.5616  0.0237
   46CHL1   H2B 3379   6.418   2.204   3.602  0.3076 -0.0983  1.4152
   46CHL1   C20 3380   6.620   2.148   4.522 -0.4532 -0.3768 -0.6172
   46CHL1   H20 3381   6.526   2.205   4.531 -0.3095  0.1204 -2.0510
   46CHL1   C21 3382   6.737   2.243   4.482 -0.5433 -0.1801  0.0384
   46CHL1  H21A 3383   6.823   2.182   4.448  0.4241  0.6093  0.9795
   46CHL1  H21B 3384   6.776   2.297   4.571  2.1617  0.5374 -1.4926
   46CHL1  H21C 3385   6.711   2.319   4.405 -0.6163 -0.0495  0.1896
   46CHL1   C22 3386   6.645   2.083   4.666 -0.3985  0.4573  0.6178
   46CHL1  H22A 3387   6.566   2.009   4.689  0.7404 -0.7507  0.7319
   46CHL1  H22B 3388   6.740   2.027   4.663  0.6895  2.2384 -0.2511
   46CHL1   C23 3389   6.651   2.173   4.786  0.2051 -0.8023 -0.1651
   46CHL1  H23A 3390   6.736   2.245   4.788  0.9030 -1.6020 -0.2772
   46CHL1  H23B 3391   6.552   2.223   4.790 -0.8325 -2.8208  2.7259
   46CHL1   C24 3392   6.664   2.101   4.924  0.1731 -0.3663  0.0021
   46CHL1  H24A 3393   6.578   2.031   4.916  0.0426 -0.0939 -1.2998
   46CHL1  H24B 3394   6.751   2.034   4.907 -0.0751 -1.0632  1.3736
   46CHL1   C25 3395   6.677   2.189   5.050 -0.6074 -0.0353 -0.5692
   46CHL1   H25 3396   6.764   2.258   5.044  0.5417 -1.3476  0.4812
   46CHL1   C26 3397   6.551   2.262   5.080  0.6984 -0.6507 -0.1108
   46CHL1  H26A 3398   6.457   2.208   5.105  0.0732  0.5418  0.1927
   46CHL1  H26B 3399   6.568   2.335   5.162 -0.5947  1.6754 -1.7895
   46CHL1  H26C 3400   6.516   2.327   4.998  1.4445 -0.9828 -0.7102
   46CHL1   C27 3401   6.716   2.100   5.168 -0.5844 -0.6803  0.0007
   46CHL1  H27A 3402   6.746   2.162   5.255 -1.7712  0.5359 -0.4060
   46CHL1  H27B 3403   6.628   2.036   5.188 -0.2880 -1.1476 -0.1907
   46CHL1  H27C 3404   6.795   2.027   5.144  0.1467 -0.5175  1.7507
   47CHL1    C3 3405   5.945   0.084   3.456  0.0803 -0.4482  0.3404
   47CHL1    H3 3406   5.966   0.179   3.509 -1.3881  0.3845 -0.5286
   47CHL1    O3 3407   5.979   0.087   3.317  0.2769  0.5175  0.5272
   47CHL1   H3' 3408   6.074   0.076   3.313  0.1879 -1.2076  1.8492
   47CHL1    C4 3409   6.031  -0.027   3.516 -0.3604 -0.9198  0.6092
   47CHL1   H4A 3410   6.037  -0.119   3.454 -0.5482 -0.5906  0.0966
   47CHL1   H4B 3411   6.135   0.009   3.499 -0.6421 -1.1464 -2.0357
   47CHL1    C5 3412   5.994  -0.048   3.663 -0.1215 -1.1740  0.9320
   47CHL1    C6 3413   6.082  -0.018   3.764 -0.4651  0.6712  0.4210
   47CHL1    H6 3414   6.188  -0.008   3.739 -0.3421 -1.2714  0.0126
   47CHL1    C7 3415   6.067  -0.023   3.911  0.0826  1.2478 -0.1252
   47CHL1   H7A 3416   6.149  -0.084   3.953  0.1921  1.8389  0.5312
   47CHL1   H7B 3417   6.087   0.076   3.958  1.2936  1.0308 -0.1534
   47CHL1    C8 3418   5.926  -0.090   3.946 -0.3293 -0.1483 -1.0568
   47CHL1    H8 3419   5.927  -0.201   3.938 -2.0637 -0.4140  1.3009
   47CHL1   C14 3420   5.891  -0.057   4.094 -0.2983  0.1477 -0.5224
   47CHL1   H14 3421   5.876   0.053   4.092 -0.7016  0.1132 -3.0348
   47CHL1   C15 3422   5.997  -0.097   4.203 -0.5341  0.0912 -0.2068
   47CHL1  H15A 3423   6.034  -0.202   4.193 -1.8776 -0.4115 -0.1114
   47CHL1  H15B 3424   6.085  -0.029   4.204  0.3803 -1.0307 -0.6548
   47CHL1   C16 3425   5.910  -0.071   4.329 -0.3843  0.2835  0.1150
   47CHL1  H16A 3426   5.941  -0.146   4.404 -1.6772 -1.8832 -1.4148
   47CHL1  H16B 3427   5.947   0.025   4.371  3.8348 -1.5545  1.1558
   47CHL1   C17 3428   5.754  -0.063   4.292 -0.5665  0.6759  0.6061
   47CHL1   H17 3429   5.734   0.046   4.300  0.6749  0.8015  2.5427
   47CHL1   C13 3430   5.758  -0.111   4.138  0.4863 -0.5531  0.2950
   47CHL1   C18 3431   5.757  -0.266   4.123 -0.0364 -0.1458  0.4442
   47CHL1  H18A 3432   5.657  -0.305   4.152  0.4408  0.6376  3.4313
   47CHL1  H18B 3433   5.778  -0.310   4.023 -0.6848  1.1919 -0.3153
   47CHL1  H18C 3434   5.826  -0.312   4.196  1.0410 -1.8633 -1.5722
   47CHL1   C12 3435   5.662  -0.041   4.050  0.4028  0.4492 -0.1519
   47CHL1  H12A 3436   5.561  -0.074   4.084  1.1735 -1.1168  0.6929
   47CHL1  H12B 3437   5.666   0.070   4.059 -0.7773  0.5505 -0.6473
   47CHL1   C11 3438   5.680  -0.067   3.903  0.3574  0.4266  0.0530
   47CHL1  H11A 3439   5.645  -0.171   3.888 -2.1448  1.1706  0.3321
   47CHL1  H11B 3440   5.608  -0.007   3.843 -1.6267 -2.2365 -0.4125
   47CHL1    C9 3441   5.824  -0.033   3.856  0.2177  0.7360 -0.1896
   47CHL1    H9 3442   5.833   0.076   3.876 -0.0294  1.1294 -2.0826
   47CHL1   C10 3443   5.845  -0.058   3.699  0.4791  0.6684 -0.3222
   47CHL1   C19 3444   5.798  -0.204   3.667  0.0351  0.2295  0.4644
   47CHL1  H19A 3445   5.836  -0.233   3.567 -0.6064 -0.0647  0.3022
   47CHL1  H19B 3446   5.845  -0.270   3.743 -0.8455  0.7700  1.5194
   47CHL1  H19C 3447   5.687  -0.203   3.662  0.0251  3.5150 -1.8168
   47CHL1    C1 3448   5.759   0.046   3.622 -0.3153  0.2859  0.1144
   47CHL1   H1A 3449   5.650   0.030   3.638 -0.6823  0.7354 -1.6792
   47CHL1   H1B 3450   5.772   0.142   3.676 -1.4207 -0.4231  1.7419
   47CHL1    C2 3451   5.791   0.060   3.474  0.2679 -0.0074  0.4008
   47CHL1   H2A 3452   5.730   0.130   3.413  0.4785  0.9153  1.2228
   47CHL1   H2B 3453   5.781  -0.037   3.421 -1.5043 -0.5514  1.6338
   47CHL1   C20 3454   5.667  -0.135   4.396 -0.0614  0.4997 -0.3082
   47CHL1   H20 3455   5.709  -0.238   4.397 -0.7685  0.1906 -0.9257
   47CHL1   C21 3456   5.525  -0.167   4.347 -0.0164  0.2452 -0.8668
   47CHL1  H21A 3457   5.467  -0.073   4.338 -1.9202 -0.9934 -2.4706
   47CHL1  H21B 3458   5.465  -0.226   4.419 -0.6477  3.0956  1.0981
   47CHL1  H21C 3459   5.511  -0.212   4.246  1.3852  0.1445 -1.0335
   47CHL1   C22 3460   5.664  -0.064   4.534 -0.6003 -0.1439  0.2433
   47CHL1  H22A 3461   5.770  -0.051   4.566 -1.5976  3.2591  2.7339
   47CHL1  H22B 3462   5.629   0.039   4.514  0.3969  0.1702  0.0768
   47CHL1   C23 3463   5.577  -0.133   4.643 -0.1077  0.4228  0.0763
   47CHL1  H23A 3464   5.581  -0.059   4.725  1.0927 -0.8117  1.1951
   47CHL1  H23B 3465   5.471  -0.142   4.611 -0.3264  1.5666  0.4541
   47CHL1   C24 3466   5.638  -0.268   4.691 -0.3854 -0.2439  0.0608
   47CHL1  H24A 3467   5.680  -0.324   4.605 -0.3403 -0.4503  0.2151
   47CHL1  H24B 3468   5.717  -0.252   4.768 -0.3034  1.5968 -0.3594
   47CHL1   C25 3469   5.542  -0.366   4.757 -0.0075 -0.3433  0.5365
   47CHL1   H25 3470   5.457  -0.360   4.685  1.1479 -0.9669 -0.9531
   47CHL1   C26 3471   5.601  -0.509   4.754 -0.2600 -0.1426  0.6535
   47CHL1  H26A 3472   5.614  -0.536   4.647  0.1788  3.2792 -0.2821
   47CHL1  H26B 3473   5.698  -0.506   4.807 -0.3772 -1.0733  0.9409
   47CHL1  H26C 3474   5.532  -0.583   4.799 -0.6906  0.6965  1.3886
   47CHL1   C27 3475   5.500  -0.320   4.897  0.3488  0.5743 -1.1379
   47CHL1  H27A 3476   5.477  -0.212   4.910  2.5642  0.9651  0.0753
   47CHL1  H27B 3477   5.416  -0.383   4.934  1.7270  0.4071  1.9830
   47CHL1  H27C 3478   5.581  -0.343   4.970 -0.3678 -0.4623 -0.6501
   48CHL1    C3 3479   3.491   3.241   4.292 -0.2002 -0.7633  0.7024
   48CHL1    H3 3480   3.582   3.296   4.322 -0.0529  0.3680 -1.6202
   48CHL1    O3 3481   3.474   3.288   4.157  0.2079  0.2858  0.7849
   48CHL1   H3' 3482   3.552   3.258   4.109  1.4350  0.6735  2.4471
   48CHL1    C4 3483   3.501   3.088   4.308 -0.0019 -0.3785 -0.8486
   48CHL1   H4A 3484   3.434   3.035   4.237 -0.9393 -1.2387  0.6362
   48CHL1   H4B 3485   3.606   3.066   4.280  0.5142 -0.9984  1.4322
   48CHL1    C5 3486   3.492   3.040   4.455 -0.5329 -0.3049 -0.2734
   48CHL1    C6 3487   3.592   2.969   4.511 -0.1635  0.0300 -0.2108
   48CHL1    H6 3488   3.682   2.942   4.454 -0.0429  2.1597 -1.1375
   48CHL1    C7 3489   3.599   2.924   4.650  0.1017 -0.1781  0.9164
   48CHL1   H7A 3490   3.614   2.814   4.645  0.1346 -0.1181 -1.5072
   48CHL1   H7B 3491   3.677   2.982   4.705 -0.5448  1.7560 -0.1242
   48CHL1    C8 3492   3.463   2.933   4.723 -0.0290 -0.1258  0.1930
   48CHL1    H8 3493   3.402   2.848   4.687  2.1394 -0.7758 -2.2318
   48CHL1   C14 3494   3.480   2.919   4.874 -1.1962  0.8420  0.0156
   48CHL1   H14 3495   3.552   2.996   4.907 -0.9934 -0.0947  1.9011
   48CHL1   C15 3496   3.556   2.790   4.921  0.0778  0.2193 -0.1519
   48CHL1  H15A 3497   3.525   2.693   4.877  0.8565 -1.2881  2.4166
   48CHL1  H15B 3498   3.665   2.803   4.902 -0.5576  1.2477 -3.7892
   48CHL1   C16 3499   3.528   2.796   5.073 -0.1987 -0.3414 -0.0641
   48CHL1  H16A 3500   3.496   2.697   5.111 -1.3366  0.2902  0.6640
   48CHL1  H16B 3501   3.621   2.830   5.122 -1.1743 -1.2622  2.5646
   48CHL1   C17 3502   3.433   2.916   5.106  0.1029 -0.4605  0.7499
   48CHL1   H17 3503   3.496   3.008   5.117 -1.1460  0.3073  1.7808
   48CHL1   C13 3504   3.362   2.933   4.964  0.3896  0.1401  0.4495
   48CHL1   C18 3505   3.249   2.832   4.940 -0.3194 -0.1640 -0.2534
   48CHL1  H18A 3506   3.171   2.843   5.017  1.0995 -1.2590  1.4120
   48CHL1  H18B 3507   3.200   2.843   4.841  0.7750  2.5411 -0.5859
   48CHL1  H18C 3508   3.286   2.728   4.932  1.8048  0.6103 -1.3487
   48CHL1   C12 3509   3.308   3.072   4.945 -0.5255 -0.2914  0.8282
   48CHL1  H12A 3510   3.217   3.094   5.004 -0.9354  2.2049 -0.6026
   48CHL1  H12B 3511   3.390   3.140   4.975  0.4396 -0.5086 -1.1288
   48CHL1   C11 3512   3.280   3.110   4.791  0.5084 -0.0633 -1.0213
   48CHL1  H11A 3513   3.188   3.055   4.763  0.9023 -0.0670 -2.3849
   48CHL1  H11B 3514   3.248   3.216   4.790 -1.8625 -0.7120  0.0923
   48CHL1    C9 3515   3.399   3.073   4.701  0.0510  0.3295 -0.0804
   48CHL1    H9 3516   3.473   3.146   4.740 -0.9562  1.0484  0.5276
   48CHL1   C10 3517   3.379   3.102   4.545  0.2036 -0.1630 -0.3676
   48CHL1   C19 3518   3.241   3.037   4.505  0.1382 -0.3352  0.0725
   48CHL1  H19A 3519   3.216   3.042   4.397 -2.1572 -1.8107  0.4690
   48CHL1  H19B 3520   3.234   2.931   4.536  1.7699 -0.8801 -1.2575
   48CHL1  H19C 3521   3.163   3.098   4.555 -0.0978 -0.3761 -0.2462
   48CHL1    C1 3522   3.382   3.255   4.525  0.3716  0.0454 -0.0101
   48CHL1   H1A 3523   3.289   3.299   4.567 -2.2750 -0.6153 -4.5313
   48CHL1   H1B 3524   3.471   3.305   4.570 -0.4387  0.8809  0.7225
   48CHL1    C2 3525   3.368   3.287   4.372 -0.3943 -0.5328  0.2278
   48CHL1   H2A 3526   3.350   3.395   4.355 -1.4373 -0.9697 -1.6834
   48CHL1   H2B 3527   3.280   3.243   4.321 -0.4685  1.0257 -1.0762
   48CHL1   C20 3528   3.364   2.913   5.237  0.3794 -0.4165 -0.1378
   48CHL1   H20 3529   3.282   2.840   5.252 -0.2602  0.6341  1.7135
   48CHL1   C21 3530   3.298   3.050   5.284  0.5020  0.0372  0.3892
   48CHL1  H21A 3531   3.279   3.051   5.393  0.1312  2.5032  0.3489
   48CHL1  H21B 3532   3.195   3.067   5.247  0.9996  0.5340 -0.8461
   48CHL1  H21C 3533   3.368   3.135   5.264  0.8395 -0.1359  0.8208
   48CHL1   C22 3534   3.451   2.867   5.357 -0.2440  0.3513  0.4047
   48CHL1  H22A 3535   3.398   2.859   5.454  0.3442 -4.9373  0.5857
   48CHL1  H22B 3536   3.473   2.759   5.347  0.3098  0.5139 -0.1879
   48CHL1   C23 3537   3.583   2.946   5.391  0.2999  0.7354 -0.1899
   48CHL1  H23A 3538   3.641   2.970   5.299  2.1440 -2.4612  0.0029
   48CHL1  H23B 3539   3.563   3.046   5.435  2.1665  1.6904 -1.3576
   48CHL1   C24 3540   3.678   2.855   5.478 -0.4383 -1.0475  0.3508
   48CHL1  H24A 3541   3.621   2.826   5.569  1.3428 -0.7196  1.6213
   48CHL1  H24B 3542   3.699   2.760   5.424  0.4629 -2.4933  3.0633
   48CHL1   C25 3543   3.815   2.912   5.515  0.0287  0.1951 -0.6410
   48CHL1   H25 3544   3.787   3.001   5.575 -0.3266  0.1045 -0.6695
   48CHL1   C26 3545   3.902   2.809   5.590  0.0383  0.2870 -0.0116
   48CHL1  H26A 3546   3.938   2.722   5.531  3.3599  0.9023  0.8730
   48CHL1  H26B 3547   3.994   2.869   5.608  0.9591 -0.1560 -2.6892
   48CHL1  H26C 3548   3.849   2.767   5.678 -0.2773 -0.9689 -0.7764
   48CHL1   C27 3549   3.899   2.959   5.398  0.2062  0.1553 -0.0742
   48CHL1  H27A 3550   3.854   3.047   5.347  0.9658  0.2702 -0.5685
   48CHL1  H27B 3551   4.007   2.973   5.422  0.3246 -1.7152  0.6027
   48CHL1  H27C 3552   3.896   2.874   5.326  2.1424 -1.6207  1.7822
   49CHL1    C3 3553   1.372   0.602   5.094 -0.2146  1.0891 -0.1423
   49CHL1    H3 3554   1.469   0.614   5.147 -0.3475 -3.2745  1.4636
   49CHL1    O3 3555   1.285   0.714   5.109  0.2544 -0.3135 -0.0536
   49CHL1   H3' 3556   1.209   0.701   5.052  0.0117  0.6193  0.0443
   49CHL1    C4 3557   1.404   0.584   4.935  0.1637  0.3086 -0.1561
   49CHL1   H4A 3558   1.304   0.584   4.888 -0.6199 -2.2833  1.3386
   49CHL1   H4B 3559   1.463   0.672   4.900  0.0943  0.3486 -0.1731
   49CHL1    C5 3560   1.469   0.450   4.898 -0.2757 -0.1959  0.2913
   49CHL1    C6 3561   1.588   0.438   4.828  0.9187 -0.0522  0.2108
   49CHL1    H6 3562   1.640   0.529   4.794 -1.3974  1.3118  0.0711
   49CHL1    C7 3563   1.652   0.303   4.798  0.5514 -0.4543  0.2299
   49CHL1   H7A 3564   1.675   0.284   4.691  0.1996 -3.2698  0.5712
   49CHL1   H7B 3565   1.748   0.283   4.850 -1.1519 -2.7893  2.7931
   49CHL1    C8 3566   1.563   0.180   4.832  0.2410 -0.4598  0.1788
   49CHL1    H8 3567   1.490   0.170   4.749 -0.0206  0.6592  0.2698
   49CHL1   C14 3568   1.661   0.061   4.843  0.1802 -0.3557  0.4454
   49CHL1   H14 3569   1.722   0.071   4.935  1.4009 -2.3584 -0.0734
   49CHL1   C15 3570   1.776   0.034   4.749  0.4210 -0.3442 -0.7323
   49CHL1  H15A 3571   1.751   0.061   4.644  1.3211  1.3925 -0.5260
   49CHL1  H15B 3572   1.852   0.102   4.792 -1.2517  1.6498 -0.7369
   49CHL1   C16 3573   1.814  -0.112   4.767 -0.0089 -0.0011 -0.0173
   49CHL1  H16A 3574   1.802  -0.167   4.671 -0.5498 -1.9116  1.0950
   49CHL1  H16B 3575   1.922  -0.113   4.793  0.0194  0.0837 -0.1300
   49CHL1   C17 3576   1.718  -0.177   4.872  0.1397  0.1399 -0.5070
   49CHL1   H17 3577   1.766  -0.170   4.972 -0.3602  1.9975 -0.3651
   49CHL1   C13 3578   1.596  -0.078   4.871  0.0870  0.0575  0.6500
   49CHL1   C18 3579   1.510  -0.120   4.745  0.3417  0.0601 -0.5338
   49CHL1  H18A 3580   1.426  -0.049   4.734  1.9380  2.2909  0.7610
   49CHL1  H18B 3581   1.564  -0.133   4.649  0.8752  1.4862 -0.4513
   49CHL1  H18C 3582   1.445  -0.205   4.777 -1.9316  2.7233  2.6814
   49CHL1   C12 3583   1.513  -0.057   5.006  0.7367 -0.1887  0.1027
   49CHL1  H12A 3584   1.444  -0.142   5.023 -0.6188  1.2255  2.0766
   49CHL1  H12B 3585   1.589  -0.058   5.087  1.3772 -0.0937 -0.4873
   49CHL1   C11 3586   1.416   0.066   4.996 -0.1535 -0.0250  0.3283
   49CHL1  H11A 3587   1.348   0.045   4.910  0.7582 -0.8878 -0.2120
   49CHL1  H11B 3588   1.369   0.072   5.096 -0.0494  2.5151  0.2809
   49CHL1    C9 3589   1.483   0.195   4.956  0.8433 -0.8839  0.2138
   49CHL1    H9 3590   1.563   0.214   5.031 -1.2503 -1.6836  2.8013
   49CHL1   C10 3591   1.391   0.326   4.955 -0.2503  0.1266  0.3733
   49CHL1   C19 3592   1.261   0.305   4.871 -0.4045  0.7387  0.7536
   49CHL1  H19A 3593   1.192   0.392   4.860 -3.0325 -1.5168 -3.3634
   49CHL1  H19B 3594   1.279   0.267   4.768  0.6029  1.0963  0.7985
   49CHL1  H19C 3595   1.201   0.221   4.913  0.1553  0.0292  0.1647
   49CHL1    C1 3596   1.353   0.353   5.103 -0.7145 -0.2453 -0.3678
   49CHL1   H1A 3597   1.284   0.270   5.128 -1.2068  0.5099  0.8253
   49CHL1   H1B 3598   1.439   0.331   5.170 -0.0955 -0.4878 -1.2178
   49CHL1    C2 3599   1.293   0.486   5.148  0.7891 -0.2775  0.4484
   49CHL1   H2A 3600   1.283   0.493   5.258 -2.3585 -0.4119  0.2542
   49CHL1   H2B 3601   1.184   0.486   5.126  0.8913  1.3395 -0.1993
   49CHL1   C20 3602   1.699  -0.319   4.834  0.4870 -0.9761 -0.3935
   49CHL1   H20 3603   1.655  -0.336   4.734  0.0083 -0.7767 -0.2209
   49CHL1   C21 3604   1.607  -0.386   4.935  0.6574  0.3961 -0.2810
   49CHL1  H21A 3605   1.623  -0.496   4.939 -1.3054  0.0987  0.2520
   49CHL1  H21B 3606   1.504  -0.389   4.893  1.7365 -1.6668 -3.1086
   49CHL1  H21C 3607   1.625  -0.329   5.029  0.0935  0.1934 -0.0448
   49CHL1   C22 3608   1.836  -0.388   4.821 -0.0709  0.1318 -0.6365
   49CHL1  H22A 3609   1.812  -0.495   4.803  1.7653 -0.8381  2.1191
   49CHL1  H22B 3610   1.878  -0.355   4.723  0.6680  2.2068  0.3434
   49CHL1   C23 3611   1.933  -0.379   4.941  0.2429 -0.0709  0.5820
   49CHL1  H23A 3612   1.953  -0.271   4.958  0.7957 -0.2334  1.0155
   49CHL1  H23B 3613   1.873  -0.412   5.028 -0.4796  2.7496  1.2802
   49CHL1   C24 3614   2.057  -0.459   4.912  0.4126  0.2779  0.3488
   49CHL1  H24A 3615   2.024  -0.540   4.844 -2.9785  0.5544  1.4672
   49CHL1  H24B 3616   2.130  -0.393   4.861  0.9359 -1.8518 -1.7743
   49CHL1   C25 3617   2.130  -0.514   5.039  0.4629 -0.2807 -0.4543
   49CHL1   H25 3618   2.062  -0.587   5.088  0.1304  1.4772  1.9391
   49CHL1   C26 3619   2.261  -0.591   4.998  0.5201 -0.4209 -0.1125
   49CHL1  H26A 3620   2.229  -0.672   4.929 -0.4090 -2.0248  2.0855
   49CHL1  H26B 3621   2.334  -0.519   4.955 -0.2602  1.0894  0.9609
   49CHL1  H26C 3622   2.295  -0.640   5.092 -0.8143 -5.0403 -1.7873
   49CHL1   C27 3623   2.149  -0.405   5.143 -0.2788 -0.0331 -0.4185
   49CHL1  H27A 3624   2.216  -0.445   5.222 -0.1237 -0.1296 -0.5991
   49CHL1  H27B 3625   2.207  -0.323   5.096  1.6646 -1.1273 -0.0281
   49CHL1  H27C 3626   2.051  -0.370   5.182 -0.3129 -0.3591 -0.2114
   50CHL1    C3 3627   2.582   4.019   4.152 -0.4607  0.4135  0.6147
   50CHL1    H3 3628   2.580   3.912   4.182 -0.0397 -0.3747 -1.8953
   50CHL1    O3 3629   2.587   4.012   4.007  0.6614 -0.0594 -0.8472
   50CHL1   H3' 3630   2.677   3.987   3.986  0.1304 -2.9390 -0.1232
   50CHL1    C4 3631   2.457   4.087   4.196  0.5570 -0.7947 -0.5795
   50CHL1   H4A 3632   2.454   4.180   4.136  1.4627 -0.5381 -0.2412
   50CHL1   H4B 3633   2.364   4.037   4.161 -0.0147  0.3335 -0.7036
   50CHL1    C5 3634   2.455   4.114   4.346  0.0234  1.0183  0.3927
   50CHL1    C6 3635   2.346   4.071   4.417 -0.7785  0.2363  0.1819
   50CHL1    H6 3636   2.268   4.014   4.366  0.9851 -1.5608 -0.6520
   50CHL1    C7 3637   2.332   4.102   4.564  0.8809  0.1866  0.3815
   50CHL1   H7A 3638   2.232   4.145   4.583  0.8341 -0.3744  1.4566
   50CHL1   H7B 3639   2.331   4.004   4.617  0.3619 -0.7231 -1.2154
   50CHL1    C8 3640   2.435   4.207   4.616 -0.5391  0.1945 -0.2468
   50CHL1    H8 3641   2.399   4.308   4.587  0.8142  0.7843  0.0531
   50CHL1   C14 3642   2.443   4.189   4.767  0.8534 -0.0295 -0.2420
   50CHL1   H14 3643   2.473   4.083   4.780 -2.3503 -1.0257 -0.1036
   50CHL1   C15 3644   2.312   4.198   4.843  0.5205  0.0267 -0.3189
   50CHL1  H15A 3645   2.265   4.295   4.814 -0.8509 -0.9497 -1.4781
   50CHL1  H15B 3646   2.239   4.114   4.849 -1.2301  1.5746  2.3324
   50CHL1   C16 3647   2.371   4.195   4.991 -0.0630 -0.5317 -0.2406
   50CHL1  H16A 3648   2.319   4.277   5.045 -0.2084 -0.9493  0.2607
   50CHL1  H16B 3649   2.364   4.099   5.046  0.7290 -0.6063 -0.2565
   50CHL1   C17 3650   2.515   4.248   4.984 -0.1567  1.0600 -0.3626
   50CHL1   H17 3651   2.588   4.165   5.000  1.3202  2.3117 -0.4624
   50CHL1   C13 3652   2.543   4.284   4.835  0.7614  0.0224 -0.1016
   50CHL1   C18 3653   2.491   4.430   4.812  0.0377  0.6663 -0.3627
   50CHL1  H18A 3654   2.394   4.460   4.857 -0.0998  0.1568 -0.3191
   50CHL1  H18B 3655   2.564   4.504   4.854 -0.8061  2.1802 -1.4512
   50CHL1  H18C 3656   2.466   4.444   4.705  0.3473  0.3711 -0.4748
   50CHL1   C12 3657   2.688   4.256   4.781 -0.8262 -0.4686  0.8828
   50CHL1  H12A 3658   2.754   4.334   4.824  0.3867  0.0236 -1.6731
   50CHL1  H12B 3659   2.713   4.152   4.812 -1.9755 -0.3312  2.3565
   50CHL1   C11 3660   2.690   4.266   4.629  0.3162 -0.2470 -0.1460
   50CHL1  H11A 3661   2.665   4.372   4.609  2.4890  0.7294  1.7427
   50CHL1  H11B 3662   2.790   4.242   4.585  0.9946  0.7785  0.7687
   50CHL1    C9 3663   2.582   4.183   4.561 -0.1793  0.0286  1.0008
   50CHL1    H9 3664   2.614   4.082   4.593  0.5811  0.1681  0.6910
   50CHL1   C10 3665   2.576   4.185   4.404  0.8940  0.6305 -0.8348
   50CHL1   C19 3666   2.569   4.332   4.366  0.1806  0.3643  0.1206
   50CHL1  H19A 3667   2.546   4.348   4.259  3.6498  0.1545 -0.7815
   50CHL1  H19B 3668   2.490   4.388   4.420 -1.9385 -2.6365  0.3674
   50CHL1  H19C 3669   2.668   4.380   4.380  0.0115  1.1052 -1.0917
   50CHL1    C1 3670   2.707   4.121   4.345  0.0138 -0.0702  0.6688
   50CHL1   H1A 3671   2.790   4.189   4.371  0.2924 -0.8595  1.9201
   50CHL1   H1B 3672   2.727   4.024   4.395 -3.5204 -0.0765  2.4010
   50CHL1    C2 3673   2.706   4.102   4.195 -0.3474  0.1891  0.6740
   50CHL1   H2A 3674   2.796   4.045   4.162 -1.6544 -0.6748 -1.6367
   50CHL1   H2B 3675   2.691   4.200   4.145 -0.7532 -0.4805 -0.5507
   50CHL1   C20 3676   2.551   4.347   5.099  0.6085  0.5386  0.6200
   50CHL1   H20 3677   2.485   4.435   5.083 -0.7582 -0.7153 -1.0944
   50CHL1   C21 3678   2.699   4.389   5.086 -0.4854 -0.4699 -0.8019
   50CHL1  H21A 3679   2.729   4.456   5.169 -1.4649  1.1838 -1.7300
   50CHL1  H21B 3680   2.713   4.452   4.995 -2.3718  1.2961  0.0604
   50CHL1  H21C 3681   2.769   4.304   5.073  1.5574  1.1015 -0.7482
   50CHL1   C22 3682   2.526   4.295   5.244  0.2091 -0.1228  0.7967
   50CHL1  H22A 3683   2.432   4.236   5.256 -0.2910  0.2866 -0.8850
   50CHL1  H22B 3684   2.610   4.223   5.248 -0.8938 -1.6137 -1.2630
   50CHL1   C23 3685   2.532   4.403   5.354  0.5423 -0.1598 -0.3938
   50CHL1  H23A 3686   2.640   4.414   5.377  0.2027 -0.2277  1.3111
   50CHL1  H23B 3687   2.490   4.504   5.334 -1.6679 -0.9848 -0.1669
   50CHL1   C24 3688   2.469   4.348   5.486 -0.0758  0.5060  0.3645
   50CHL1  H24A 3689   2.363   4.323   5.463  0.7096 -2.9578 -0.1137
   50CHL1  H24B 3690   2.529   4.256   5.506 -1.2949 -1.5116 -4.0416
   50CHL1   C25 3691   2.467   4.441   5.611  0.5642 -0.0079 -0.2041
   50CHL1   H25 3692   2.571   4.480   5.621 -0.2389  2.3677 -0.3620
   50CHL1   C26 3693   2.372   4.562   5.592 -0.0916 -0.0894  0.2996
   50CHL1  H26A 3694   2.391   4.619   5.498  2.4314 -0.5353  0.4889
   50CHL1  H26B 3695   2.268   4.523   5.596 -0.8682  1.9677  2.4976
   50CHL1  H26C 3696   2.379   4.631   5.678 -0.5244  2.0212 -1.2700
   50CHL1   C27 3697   2.417   4.367   5.739  0.7449  1.0453 -0.5500
   50CHL1  H27A 3698   2.318   4.319   5.731  0.9109  0.9182 -2.0516
   50CHL1  H27B 3699   2.492   4.288   5.762 -0.8348 -0.4806 -0.3941
   50CHL1  H27C 3700   2.422   4.427   5.833  1.0503  2.3653 -1.3892
   51CHL1    C3 3701   4.995   5.849   3.940  0.1466 -0.0587  0.4517
   51CHL1    H3 3702   5.089   5.790   3.940  1.3965  1.7160 -2.6192
   51CHL1    O3 3703   4.907   5.814   3.833  0.3486  0.9845 -0.0251
   51CHL1   H3' 3704   4.829   5.867   3.853 -0.5454 -0.1259 -0.4596
   51CHL1    C4 3705   4.902   5.808   4.065 -0.1810  0.1143 -0.2287
   51CHL1   H4A 3706   4.802   5.842   4.031 -0.1545 -0.2409 -0.6672
   51CHL1   H4B 3707   4.906   5.697   4.067  0.2265  0.1138  1.8616
   51CHL1    C5 3708   4.956   5.871   4.200  0.0578 -0.0946 -0.3240
   51CHL1    C6 3709   4.984   5.803   4.311  0.8895  0.5873  0.0251
   51CHL1    H6 3710   4.964   5.695   4.308  1.8780  0.3134  1.8784
   51CHL1    C7 3711   5.027   5.867   4.440 -0.3128  1.3320  0.0715
   51CHL1   H7A 3712   4.985   5.823   4.533 -1.8305  2.4076 -0.0667
   51CHL1   H7B 3713   5.135   5.841   4.445 -0.3737  1.2410  4.8016
   51CHL1    C8 3714   5.018   6.018   4.437  0.4968  0.7905 -0.2837
   51CHL1    H8 3715   4.909   6.040   4.443  0.2103  0.0227 -1.9616
   51CHL1   C14 3716   5.087   6.083   4.549  0.0247  0.2439 -0.7664
   51CHL1   H14 3717   5.195   6.063   4.535 -0.0330 -0.4296 -0.2585
   51CHL1   C15 3718   5.056   6.037   4.697 -0.2888 -0.4283  0.8306
   51CHL1  H15A 3719   4.950   6.004   4.702 -0.8755  1.2288  0.2175
   51CHL1  H15B 3720   5.110   5.944   4.723  0.3821 -0.2004  0.2784
   51CHL1   C16 3721   5.085   6.159   4.779 -0.0423  0.1858 -1.0043
   51CHL1  H16A 3722   5.002   6.212   4.830  1.8334  0.7333  1.6730
   51CHL1  H16B 3723   5.159   6.138   4.859 -2.2357  1.2385  1.4901
   51CHL1   C17 3724   5.144   6.261   4.688 -0.0985 -0.6083  0.2044
   51CHL1   H17 3725   5.249   6.228   4.674 -0.1634 -0.7220 -0.0134
   51CHL1   C13 3726   5.076   6.236   4.552  0.3116  0.3014 -0.1788
   51CHL1   C18 3727   4.926   6.272   4.556  0.9402 -0.5056  0.7852
   51CHL1  H18A 3728   4.894   6.372   4.594 -0.3033  0.0622 -1.5395
   51CHL1  H18B 3729   4.879   6.266   4.455  1.0994  0.3507  0.6527
   51CHL1  H18C 3730   4.868   6.197   4.614 -1.0781  0.5667  0.2770
   51CHL1   C12 3731   5.145   6.293   4.428 -1.0722 -0.7634 -0.4168
   51CHL1  H12A 3732   5.124   6.402   4.427 -0.2049 -0.5933 -1.1931
   51CHL1  H12B 3733   5.254   6.275   4.442 -1.1423 -0.4131  0.6161
   51CHL1   C11 3734   5.093   6.230   4.297 -0.5931 -0.7935  0.2556
   51CHL1  H11A 3735   4.995   6.277   4.273 -0.8632 -2.1519 -1.4542
   51CHL1  H11B 3736   5.159   6.268   4.217 -2.3241 -0.6432 -1.1587
   51CHL1    C9 3737   5.069   6.069   4.302 -0.2026  0.0898  0.4010
   51CHL1    H9 3738   5.171   6.029   4.286 -0.5183 -0.5604 -0.0332
   51CHL1   C10 3739   4.987   6.018   4.182  0.7424  1.0518 -0.3769
   51CHL1   C19 3740   4.855   6.091   4.157 -0.3736 -0.2874 -0.1703
   51CHL1  H19A 3741   4.874   6.199   4.138  1.6069 -0.4168  0.8164
   51CHL1  H19B 3742   4.813   6.059   4.059 -1.0324  0.2225 -0.0607
   51CHL1  H19C 3743   4.775   6.076   4.233 -0.0909 -2.3082 -0.2089
   51CHL1    C1 3744   5.080   6.050   4.059  0.8722  0.5058  0.2651
   51CHL1   H1A 3745   5.110   6.157   4.054 -2.7519  1.6196 -0.6017
   51CHL1   H1B 3746   5.177   6.000   4.080 -0.3661 -1.4095  1.7904
   51CHL1    C2 3747   5.024   6.003   3.923 -0.3400  0.7149  0.4350
   51CHL1   H2A 3748   5.104   6.019   3.847  1.0461  0.6126  1.8304
   51CHL1   H2B 3749   4.933   6.058   3.892  0.0776  0.8268 -0.6485
   51CHL1   C20 3750   5.134   6.401   4.751  0.0964  0.8579 -0.6257
   51CHL1   H20 3751   5.026   6.411   4.775  0.0053 -1.9883  0.5398
   51CHL1   C21 3752   5.176   6.510   4.657  0.3971 -0.8885  0.0519
   51CHL1  H21A 3753   5.200   6.612   4.694 -0.6269 -0.5125 -0.2949
   51CHL1  H21B 3754   5.104   6.535   4.576 -0.0432  1.2004  1.0155
   51CHL1  H21C 3755   5.273   6.472   4.617 -0.4177 -0.6385 -2.3531
   51CHL1   C22 3756   5.219   6.407   4.886 -0.1756  0.4544 -0.0554
   51CHL1  H22A 3757   5.315   6.352   4.873  0.0545  1.2086 -1.9187
   51CHL1  H22B 3758   5.257   6.511   4.878  0.2520  0.1567 -3.7907
   51CHL1   C23 3759   5.147   6.369   5.008 -0.0345  0.3073 -0.7075
   51CHL1  H23A 3760   5.057   6.428   5.034 -1.9872 -3.0722  0.7895
   51CHL1  H23B 3761   5.114   6.263   4.999 -1.2789  0.5992  0.1607
   51CHL1   C24 3762   5.242   6.385   5.130 -0.4790 -0.1389  0.5339
   51CHL1  H24A 3763   5.325   6.311   5.128  0.7161  1.1522  0.7903
   51CHL1  H24B 3764   5.288   6.486   5.121  1.6588 -1.2406 -2.3607
   51CHL1   C25 3765   5.185   6.371   5.272  0.0107 -0.3476 -0.2177
   51CHL1   H25 3766   5.100   6.443   5.282  1.3822  1.3866 -0.6145
   51CHL1   C26 3767   5.119   6.234   5.294  0.6257 -0.0535 -0.6277
   51CHL1  H26A 3768   5.031   6.218   5.228  0.1120 -1.1022  0.2716
   51CHL1  H26B 3769   5.193   6.152   5.277  0.0330 -0.5310 -0.9339
   51CHL1  H26C 3770   5.087   6.232   5.400  0.2962 -0.4203 -0.7305
   51CHL1   C27 3771   5.284   6.410   5.384  0.5601  0.3234 -0.3212
   51CHL1  H27A 3772   5.366   6.335   5.393 -0.2378 -0.6924 -1.1252
   51CHL1  H27B 3773   5.321   6.514   5.371 -1.3414  0.8392 -2.1310
   51CHL1  H27C 3774   5.223   6.408   5.477  0.8393  0.4225 -0.1360
   52CHL1    C3 3775   4.029   6.223   4.285  0.1808  0.0858 -0.1230
   52CHL1    H3 3776   4.018   6.147   4.365 -0.7371  0.5806  0.2500
   52CHL1    O3 3777   4.083   6.178   4.165  0.4093 -0.1195  0.1776
   52CHL1   H3' 3778   4.071   6.254   4.107  0.2361  0.7726  1.3323
   52CHL1    C4 3779   3.883   6.268   4.262 -0.4526  0.4633  0.0875
   52CHL1   H4A 3780   3.906   6.344   4.184 -0.2199 -1.3572 -1.7134
   52CHL1   H4B 3781   3.828   6.184   4.215 -0.9349  0.8433 -0.0289
   52CHL1    C5 3782   3.805   6.329   4.377  0.1381  0.0894 -0.4178
   52CHL1    C6 3783   3.683   6.290   4.421  0.0848  0.3624 -0.1279
   52CHL1    H6 3784   3.638   6.199   4.378  1.0286 -0.6714  1.0265
   52CHL1    C7 3785   3.618   6.344   4.543  0.7643 -0.3732  0.1492
   52CHL1   H7A 3786   3.515   6.370   4.509  0.3735 -0.8588  0.9289
   52CHL1   H7B 3787   3.605   6.267   4.623 -0.1524  0.3480  0.7191
   52CHL1    C8 3788   3.682   6.477   4.594  0.1664  0.0840 -0.3966
   52CHL1    H8 3789   3.658   6.558   4.522 -0.4940 -0.9180 -1.3312
   52CHL1   C14 3790   3.634   6.508   4.737 -0.0919  0.2333  0.3363
   52CHL1   H14 3791   3.668   6.427   4.805 -0.6907  0.5724  1.0543
   52CHL1   C15 3792   3.476   6.523   4.752 -0.6690  0.4598  0.4024
   52CHL1  H15A 3793   3.437   6.578   4.664  1.2201 -0.7982 -1.3164
   52CHL1  H15B 3794   3.432   6.421   4.763  1.5710 -0.4461  1.6679
   52CHL1   C16 3795   3.465   6.596   4.889 -0.2048 -0.1367  0.4369
   52CHL1  H16A 3796   3.391   6.678   4.878  0.7889  0.4311 -6.0348
   52CHL1  H16B 3797   3.436   6.520   4.965 -0.9350 -0.5095 -0.2048
   52CHL1   C17 3798   3.607   6.636   4.936 -0.1285  0.2764  0.5369
   52CHL1   H17 3799   3.650   6.552   4.994 -0.4963  1.3475  2.4531
   52CHL1   C13 3800   3.698   6.637   4.807  0.2805  0.0243  0.5511
   52CHL1   C18 3801   3.653   6.762   4.716 -0.1879 -1.1964 -1.1004
   52CHL1  H18A 3802   3.698   6.856   4.754 -0.9374 -0.9104 -0.9101
   52CHL1  H18B 3803   3.700   6.751   4.615  4.4609 -1.9510  0.8595
   52CHL1  H18C 3804   3.542   6.767   4.715 -0.1343  0.8220 -0.1453
   52CHL1   C12 3805   3.852   6.615   4.820  0.0179 -0.1468  0.1995
   52CHL1  H12A 3806   3.892   6.711   4.859 -0.6086  0.1583  0.0972
   52CHL1  H12B 3807   3.871   6.529   4.888 -0.8463 -0.8600 -0.4372
   52CHL1   C11 3808   3.904   6.584   4.678  0.2722 -0.7545 -0.1603
   52CHL1  H11A 3809   3.893   6.678   4.619 -0.8292 -0.5879  0.2926
   52CHL1  H11B 3810   4.015   6.570   4.682  0.2917 -0.3636  1.0215
   52CHL1    C9 3811   3.836   6.462   4.605 -0.4859 -0.4872 -0.1224
   52CHL1    H9 3812   3.846   6.367   4.662 -1.4269 -1.2488 -1.1707
   52CHL1   C10 3813   3.892   6.427   4.461  1.1418  0.0871  0.1773
   52CHL1   C19 3814   3.907   6.565   4.385  1.1769 -0.0661 -0.4662
   52CHL1  H19A 3815   3.917   6.548   4.276 -0.4799 -1.3911 -0.4513
   52CHL1  H19B 3816   3.820   6.625   4.419 -0.0339 -2.1920  0.3977
   52CHL1  H19C 3817   3.994   6.628   4.415  0.0478  0.8093  1.1715
   52CHL1    C1 3818   4.037   6.377   4.480 -0.7265  0.2658  0.3089
   52CHL1   H1A 3819   4.100   6.453   4.531  1.5254 -1.0135 -0.4266
   52CHL1   H1B 3820   4.045   6.282   4.537  0.1341 -0.2109 -0.5736
   52CHL1    C2 3821   4.104   6.346   4.345 -0.7903 -0.2121 -0.3813
   52CHL1   H2A 3822   4.206   6.315   4.374 -1.4082 -0.9173  1.1710
   52CHL1   H2B 3823   4.117   6.422   4.265 -0.6451 -2.0745 -2.1904
   52CHL1   C20 3824   3.604   6.755   5.025  0.5322 -0.4204  0.5502
   52CHL1   H20 3825   3.572   6.842   4.965  2.0241  0.3080  0.7672
   52CHL1   C21 3826   3.741   6.788   5.073  0.1725 -0.2659  0.0094
   52CHL1  H21A 3827   3.790   6.697   5.112 -2.2883 -1.5827  0.2141
   52CHL1  H21B 3828   3.736   6.858   5.160 -0.3733 -1.1724  0.7225
   52CHL1  H21C 3829   3.804   6.837   4.996 -0.8237 -0.7193 -1.1269
   52CHL1   C22 3830   3.506   6.724   5.146 -0.3754  0.3465 -0.0247
   52CHL1  H22A 3831   3.405   6.696   5.108 -0.1988  1.2326 -1.2050
   52CHL1  H22B 3832   3.542   6.635   5.201 -0.0963  0.2852 -0.3100
   52CHL1   C23 3833   3.482   6.835   5.249 -0.1236  0.2385 -0.1737
   52CHL1  H23A 3834   3.422   6.794   5.333 -1.7050  1.5216 -0.6383
   52CHL1  H23B 3835   3.575   6.877   5.294 -0.8589  2.3398 -0.5081
   52CHL1   C24 3836   3.425   6.957   5.183  0.6271 -0.5263  0.2297
   52CHL1  H24A 3837   3.491   6.990   5.100  1.4207 -2.2308  0.1392
   52CHL1  H24B 3838   3.328   6.931   5.137  0.5203 -2.3252  1.3883
   52CHL1   C25 3839   3.397   7.075   5.285  0.4698  0.2345 -0.2108
   52CHL1   H25 3840   3.331   7.043   5.368 -0.4276 -1.7718 -1.6158
   52CHL1   C26 3841   3.523   7.139   5.346  0.1791  0.2813  0.6819
   52CHL1  H26A 3842   3.594   7.164   5.265  0.6163 -0.5907  0.7852
   52CHL1  H26B 3843   3.500   7.231   5.403 -0.5363  0.5154  0.0316
   52CHL1  H26C 3844   3.579   7.063   5.405 -0.4988 -1.2597 -0.5869
   52CHL1   C27 3845   3.324   7.191   5.210  0.2472 -0.3782  0.2508
   52CHL1  H27A 3846   3.389   7.215   5.123  0.3707 -2.4767 -0.2977
   52CHL1  H27B 3847   3.235   7.167   5.148  0.3653  1.4527 -0.6727
   52CHL1  H27C 3848   3.318   7.270   5.288 -0.9179 -2.0385  1.9355
   53CHL1    C3 3849   3.989   5.581   4.426 -0.0126 -0.0069 -0.7066
   53CHL1    H3 3850   4.012   5.505   4.505 -1.5831 -0.5261 -0.7118
   53CHL1    O3 3851   3.974   5.507   4.302 -0.6762  0.3074  0.2291
   53CHL1   H3' 3852   3.999   5.566   4.230 -1.5994  0.5676  0.1152
   53CHL1    C4 3853   3.855   5.651   4.476 -0.1671  1.0757  1.3578
   53CHL1   H4A 3854   3.829   5.722   4.395  1.5858  1.2911  0.9388
   53CHL1   H4B 3855   3.784   5.567   4.492  2.0465 -0.9111  1.2726
   53CHL1    C5 3856   3.889   5.707   4.611  0.1449 -0.1872 -0.0987
   53CHL1    C6 3857   3.822   5.659   4.720 -0.8652 -0.0743  0.0963
   53CHL1    H6 3858   3.738   5.593   4.695 -1.7399  1.3048 -0.7100
   53CHL1    C7 3859   3.843   5.709   4.860  0.4270  0.2506  0.3384
   53CHL1   H7A 3860   3.747   5.706   4.915  1.8340  0.0160  2.9501
   53CHL1   H7B 3861   3.900   5.630   4.914 -1.6946 -1.9585 -0.4772
   53CHL1    C8 3862   3.913   5.848   4.867 -0.0800  0.1962  0.1939
   53CHL1    H8 3863   3.839   5.930   4.852  1.7034  1.8293 -0.1024
   53CHL1   C14 3864   3.964   5.875   5.008 -0.0774 -0.0841  0.2702
   53CHL1   H14 3865   4.043   5.796   5.013 -0.1931 -0.4217 -1.9629
   53CHL1   C15 3866   3.881   5.838   5.133  0.1523  0.4004  0.3192
   53CHL1  H15A 3867   3.780   5.883   5.132  0.5669  1.4901  2.2430
   53CHL1  H15B 3868   3.867   5.729   5.145  1.1815  0.0448 -1.3116
   53CHL1   C16 3869   3.971   5.903   5.248 -0.1192 -0.0555 -0.6739
   53CHL1  H16A 3870   3.913   5.981   5.301  1.1636 -0.9194  2.1817
   53CHL1  H16B 3871   4.007   5.822   5.315  1.6479  1.7491  0.6341
   53CHL1   C17 3872   4.092   5.980   5.179 -0.0615  0.0572  0.2686
   53CHL1   H17 3873   4.184   5.918   5.174 -0.7109 -1.0720  1.6948
   53CHL1   C13 3874   4.038   6.008   5.033 -0.3464 -0.0872 -0.4109
   53CHL1   C18 3875   3.938   6.127   5.035  0.1998 -0.2185 -0.1792
   53CHL1  H18A 3876   3.993   6.221   5.057 -0.0441  0.1301 -1.0275
   53CHL1  H18B 3877   3.892   6.132   4.934  0.9848  0.4244 -0.5166
   53CHL1  H18C 3878   3.861   6.119   5.115 -1.3682  0.9384 -1.5306
   53CHL1   C12 3879   4.145   6.034   4.919 -0.5702 -0.0517  0.7503
   53CHL1  H12A 3880   4.179   6.140   4.928 -2.0396  0.4024  1.2456
   53CHL1  H12B 3881   4.232   5.966   4.929 -0.0357  0.0499 -2.4633
   53CHL1   C11 3882   4.097   6.002   4.781 -0.2318  0.4670 -0.0915
   53CHL1  H11A 3883   4.031   6.087   4.751 -1.0039 -0.2367 -0.4172
   53CHL1  H11B 3884   4.186   6.005   4.714  0.6306  1.5689  1.0416
   53CHL1    C9 3885   4.027   5.862   4.769  0.2800  0.4762  0.0936
   53CHL1    H9 3886   4.100   5.785   4.802 -2.5707 -2.1978  0.6600
   53CHL1   C10 3887   3.993   5.820   4.622 -0.3413 -0.1904 -0.3728
   53CHL1   C19 3888   3.941   5.945   4.538  0.4154  0.4077 -0.3010
   53CHL1  H19A 3889   3.843   5.977   4.579 -0.5925 -0.5000 -1.8980
   53CHL1  H19B 3890   4.016   6.027   4.548 -0.5104  1.5059 -1.9133
   53CHL1  H19C 3891   3.928   5.915   4.432  2.1093 -1.5709 -0.0100
   53CHL1    C1 3892   4.122   5.765   4.551 -0.1103 -0.3338 -0.2391
   53CHL1   H1A 3893   4.192   5.851   4.546 -0.6217  0.1253  0.4643
   53CHL1   H1B 3894   4.174   5.686   4.610  0.1657 -1.5578 -2.0067
   53CHL1    C2 3895   4.096   5.698   4.414 -0.0020 -0.3885  0.0850
   53CHL1   H2A 3896   4.193   5.658   4.379  1.0470  2.5855 -0.7046
   53CHL1   H2B 3897   4.074   5.776   4.337 -0.2309 -2.4439 -2.0538
   53CHL1   C20 3898   4.121   6.098   5.268 -0.6856 -0.1613 -0.1822
   53CHL1   H20 3899   4.040   6.173   5.274  0.8057  1.4201  1.6217
   53CHL1   C21 3900   4.245   6.174   5.215  0.1145  0.1183  0.0941
   53CHL1  H21A 3901   4.226   6.196   5.108  1.7101 -0.3266 -0.3022
   53CHL1  H21B 3902   4.335   6.110   5.224  0.0288  0.1414  1.2747
   53CHL1  H21C 3903   4.267   6.271   5.264  0.1479 -0.2237  0.7698
   53CHL1   C22 3904   4.144   6.069   5.418  0.6079  0.4169  0.3749
   53CHL1  H22A 3905   4.053   6.019   5.456  0.1197  0.4277 -0.7311
   53CHL1  H22B 3906   4.237   6.009   5.427  0.0748 -0.6642 -0.9968
   53CHL1   C23 3907   4.166   6.201   5.500 -0.4770  1.0350  0.8770
   53CHL1  H23A 3908   4.259   6.242   5.455 -0.1235 -1.1281 -0.5121
   53CHL1  H23B 3909   4.081   6.269   5.476  0.0020  0.9968 -1.1565
   53CHL1   C24 3910   4.183   6.172   5.651  0.3683  0.4718  0.3837
   53CHL1  H24A 3911   4.103   6.106   5.691 -1.4289  0.8095 -2.3888
   53CHL1  H24B 3912   4.284   6.127   5.668  0.8277  1.8078  1.3786
   53CHL1   C25 3913   4.186   6.311   5.731 -0.2546 -0.1150  0.2625
   53CHL1   H25 3914   4.093   6.367   5.707  0.3922 -0.2124 -3.0184
   53CHL1   C26 3915   4.191   6.278   5.883 -0.2017  0.2013  1.0265
   53CHL1  H26A 3916   4.271   6.207   5.910  0.6571  0.9499  0.4888
   53CHL1  H26B 3917   4.188   6.370   5.945  1.0370  0.1623  1.1583
   53CHL1  H26C 3918   4.099   6.228   5.919 -0.5146  0.3380  0.4377
   53CHL1   C27 3919   4.308   6.402   5.694 -0.9784  0.1004 -0.2997
   53CHL1  H27A 3920   4.403   6.348   5.716 -0.2345  0.0889 -3.1638
   53CHL1  H27B 3921   4.300   6.414   5.584  1.1856  1.3877 -0.3877
   53CHL1  H27C 3922   4.310   6.500   5.746  0.0625 -1.0645  2.0554
   54CHL1    C3 3923   5.789   5.383   3.766 -0.1632  0.2800  0.5168
   54CHL1    H3 3924   5.757   5.277   3.757  1.1715 -0.3986  2.8372
   54CHL1    O3 3925   5.767   5.456   3.640  0.0837  0.3246 -0.9156
   54CHL1   H3' 3926   5.690   5.416   3.599  0.1264  0.7534 -1.4222
   54CHL1    C4 3927   5.723   5.446   3.885  0.6237 -0.3971  0.5803
   54CHL1   H4A 3928   5.744   5.555   3.886 -1.5204  0.1933 -2.9238
   54CHL1   H4B 3929   5.613   5.436   3.872  0.3885 -0.3368  2.3454
   54CHL1    C5 3930   5.767   5.391   4.025  0.3028 -0.5972  0.5482
   54CHL1    C6 3931   5.681   5.338   4.113 -0.5690  0.3481  0.2853
   54CHL1    H6 3932   5.572   5.334   4.101 -0.3402 -0.4861 -1.8835
   54CHL1    C7 3933   5.721   5.319   4.258  0.3786  0.6527  0.5712
   54CHL1   H7A 3934   5.654   5.371   4.330 -0.8518 -2.6867  2.0358
   54CHL1   H7B 3935   5.728   5.210   4.276 -0.1153  1.0701  3.8776
   54CHL1    C8 3936   5.870   5.368   4.292 -0.0034 -0.4081 -0.1582
   54CHL1    H8 3937   5.865   5.477   4.308  1.0897 -0.3688  0.0092
   54CHL1   C14 3938   5.913   5.294   4.423  0.6990  0.1421  0.2094
   54CHL1   H14 3939   5.907   5.184   4.411 -0.9017 -0.1737  2.9841
   54CHL1   C15 3940   5.828   5.319   4.542 -0.0985  0.3980 -0.3540
   54CHL1  H15A 3941   5.818   5.427   4.569  1.7646  0.2695  1.0824
   54CHL1  H15B 3942   5.731   5.265   4.534 -0.7157  1.4489 -0.1470
   54CHL1   C16 3943   5.912   5.265   4.652 -0.3966  0.5751 -1.1346
   54CHL1  H16A 3944   5.918   5.328   4.744  2.6284  0.0061 -0.8428
   54CHL1  H16B 3945   5.866   5.168   4.680  1.4829 -0.7249 -2.3450
   54CHL1   C17 3946   6.055   5.244   4.599  0.4197 -0.0968  0.1890
   54CHL1   H17 3947   6.060   5.134   4.584  2.8819 -0.0303  0.0717
   54CHL1   C13 3948   6.054   5.327   4.467 -0.3642  0.8340  0.4225
   54CHL1   C18 3949   6.060   5.476   4.499 -0.2858 -0.6495 -0.1804
   54CHL1  H18A 3950   5.994   5.519   4.577  0.7684  1.1454 -0.2351
   54CHL1  H18B 3951   6.161   5.505   4.534  0.4126  0.0429 -2.5743
   54CHL1  H18C 3952   6.040   5.537   4.408 -0.2805 -0.6596 -0.1886
   54CHL1   C12 3953   6.147   5.276   4.351  0.1689  0.3685  0.4465
   54CHL1  H12A 3954   6.253   5.305   4.370  0.3108  1.2807 -1.4933
   54CHL1  H12B 3955   6.160   5.166   4.353  0.6200  0.4094  2.7941
   54CHL1   C11 3956   6.112   5.342   4.213 -0.2382  0.3957  0.0962
   54CHL1  H11A 3957   6.137   5.449   4.230  0.0014  0.1926  1.1046
   54CHL1  H11B 3958   6.179   5.301   4.134  0.5611 -1.8801  1.8263
   54CHL1    C9 3959   5.961   5.331   4.176  0.2573  0.6812 -0.3464
   54CHL1    H9 3960   5.942   5.224   4.155  0.8382  0.8939 -2.1324
   54CHL1   C10 3961   5.920   5.401   4.045  0.0146 -0.2762  0.2176
   54CHL1   C19 3962   5.973   5.552   4.052  0.2316 -0.1787 -0.0660
   54CHL1  H19A 3963   6.079   5.545   4.020  0.1929 -1.0770 -0.0118
   54CHL1  H19B 3964   5.934   5.624   3.976 -0.1417  0.5229  0.7796
   54CHL1  H19C 3965   5.975   5.593   4.155  1.5035 -3.0102  1.1252
   54CHL1    C1 3966   5.979   5.322   3.927  0.0066 -0.8523  0.0870
   54CHL1   H1A 3967   6.086   5.329   3.954  0.8979  1.6808 -3.3992
   54CHL1   H1B 3968   5.944   5.217   3.937 -0.0823 -0.6278  2.9054
   54CHL1    C2 3969   5.942   5.372   3.783 -0.4190  0.1103 -0.9480
   54CHL1   H2A 3970   6.001   5.321   3.705 -1.3554 -0.4493 -1.2958
   54CHL1   H2B 3971   5.981   5.476   3.783 -1.4137  0.5278  0.5154
   54CHL1   C20 3972   6.168   5.283   4.694  0.2270  0.3003 -0.4006
   54CHL1   H20 3973   6.162   5.394   4.702  1.2942  0.3156  0.4946
   54CHL1   C21 3974   6.311   5.235   4.639 -0.4188 -0.2952 -0.6020
   54CHL1  H21A 3975   6.310   5.127   4.614  0.7183 -0.3174 -0.6391
   54CHL1  H21B 3976   6.384   5.253   4.722  0.3013 -3.4048 -0.4577
   54CHL1  H21C 3977   6.350   5.302   4.559  2.3427  1.1842  1.7716
   54CHL1   C22 3978   6.143   5.219   4.834  0.3673 -0.6911  0.4602
   54CHL1  H22A 3979   6.046   5.251   4.877 -0.1443 -1.8870  0.2415
   54CHL1  H22B 3980   6.126   5.111   4.814  0.4575 -0.6295  0.0441
   54CHL1   C23 3981   6.265   5.229   4.927 -0.2102  0.7721  0.0735
   54CHL1  H23A 3982   6.356   5.178   4.891  0.6727  1.8341  0.7214
   54CHL1  H23B 3983   6.282   5.339   4.937 -0.7536  1.0381 -1.6562
   54CHL1   C24 3984   6.225   5.169   5.060  0.5504  0.2816  0.3278
   54CHL1  H24A 3985   6.136   5.232   5.080  0.3748  0.2578 -0.3408
   54CHL1  H24B 3986   6.185   5.067   5.047  0.3161  0.3929  0.1564
   54CHL1   C25 3987   6.329   5.185   5.170 -0.2130 -0.6300  0.8092
   54CHL1   H25 3988   6.344   5.294   5.182  1.0617 -0.3933 -1.9722
   54CHL1   C26 3989   6.282   5.117   5.294  0.3933  0.3051 -0.4680
   54CHL1  H26A 3990   6.180   5.154   5.320  0.8168  0.4033  1.1745
   54CHL1  H26B 3991   6.291   5.006   5.295  1.0256  0.3543 -0.5407
   54CHL1  H26C 3992   6.351   5.144   5.376 -0.1783 -0.6305  0.3504
   54CHL1   C27 3993   6.463   5.130   5.124  0.0576 -0.3701  0.6015
   54CHL1  H27A 3994   6.533   5.147   5.208  1.7355 -0.0869 -0.7835
   54CHL1  H27B 3995   6.463   5.020   5.103 -0.1794 -0.0880 -0.9997
   54CHL1  H27C 3996   6.502   5.197   5.044 -2.0323  1.4177  0.9978
   55CHL1    C3 3997   1.294   4.520   3.956 -0.1295  0.1957  0.7384
   55CHL1    H3 3998   1.388   4.568   3.921 -1.0392  2.3637  1.0654
   55CHL1    O3 3999   1.212   4.505   3.846  0.4631 -0.5941  0.4877
   55CHL1   H3' 4000   1.194   4.594   3.816 -0.5364 -0.6524  0.8889
   55CHL1    C4 4001   1.326   4.386   4.024  0.0501 -0.3286  0.1822
   55CHL1   H4A 4002   1.232   4.327   4.019  0.1388 -0.4049 -1.0461
   55CHL1   H4B 4003   1.382   4.330   3.946 -0.8249 -0.3885 -0.4264
   55CHL1    C5 4004   1.387   4.402   4.161 -0.2348 -0.2566  0.0094
   55CHL1    C6 4005   1.503   4.351   4.190 -0.1627 -0.2913  0.1685
   55CHL1    H6 4006   1.553   4.284   4.119 -0.8510 -0.1834 -0.4254
   55CHL1    C7 4007   1.565   4.362   4.330  0.3468  0.1916 -0.6726
   55CHL1   H7A 4008   1.611   4.267   4.365 -1.9632 -0.7410  0.0359
   55CHL1   H7B 4009   1.641   4.442   4.333  0.4050  0.2579 -2.4903
   55CHL1    C8 4010   1.462   4.398   4.439  0.3550 -0.0684 -0.4999
   55CHL1    H8 4011   1.400   4.309   4.461 -1.4111  1.3216  0.4711
   55CHL1   C14 4012   1.538   4.431   4.564 -0.2457 -0.1722  0.3219
   55CHL1   H14 4013   1.598   4.521   4.540  2.8301 -1.6738  1.8117
   55CHL1   C15 4014   1.630   4.328   4.627 -0.2319  0.0273  1.1494
   55CHL1  H15A 4015   1.585   4.227   4.625  1.4391 -0.7851 -1.7534
   55CHL1  H15B 4016   1.727   4.318   4.573 -0.9595  2.8149 -0.9292
   55CHL1   C16 4017   1.647   4.375   4.778 -0.6318  0.4625  0.2869
   55CHL1  H16A 4018   1.623   4.284   4.836 -2.0472 -0.4771 -1.6748
   55CHL1  H16B 4019   1.753   4.398   4.802 -1.0662  1.3886  1.4316
   55CHL1   C17 4020   1.550   4.493   4.795 -0.2375  0.6163  0.1159
   55CHL1   H17 4021   1.608   4.584   4.767 -1.5217  0.8053 -2.2730
   55CHL1   C13 4022   1.443   4.475   4.680  0.2458 -0.6139 -0.5425
   55CHL1   C18 4023   1.348   4.361   4.715  0.0761  0.6324  0.2792
   55CHL1  H18A 4024   1.255   4.391   4.768 -2.9496 -1.3377 -3.4297
   55CHL1  H18B 4025   1.301   4.310   4.629  0.1428  1.7719 -0.4619
   55CHL1  H18C 4026   1.398   4.274   4.764 -0.4380  0.0330 -0.2534
   55CHL1   C12 4027   1.367   4.600   4.636 -0.6975  0.5902  0.5733
   55CHL1  H12A 4028   1.304   4.641   4.718 -0.4368 -0.4050  1.2964
   55CHL1  H12B 4029   1.445   4.677   4.615  1.3033 -1.8263 -1.3953
   55CHL1   C11 4030   1.286   4.566   4.509 -0.3442 -1.1701  0.4846
   55CHL1  H11A 4031   1.212   4.489   4.541 -0.6803 -0.9308  0.2781
   55CHL1  H11B 4032   1.230   4.651   4.465 -1.3316 -1.3562  1.3413
   55CHL1    C9 4033   1.376   4.516   4.395 -0.0242 -0.2357  0.0220
   55CHL1    H9 4034   1.453   4.594   4.377 -0.1496  0.6022  2.7260
   55CHL1   C10 4035   1.303   4.493   4.258 -0.4347  0.5682  0.4562
   55CHL1   C19 4036   1.167   4.425   4.289  0.0398  0.2318  0.4080
   55CHL1  H19A 4037   1.180   4.327   4.340 -2.0697 -0.3177 -0.0021
   55CHL1  H19B 4038   1.099   4.491   4.346  0.2314  1.0913 -0.3459
   55CHL1  H19C 4039   1.111   4.416   4.193  2.8514 -1.0071 -1.2326
   55CHL1    C1 4040   1.284   4.630   4.195 -0.1062  0.1707  0.2370
   55CHL1   H1A 4041   1.220   4.700   4.253 -0.8143 -0.2500 -0.0286
   55CHL1   H1B 4042   1.381   4.683   4.183  0.5551 -0.8457  0.9569
   55CHL1    C2 4043   1.221   4.616   4.055  0.6312  0.1560 -0.3380
   55CHL1   H2A 4044   1.225   4.720   4.017  0.7636  0.3939  0.3165
   55CHL1   H2B 4045   1.115   4.587   4.069  0.5245  0.6507 -0.1306
   55CHL1   C20 4046   1.502   4.508   4.942  0.3991 -0.7550  0.6213
   55CHL1   H20 4047   1.453   4.413   4.971  0.6563 -1.8334 -2.2421
   55CHL1   C21 4048   1.395   4.621   4.966  0.2285  0.3242 -0.3136
   55CHL1  H21A 4049   1.442   4.718   4.940  1.9183 -0.5083 -0.5114
   55CHL1  H21B 4050   1.377   4.633   5.075 -1.6699  0.7439 -0.6374
   55CHL1  H21C 4051   1.297   4.607   4.916  0.1071 -0.3528  0.1027
   55CHL1   C22 4052   1.609   4.515   5.055 -0.1061 -0.4517 -0.0865
   55CHL1  H22A 4053   1.685   4.440   5.024 -0.6841 -0.0554 -2.7022
   55CHL1  H22B 4054   1.669   4.608   5.041 -2.8866  1.1526 -2.6780
   55CHL1   C23 4055   1.567   4.480   5.199 -0.4772  0.3264 -0.1322
   55CHL1  H23A 4056   1.502   4.563   5.233  0.4337  2.1730 -2.5906
   55CHL1  H23B 4057   1.507   4.386   5.194 -2.1055  1.3419 -0.5776
   55CHL1   C24 4058   1.687   4.466   5.292  0.0684  0.2952 -0.6118
   55CHL1  H24A 4059   1.761   4.395   5.250  0.5765 -0.0363  0.7667
   55CHL1  H24B 4060   1.737   4.565   5.294  3.1578 -1.1442  0.8171
   55CHL1   C25 4061   1.658   4.413   5.439 -0.1230 -0.1408  0.5174
   55CHL1   H25 4062   1.572   4.343   5.434 -2.8290  2.8931  0.9767
   55CHL1   C26 4063   1.777   4.341   5.502 -0.3479  0.0893  0.7290
   55CHL1  H26A 4064   1.857   4.412   5.529  0.1868  0.0607 -0.6903
   55CHL1  H26B 4065   1.750   4.292   5.598  1.4753 -3.1202 -0.2659
   55CHL1  H26C 4066   1.824   4.270   5.431 -0.3294  0.3156  0.5121
   55CHL1   C27 4067   1.624   4.520   5.540 -0.6216 -0.1297 -0.2107
   55CHL1  H27A 4068   1.624   4.489   5.646  1.4662  1.0326  0.1851
   55CHL1  H27B 4069   1.702   4.599   5.532 -0.7252  0.0483  0.4969
   55CHL1  H27C 4070   1.522   4.556   5.515 -1.4607 -2.6875 -0.7206
   56CHL1    C3 4071   1.960   4.824   4.148 -0.3321 -0.3417  0.6973
   56CHL1    H3 4072   1.990   4.720   4.170 -1.7555 -0.3754  2.7349
   56CHL1    O3 4073   1.928   4.840   4.013  0.6062 -0.0632 -0.1097
   56CHL1   H3' 4074   2.005   4.839   3.956 -0.9055 -2.9662 -2.3567
   56CHL1    C4 4075   1.839   4.858   4.231 -0.1290 -0.6866 -0.2301
   56CHL1   H4A 4076   1.819   4.964   4.205  2.1675  0.1379  1.0728
   56CHL1   H4B 4077   1.749   4.797   4.208 -1.0430  1.0893 -1.6580
   56CHL1    C5 4078   1.869   4.847   4.377 -0.7078  0.4105  0.1167
   56CHL1    C6 4079   1.801   4.763   4.451 -0.1015  0.1998  0.8221
   56CHL1    H6 4080   1.735   4.692   4.399  1.9870 -1.5565  0.4444
   56CHL1    C7 4081   1.822   4.748   4.599 -0.5658 -0.5466  0.0875
   56CHL1   H7A 4082   1.725   4.742   4.652 -0.9384 -2.8230 -0.7331
   56CHL1   H7B 4083   1.878   4.658   4.632 -0.0304  0.5006  2.2018
   56CHL1    C8 4084   1.896   4.873   4.660 -0.4701  0.3379 -0.3713
   56CHL1    H8 4085   1.826   4.959   4.653 -1.3875  0.0180  3.0692
   56CHL1   C14 4086   1.946   4.851   4.799 -0.3404 -0.5748 -0.0360
   56CHL1   H14 4087   2.006   4.758   4.798 -0.3473 -0.5922  0.6645
   56CHL1   C15 4088   1.836   4.823   4.900  0.0765 -0.9960  0.7152
   56CHL1  H15A 4089   1.753   4.897   4.893  2.0687  1.2646 -0.1907
   56CHL1  H15B 4090   1.793   4.722   4.886  0.7147 -1.8328  3.9075
   56CHL1   C16 4091   1.918   4.828   5.030  0.2536  0.3497 -0.4483
   56CHL1  H16A 4092   1.862   4.897   5.097 -0.4403 -0.3727 -0.2743
   56CHL1  H16B 4093   1.941   4.731   5.077  1.8059  0.6938 -0.4539
   56CHL1   C17 4094   2.051   4.895   4.995 -0.4742  0.1565  0.2824
   56CHL1   H17 4095   2.129   4.816   4.994  0.0701  0.6789 -1.0973
   56CHL1   C13 4096   2.036   4.961   4.859  0.0488 -0.1110  0.4525
   56CHL1   C18 4097   1.965   5.094   4.867 -0.5831 -0.3753  0.0773
   56CHL1  H18A 4098   1.913   5.132   4.777  3.1585  0.4575 -1.9328
   56CHL1  H18B 4099   1.890   5.095   4.949 -0.4764 -1.1880  0.1939
   56CHL1  H18C 4100   2.038   5.174   4.893 -0.9299  0.5382 -1.6285
   56CHL1   C12 4101   2.162   4.972   4.765  0.2679 -0.8213  0.1424
   56CHL1  H12A 4102   2.227   5.055   4.798 -0.9301  1.1230 -2.1210
   56CHL1  H12B 4103   2.221   4.878   4.770  0.4547 -0.6846  0.5990
   56CHL1   C11 4104   2.117   5.013   4.619 -0.1542  0.0117  0.3641
   56CHL1  H11A 4105   2.075   5.116   4.622  0.5688  0.2917  1.2458
   56CHL1  H11B 4106   2.212   5.029   4.563  0.2045  0.8953  1.2085
   56CHL1    C9 4107   2.022   4.909   4.567  0.3631 -0.3476 -0.1404
   56CHL1    H9 4108   2.088   4.820   4.566  0.5407 -0.2391  0.7922
   56CHL1   C10 4109   1.983   4.940   4.414 -0.8041 -0.6841 -0.0094
   56CHL1   C19 4110   1.930   5.084   4.411  0.0743 -0.2993  0.2863
   56CHL1  H19A 4111   1.912   5.130   4.311  0.0126  1.5826  1.1216
   56CHL1  H19B 4112   1.846   5.108   4.479 -0.5071  1.5375 -0.9793
   56CHL1  H19C 4113   2.015   5.151   4.439 -0.2170  1.0353 -1.7690
   56CHL1    C1 4114   2.106   4.931   4.322 -0.0567  0.2935  0.3815
   56CHL1   H1A 4115   2.175   5.011   4.356 -0.4582 -0.1565  2.3725
   56CHL1   H1B 4116   2.164   4.840   4.349  0.1710 -0.2604 -1.7197
   56CHL1    C2 4117   2.075   4.926   4.177  0.2406  0.0773 -0.4509
   56CHL1   H2A 4118   2.165   4.905   4.116  1.5244  1.9528  0.7148
   56CHL1   H2B 4119   2.039   5.029   4.155  1.5807  0.8544  0.8169
   56CHL1   C20 4120   2.096   4.993   5.107  0.0820  0.1949 -0.0453
   56CHL1   H20 4121   2.017   5.064   5.140  1.4255  1.9447 -0.4244
   56CHL1   C21 4122   2.218   5.086   5.067 -0.3085  0.0177 -0.0893
   56CHL1  H21A 4123   2.186   5.172   5.004  2.7800  1.2088 -0.2262
   56CHL1  H21B 4124   2.281   5.019   5.006  0.8532  1.3705 -0.4417
   56CHL1  H21C 4125   2.254   5.116   5.168 -2.2289  1.0235  0.3497
   56CHL1   C22 4126   2.135   4.904   5.236  0.3551 -0.5932 -0.6600
   56CHL1  H22A 4127   2.096   4.803   5.213 -1.5130  0.1517 -0.9406
   56CHL1  H22B 4128   2.246   4.904   5.241  0.4339  0.7088 -1.8859
   56CHL1   C23 4129   2.067   4.947   5.367 -0.2730  0.0122  0.0046
   56CHL1  H23A 4130   2.076   5.057   5.378  2.0520 -0.1330  0.0127
   56CHL1  H23B 4131   1.957   4.932   5.364 -0.1230 -1.0146 -1.2938
   56CHL1   C24 4132   2.121   4.883   5.494 -0.1171 -0.4845  0.8977
   56CHL1  H24A 4133   2.135   4.773   5.482  0.3472 -0.2931 -0.4375
   56CHL1  H24B 4134   2.219   4.929   5.518 -1.4340  1.6430  2.5475
   56CHL1   C25 4135   2.016   4.883   5.610  0.3503  0.3513  0.9433
   56CHL1   H25 4136   1.921   4.832   5.582  1.3845 -0.4586 -1.3609
   56CHL1   C26 4137   2.068   4.802   5.727 -0.6376 -0.3753  0.1016
   56CHL1  H26A 4138   2.091   4.694   5.716 -0.3179 -0.6235  2.6440
   56CHL1  H26B 4139   2.158   4.859   5.758  0.2791 -0.8241 -1.6038
   56CHL1  H26C 4140   1.989   4.801   5.805 -1.4413 -0.2298 -0.6883
   56CHL1   C27 4141   1.962   5.012   5.656 -0.3294  0.2034  0.8345
   56CHL1  H27A 4142   1.886   5.001   5.736 -2.1166 -1.3619 -0.9837
   56CHL1  H27B 4143   2.038   5.080   5.699  0.7921  0.4740 -1.4256
   56CHL1  H27C 4144   1.914   5.061   5.568  0.1545  1.0683  1.0470
   57SAPC     N 4145   3.183   4.659   8.568 -0.2166  0.5056 -0.3675
   57SAPC   C12 4146   3.159   4.774   8.470  0.0143  0.3220  0.7549
   57SAPC  H12A 4147   3.250   4.832   8.459  0.3522  0.1315  2.2693
   57SAPC  H12B 4148   3.087   4.843   8.512 -2.6442 -1.9439  0.1786
   57SAPC   C13 4149   3.247   4.704   8.696 -0.1120 -0.7287 -0.4399
   57SAPC  H13A 4150   3.334   4.760   8.667 -0.8723 -0.8780 -3.3943
   57SAPC  H13B 4151   3.190   4.778   8.750  1.6330 -0.8713  1.6859
   57SAPC  H13C 4152   3.268   4.619   8.758 -1.0482 -0.4050  0.3406
   57SAPC   C14 4153   3.048   4.603   8.607  0.0062  0.8366  0.3800
   57SAPC  H14A 4154   2.980   4.678   8.645  0.1230 -0.1509  2.7490
   57SAPC  H14B 4155   3.009   4.572   8.511  1.7553 -1.7417  0.4159
   57SAPC  H14C 4156   3.056   4.513   8.666 -2.3334  1.5209  1.9190
   57SAPC   C15 4157   3.261   4.549   8.504  0.0748 -0.7667 -0.2529
   57SAPC  H15A 4158   3.359   4.583   8.475  0.3601 -0.5037  0.9555
   57SAPC  H15B 4159   3.268   4.470   8.576 -2.4382 -0.5345  0.3602
   57SAPC  H15C 4160   3.207   4.519   8.416 -2.4710  0.7065  0.6846
   57SAPC   C11 4161   3.092   4.740   8.334  0.3328 -0.4563 -0.0644
   57SAPC  H11A 4162   3.160   4.681   8.270 -1.2270 -1.0826 -1.2167
   57SAPC  H11B 4163   3.087   4.844   8.294  0.0660  0.5325  2.3260
   57SAPC     P 4164   2.830   4.750   8.331  0.1946 -0.2795  0.2349
   57SAPC   O13 4165   2.738   4.638   8.351 -0.5468  0.3161 -0.1779
   57SAPC   O14 4166   2.824   4.857   8.435 -0.2712 -0.5187  0.0818
   57SAPC   O12 4167   2.968   4.681   8.333  0.0627 -0.1628 -0.3277
   57SAPC   O11 4168   2.809   4.807   8.183 -0.2067 -0.3924 -0.0859
   57SAPC    C1 4169   2.826   4.726   8.064  0.3729 -0.0454 -0.2558
   57SAPC    HA 4170   2.863   4.795   7.985 -0.2987  3.3855  2.1787
   57SAPC    HB 4171   2.910   4.654   8.077  0.2644  0.1231  1.6456
   57SAPC    C2 4172   2.692   4.674   8.007  0.1841 -0.0046  0.1253
   57SAPC    HS 4173   2.664   4.593   8.078  0.4255 -0.3171 -0.1315
   57SAPC   O21 4174   2.694   4.612   7.875  0.4623 -0.2418  0.2577
   57SAPC   C21 4175   2.779   4.513   7.862  0.3036 -0.4232 -0.6358
   57SAPC   O22 4176   2.821   4.441   7.953  0.2991 -0.4252  0.6921
   57SAPC   C22 4177   2.804   4.479   7.712 -0.1254 -0.9106 -0.1123
   57SAPC   H2R 4178   2.774   4.372   7.705 -3.1551 -0.0903 -1.1144
   57SAPC   H2S 4179   2.740   4.545   7.649  0.5991 -1.8020 -1.8479
   57SAPC    C3 4180   2.583   4.780   8.006  0.9941 -0.2403  0.0132
   57SAPC    HX 4181   2.596   4.841   8.098  1.6948 -1.0579  0.4710
   57SAPC    HY 4182   2.480   4.743   8.026  0.2897  0.9084 -1.3156
   57SAPC   O31 4183   2.595   4.869   7.890 -0.0388  0.4440  0.3240
   57SAPC   C31 4184   2.514   4.840   7.790 -0.4465 -1.0762  0.0153
   57SAPC   O32 4185   2.430   4.754   7.781 -0.2659 -0.5223  0.1521
   57SAPC   C32 4186   2.554   4.934   7.679  0.2084  0.0520 -0.3576
   57SAPC   H2X 4187   2.665   4.943   7.676  0.2328 -0.4886 -1.5167
   57SAPC   H2Y 4188   2.508   5.031   7.703 -0.4124 -0.5635  1.0150
   57SAPC   C23 4189   2.948   4.500   7.670 -0.1738 -1.0289  0.6226
   57SAPC   H3R 4190   2.958   4.489   7.560  0.0261  0.3756  0.4814
   57SAPC   H3S 4191   3.016   4.426   7.717  1.8635 -1.5631 -2.8545
   57SAPC   C24 4192   2.992   4.646   7.700 -0.5322 -0.3353  0.5029
   57SAPC   H4R 4193   3.092   4.655   7.652 -1.1778 -0.7386 -0.9947
   57SAPC   H4S 4194   3.021   4.666   7.805 -1.2717  0.2712  0.5987
   57SAPC   C25 4195   2.903   4.758   7.651  0.6104 -1.2184 -0.2373
   57SAPC   H5R 4196   2.820   4.790   7.716  0.6673  0.2787 -0.8532
   57SAPC   C26 4197   2.897   4.819   7.532  0.1732  0.1921  0.0835
   57SAPC   H6R 4198   2.818   4.891   7.508 -1.0159 -0.5066  1.7577
   57SAPC   C27 4199   2.994   4.801   7.414 -0.5187  0.0613  0.4005
   57SAPC   H7R 4200   3.068   4.724   7.443 -1.4118 -0.7397  0.6074
   57SAPC   H7S 4201   3.057   4.889   7.388  2.0776 -1.5088  1.0672
   57SAPC   C28 4202   2.930   4.763   7.285 -0.1003  0.1675 -0.4285
   57SAPC   H8R 4203   2.824   4.737   7.299  0.4041 -0.2026  4.0814
   57SAPC   C29 4204   2.978   4.750   7.160  0.2094  0.3728  1.1484
   57SAPC   H9R 4205   2.900   4.726   7.086  0.2622 -0.6807  1.4208
   57SAPC  C210 4206   3.117   4.788   7.109 -0.0922 -0.5523  0.5798
   57SAPC  H10R 4207   3.169   4.697   7.072 -2.1601 -2.1931  1.4542
   57SAPC  H10S 4208   3.184   4.820   7.191  2.6904  1.1178 -2.1642
   57SAPC  C211 4209   3.099   4.901   7.011 -0.9322 -0.6353  0.1579
   57SAPC  H11R 4210   3.086   4.996   7.064 -0.8031 -0.9224  0.7117
   57SAPC  C212 4211   3.091   4.891   6.876  0.5763  0.7078 -0.4885
   57SAPC  H12R 4212   3.085   4.979   6.810 -1.4044  0.1717 -1.0697
   57SAPC  C213 4213   3.109   4.768   6.792  0.4993  0.4317 -1.1270
   57SAPC  H13R 4214   3.034   4.746   6.713  2.1035 -0.6325 -2.4094
   57SAPC  H13S 4215   3.128   4.678   6.854  2.7459  0.6885 -1.3596
   57SAPC  C214 4216   3.240   4.798   6.723 -0.2804  0.5914  0.0843
   57SAPC  H14R 4217   3.323   4.844   6.780  2.0678 -2.7731 -0.3162
   57SAPC  C215 4218   3.272   4.773   6.597 -0.1681  0.1899  0.4838
   57SAPC  H15R 4219   3.373   4.804   6.566 -1.4774  2.9155 -1.4846
   57SAPC  C216 4220   3.182   4.728   6.483  0.0564 -0.0785  0.0563
   57SAPC  H16R 4221   3.201   4.792   6.395  1.5051 -1.9719 -1.0770
   57SAPC  H16S 4222   3.074   4.735   6.506  0.0364  1.6057 -0.3843
   57SAPC  C217 4223   3.222   4.586   6.443 -0.1875  0.2502  0.3757
   57SAPC  H17R 4224   3.194   4.511   6.520  1.8367 -2.0290 -0.9412
   57SAPC  H17S 4225   3.332   4.577   6.430 -0.1352  1.0508  0.2033
   57SAPC  C218 4226   3.161   4.545   6.305 -0.2798  0.0331 -0.0040
   57SAPC  H18R 4227   3.216   4.589   6.218  0.5887  1.0554  1.0309
   57SAPC  H18S 4228   3.051   4.559   6.298 -0.3639 -0.8841 -0.7822
   57SAPC  C219 4229   3.187   4.400   6.275  0.0626  0.1609  0.6234
   57SAPC  H19R 4230   3.291   4.385   6.311  0.0068 -0.8733  0.3793
   57SAPC  H19S 4231   3.177   4.387   6.165 -2.9147  0.8029  0.7375
   57SAPC  C220 4232   3.082   4.298   6.337  0.3863  0.0109 -0.0524
   57SAPC  H20R 4233   3.067   4.311   6.446  1.7206  1.1640  0.0280
   57SAPC  H20S 4234   3.118   4.193   6.325  0.3654 -0.1631  1.2603
   57SAPC  H20T 4235   2.983   4.299   6.287 -1.6381 -1.4991  3.5785
   57SAPC   C33 4236   2.504   4.884   7.546 -0.2912  0.3211 -0.1039
   57SAPC   H3X 4237   2.394   4.886   7.557 -0.3294  0.8238 -0.5384
   57SAPC   H3Y 4238   2.541   4.782   7.522 -0.6138  0.4302 -1.0704
   57SAPC   C34 4239   2.543   4.974   7.430 -0.1174  0.2523  0.1255
   57SAPC   H4X 4240   2.654   4.974   7.433 -0.1183 -1.2216  1.9142
   57SAPC   H4Y 4241   2.517   5.081   7.447  0.7152  0.5293 -0.3024
   57SAPC   C35 4242   2.502   4.917   7.296  0.7840 -0.3074  0.1547
   57SAPC   H5X 4243   2.395   4.889   7.305  1.1775 -2.2077 -0.6223
   57SAPC   H5Y 4244   2.559   4.830   7.258  0.4503 -0.8903  0.9735
   57SAPC   C36 4245   2.525   5.024   7.178 -0.5241  0.5831  0.0470
   57SAPC   H6X 4246   2.630   5.054   7.200 -0.1725 -1.2115  1.0411
   57SAPC   H6Y 4247   2.458   5.111   7.198 -1.0903 -0.0594  0.9776
   57SAPC   C37 4248   2.507   4.953   7.040  0.3339 -0.0459 -0.0352
   57SAPC   H7X 4249   2.407   4.907   7.028 -0.9329  3.0535 -3.1249
   57SAPC   H7Y 4250   2.589   4.878   7.033 -1.0427 -1.5560 -0.3964
   57SAPC   C38 4251   2.522   5.044   6.913 -1.1921 -0.0961  0.2462
   57SAPC   H8X 4252   2.453   5.131   6.920  1.3285  1.9329  1.8577
   57SAPC   H8Y 4253   2.493   4.975   6.831  2.3978 -1.5120 -0.0399
   57SAPC   C39 4254   2.673   5.090   6.897  0.6831  0.6062 -1.1419
   57SAPC   H9X 4255   2.734   5.022   6.960 -1.6725 -0.3614  0.2355
   57SAPC   H9Y 4256   2.693   5.183   6.954  0.0611 -0.7122  1.3475
   57SAPC  C310 4257   2.736   5.099   6.758  0.4182 -0.7241  0.1317
   57SAPC  H10X 4258   2.841   5.135   6.760 -0.0235  0.7408 -1.2265
   57SAPC  H10Y 4259   2.668   5.165   6.700 -1.1323 -1.0006  1.5393
   57SAPC  C311 4260   2.740   4.969   6.678  0.0787  0.1310 -0.3646
   57SAPC  H11X 4261   2.632   4.944   6.670  0.1153 -0.2662  0.3012
   57SAPC  H11Y 4262   2.787   4.889   6.739 -0.3372 -0.9403 -1.4098
   57SAPC  C312 4263   2.808   4.981   6.538 -0.7467 -0.0477  0.0429
   57SAPC  H12X 4264   2.917   4.999   6.552 -0.2743 -1.8350 -1.0474
   57SAPC  H12Y 4265   2.753   5.067   6.493 -0.3478 -0.4547 -1.2585
   57SAPC  C313 4266   2.781   4.862   6.451  0.4097  0.0330 -0.9373
   57SAPC  H13X 4267   2.671   4.844   6.448  0.4828 -0.4951 -0.5935
   57SAPC  H13Y 4268   2.840   4.776   6.488  1.6110  0.5662 -1.5710
   57SAPC  C314 4269   2.813   4.895   6.307  0.4638 -0.2189 -0.2046
   57SAPC  H14X 4270   2.765   4.990   6.276  1.1218  1.1813  2.6812
   57SAPC  H14Y 4271   2.752   4.828   6.243  0.1619  1.6696 -2.0196
   57SAPC  C315 4272   2.961   4.898   6.270  0.4004  0.1300  0.2831
   57SAPC  H15X 4273   2.995   4.797   6.299 -0.7624 -0.2442  0.3997
   57SAPC  H15Y 4274   3.022   4.967   6.332  0.2534  0.0830  0.4797
   57SAPC  C316 4275   2.998   4.907   6.120  0.1599  0.8175 -1.4096
   57SAPC  H16X 4276   2.945   4.825   6.067  0.9636 -2.3326  2.2121
   57SAPC  H16Y 4277   3.107   4.887   6.121  0.0295  0.1157 -1.1313
   57SAPC  C317 4278   2.986   5.034   6.057 -0.1357 -0.3879 -0.3364
   57SAPC  H17X 4279   3.074   5.062   5.995  0.1511 -0.2213  0.1399
   57SAPC  H17Y 4280   2.986   5.108   6.140 -0.9369 -0.9171  0.1403
   57SAPC  C318 4281   2.866   5.056   5.966 -0.4811 -0.4648 -0.1700
   57SAPC  H18X 4282   2.853   4.970   5.897  0.0127 -0.3100 -0.4609
   57SAPC  H18Y 4283   2.883   5.151   5.910 -1.6427  0.5871  1.1841
   57SAPC  H18Z 4284   2.771   5.071   6.022 -0.1210  1.1195  0.0524
   58SAPC     N 4285   1.656   6.340   7.910  0.1435 -0.1596  0.0161
   58SAPC   C12 4286   1.805   6.360   7.886  0.4904  0.4087  0.0621
   58SAPC  H12A 4287   1.852   6.264   7.872 -0.2455 -0.3019  2.1137
   58SAPC  H12B 4288   1.848   6.397   7.978  1.1371  1.3510 -0.5961
   58SAPC   C13 4289   1.580   6.269   7.806 -0.5309 -0.6096  0.0451
   58SAPC  H13A 4290   1.621   6.291   7.709  1.4500 -1.2215  0.6890
   58SAPC  H13B 4291   1.596   6.164   7.824 -0.1738 -0.3259  1.5537
   58SAPC  H13C 4292   1.477   6.293   7.827  0.1784  1.6399  1.3879
   58SAPC   C14 4293   1.639   6.274   8.039 -0.5575 -0.5526  0.0312
   58SAPC  H14A 4294   1.689   6.325   8.120  0.9074  1.0515 -1.7735
   58SAPC  H14B 4295   1.541   6.235   8.062 -0.0103 -2.7073 -1.0796
   58SAPC  H14C 4296   1.697   6.184   8.035 -0.2628 -0.3810  0.3598
   58SAPC   C15 4297   1.593   6.478   7.929  0.3046 -0.1766 -0.1466
   58SAPC  H15A 4298   1.596   6.538   7.839  0.4249  0.6909  0.4236
   58SAPC  H15B 4299   1.488   6.474   7.956  0.1759  0.8791 -0.4201
   58SAPC  H15C 4300   1.641   6.522   8.015 -0.8382  2.1515 -0.6122
   58SAPC   C11 4301   1.844   6.445   7.764 -0.3541 -0.2460  0.2680
   58SAPC  H11A 4302   1.952   6.428   7.744 -0.7965 -0.5185 -2.3207
   58SAPC  H11B 4303   1.825   6.548   7.800 -0.4514 -0.9357  2.3145
   58SAPC     P 4304   1.708   6.506   7.552  0.2161 -0.4079 -0.0911
   58SAPC   O13 4305   1.631   6.427   7.455  0.0452  0.7196 -0.1576
   58SAPC   O14 4306   1.629   6.602   7.633 -0.3106 -0.5017 -0.1549
   58SAPC   O12 4307   1.777   6.406   7.647 -0.6259 -0.5846  0.2128
   58SAPC   O11 4308   1.812   6.589   7.466  0.1111 -0.2315 -0.3907
   58SAPC    C1 4309   1.944   6.547   7.452  0.3948  0.3542 -0.0837
   58SAPC    HA 4310   1.987   6.541   7.554 -1.1817 -1.1769  0.5393
   58SAPC    HB 4311   1.939   6.447   7.404 -3.8938  0.7711 -0.8566
   58SAPC    C2 4312   2.033   6.652   7.375 -0.6517 -0.4342  0.3121
   58SAPC    HS 4313   2.002   6.749   7.421  1.3355 -0.2591  1.3737
   58SAPC   O21 4314   2.011   6.653   7.232 -0.7495  0.0191 -0.5825
   58SAPC   C21 4315   2.078   6.751   7.157 -0.2844 -0.5695 -0.6755
   58SAPC   O22 4316   2.151   6.835   7.202 -0.4968 -0.5840  0.3765
   58SAPC   C22 4317   2.060   6.724   7.008 -0.6744  0.0187  0.8317
   58SAPC   H2R 4318   1.993   6.636   7.006 -1.2375  0.4142  1.6359
   58SAPC   H2S 4319   2.010   6.816   6.969 -1.8493 -1.1621 -0.5618
   58SAPC    C3 4320   2.188   6.614   7.404  0.7531 -0.4844  0.1165
   58SAPC    HX 4321   2.198   6.625   7.514  1.5872  1.0965 -0.0814
   58SAPC    HY 4322   2.261   6.682   7.354  1.1308 -0.8658  0.1393
   58SAPC   O31 4323   2.208   6.473   7.378  0.4614  0.3551  0.5623
   58SAPC   C31 4324   2.250   6.442   7.259  0.5781 -0.1310 -0.2090
   58SAPC   O32 4325   2.275   6.528   7.173  0.2296  0.1111 -0.3047
   58SAPC   C32 4326   2.242   6.291   7.234  0.3871 -0.5168 -0.0049
   58SAPC   H2X 4327   2.216   6.236   7.327 -0.2726 -0.4128 -0.1300
   58SAPC   H2Y 4328   2.341   6.256   7.197  0.1465 -0.8762 -0.3052
   58SAPC   C23 4329   2.197   6.714   6.931  0.5410 -0.1928  0.3333
   58SAPC   H3R 4330   2.256   6.623   6.953  0.6512 -0.4408 -0.9603
   58SAPC   H3S 4331   2.261   6.798   6.965  0.4048  0.0437  0.0127
   58SAPC   C24 4332   2.179   6.753   6.786  1.2922 -0.0476  0.9153
   58SAPC   H4R 4333   2.282   6.729   6.752  0.8057  0.1804 -0.8017
   58SAPC   H4S 4334   2.164   6.863   6.773 -0.1822 -0.3539 -0.2966
   58SAPC   C25 4335   2.067   6.683   6.707 -0.7473  0.2539 -0.6060
   58SAPC   H5R 4336   2.001   6.621   6.770  0.6873  1.9755  2.8381
   58SAPC   C26 4337   2.053   6.688   6.568  0.6719 -0.3585 -0.1950
   58SAPC   H6R 4338   1.971   6.622   6.535 -0.3450  0.1893  1.1375
   58SAPC   C27 4339   2.113   6.764   6.460 -0.8328  0.0998 -0.2624
   58SAPC   H7R 4340   2.192   6.828   6.505 -0.1172 -1.3800  0.6685
   58SAPC   H7S 4341   2.040   6.823   6.400 -2.1752 -0.2290  0.9799
   58SAPC   C28 4342   2.199   6.668   6.384  0.1856  0.1244 -0.1528
   58SAPC   H8R 4343   2.237   6.582   6.441 -1.4866 -0.8631 -0.4604
   58SAPC   C29 4344   2.215   6.661   6.257  0.4164  0.1549 -0.5693
   58SAPC   H9R 4345   2.292   6.590   6.223 -0.9090 -1.1651 -0.9442
   58SAPC  C210 4346   2.160   6.741   6.146 -0.4835  0.2119  0.1527
   58SAPC  H10R 4347   2.242   6.734   6.071  0.8010  0.5612  1.4750
   58SAPC  H10S 4348   2.141   6.846   6.176 -0.2339  0.0969  0.7331
   58SAPC  C211 4349   2.028   6.683   6.095 -0.7478  0.1325 -0.0975
   58SAPC  H11R 4350   1.961   6.638   6.170 -0.0375 -0.3429  0.2613
   58SAPC  C212 4351   1.985   6.671   5.966 -0.2805 -0.3846 -0.0411
   58SAPC  H12R 4352   1.896   6.608   5.949 -0.1945 -0.6301  0.3902
   58SAPC  C213 4353   2.071   6.726   5.852  0.3934  0.3468 -0.1138
   58SAPC  H13R 4354   2.098   6.635   5.794  2.9335  0.2375  1.0995
   58SAPC  H13S 4355   2.167   6.767   5.889  0.9168 -0.3377 -0.7041
   58SAPC  C214 4356   2.000   6.826   5.767  0.1991 -0.2354  0.1570
   58SAPC  H14R 4357   1.911   6.862   5.820 -1.0359 -2.9135  0.0695
   58SAPC  C215 4358   2.035   6.875   5.655 -0.0607  0.3394  0.0208
   58SAPC  H15R 4359   1.963   6.942   5.607 -1.3721 -1.2298 -0.3024
   58SAPC  C216 4360   2.156   6.839   5.569 -0.0206  0.6332  0.8014
   58SAPC  H16R 4361   2.235   6.779   5.618  0.6831  0.8928 -0.0073
   58SAPC  H16S 4362   2.193   6.932   5.520 -1.4909  1.0206  0.3592
   58SAPC  C217 4363   2.119   6.745   5.453 -0.0243 -0.1110  0.2504
   58SAPC  H17R 4364   2.032   6.775   5.390  1.6193  2.1941 -1.0536
   58SAPC  H17S 4365   2.086   6.656   5.511  2.7237 -1.8347 -0.6411
   58SAPC  C218 4366   2.239   6.709   5.363 -0.4535 -0.6120  0.0594
   58SAPC  H18R 4367   2.324   6.675   5.425  0.2172  0.1106 -0.4409
   58SAPC  H18S 4368   2.264   6.802   5.306 -1.4899  0.3447  1.1063
   58SAPC  C219 4369   2.201   6.606   5.248 -0.3557 -0.0463  0.3897
   58SAPC  H19R 4370   2.130   6.530   5.286 -1.2583  0.8946  0.6333
   58SAPC  H19S 4371   2.293   6.556   5.210 -0.1256  1.6844 -1.5374
   58SAPC  C220 4372   2.128   6.677   5.136  0.3072 -0.3736  0.2962
   58SAPC  H20R 4373   2.066   6.759   5.177 -0.2138  0.2397 -1.5898
   58SAPC  H20S 4374   2.058   6.613   5.079  0.4148 -1.0451  0.9044
   58SAPC  H20T 4375   2.198   6.725   5.064  1.0925  0.1213  1.3553
   58SAPC   C33 4376   2.124   6.255   7.139 -0.5857  0.4314 -0.8787
   58SAPC   H3X 4377   2.034   6.316   7.160  0.7190  2.3184 -0.5375
   58SAPC   H3Y 4378   2.098   6.148   7.151  2.8293 -0.3375  0.9622
   58SAPC   C34 4379   2.148   6.284   6.998  0.9293 -0.3324  0.3962
   58SAPC   H4X 4380   2.176   6.390   6.976  0.1504 -0.5442 -1.8789
   58SAPC   H4Y 4381   2.050   6.276   6.947  1.6067 -0.5880 -0.9123
   58SAPC   C35 4382   2.240   6.192   6.913 -0.0607  0.2055 -0.3991
   58SAPC   H5X 4383   2.213   6.088   6.942  2.4190  0.0352  1.6820
   58SAPC   H5Y 4384   2.347   6.216   6.930 -0.1457  0.1797  0.2067
   58SAPC   C36 4385   2.227   6.199   6.760 -0.5746 -0.6968  0.2732
   58SAPC   H6X 4386   2.253   6.300   6.722  3.4140 -0.9738  1.8063
   58SAPC   H6Y 4387   2.125   6.173   6.724 -1.1340  0.7277  0.7682
   58SAPC   C37 4388   2.328   6.108   6.691 -0.0236 -0.3644 -0.4962
   58SAPC   H7X 4389   2.310   5.999   6.709 -2.0080 -0.0037 -0.1327
   58SAPC   H7Y 4390   2.432   6.130   6.724  1.2814  0.9061 -4.8450
   58SAPC   C38 4391   2.333   6.123   6.540 -0.2273 -0.0218  0.2701
   58SAPC   H8X 4392   2.388   6.219   6.526  0.9225 -0.6381  0.4974
   58SAPC   H8Y 4393   2.228   6.131   6.504 -0.3640  0.1840  0.7034
   58SAPC   C39 4394   2.405   6.004   6.473 -0.2468  0.2759 -0.0047
   58SAPC   H9X 4395   2.334   5.926   6.438  0.1077  0.5696 -1.4528
   58SAPC   H9Y 4396   2.467   5.964   6.556 -1.4487 -1.6898  0.0278
   58SAPC  C310 4397   2.480   6.051   6.355  0.6673  0.6748 -0.1513
   58SAPC  H10X 4398   2.563   6.120   6.383  1.5063 -0.2850 -0.2242
   58SAPC  H10Y 4399   2.416   6.104   6.281  1.5720  1.4182 -0.4138
   58SAPC  C311 4400   2.531   5.932   6.270  0.5253 -0.1772 -0.4765
   58SAPC  H11X 4401   2.443   5.874   6.234  1.1269 -0.0718 -2.1991
   58SAPC  H11Y 4402   2.597   5.869   6.333 -0.9671  0.8559  2.2671
   58SAPC  C312 4403   2.606   5.986   6.142 -0.5352 -0.5438 -0.1902
   58SAPC  H12X 4404   2.702   6.018   6.187 -0.0592 -2.6829  0.4494
   58SAPC  H12Y 4405   2.551   6.070   6.096 -1.2780 -1.3422 -0.8055
   58SAPC  C313 4406   2.640   5.881   6.027 -0.0801 -0.9849 -0.4452
   58SAPC  H13X 4407   2.675   5.784   6.069  2.0033 -1.3711 -2.8065
   58SAPC  H13Y 4408   2.723   5.931   5.973  1.2053 -0.1142  2.1909
   58SAPC  C314 4409   2.528   5.855   5.926  0.3633 -0.4667  0.2992
   58SAPC  H14X 4410   2.500   5.947   5.870 -0.6892 -1.7574 -1.3828
   58SAPC  H14Y 4411   2.434   5.828   5.978  0.6845  0.0663  1.1674
   58SAPC  C315 4412   2.554   5.742   5.822  0.1117  0.4176  0.0847
   58SAPC  H15X 4413   2.455   5.700   5.793  0.3876  0.1623 -0.4878
   58SAPC  H15Y 4414   2.597   5.662   5.886 -0.9221  0.9218  1.4624
   58SAPC  C316 4415   2.623   5.773   5.689  0.7246  0.2830 -0.3261
   58SAPC  H16X 4416   2.723   5.817   5.712  0.7287  0.0144  0.1815
   58SAPC  H16Y 4417   2.559   5.857   5.654  0.2321  1.7478  3.4978
   58SAPC  C317 4418   2.643   5.654   5.594 -0.0621  0.1880  0.1124
   58SAPC  H17X 4419   2.705   5.578   5.647 -1.0080  0.2572  1.3735
   58SAPC  H17Y 4420   2.686   5.701   5.503 -0.8827  2.5773  0.8718
   58SAPC  C318 4421   2.513   5.580   5.561 -0.4701  0.3536  0.0707
   58SAPC  H18X 4422   2.530   5.523   5.467 -0.2565 -1.7166  1.3094
   58SAPC  H18Y 4423   2.434   5.658   5.548 -0.3321  0.7104  1.2883
   58SAPC  H18Z 4424   2.472   5.507   5.634  0.4632 -0.1798  0.0680
   59SAPC     N 4425   6.242   2.373   8.071  0.0691  0.1310 -0.6008
   59SAPC   C12 4426   6.204   2.470   8.185 -0.0690  0.1947  0.5475
   59SAPC  H12A 4427   6.296   2.488   8.238  0.9614  0.8985 -1.3635
   59SAPC  H12B 4428   6.137   2.410   8.244 -2.9628  2.5457 -0.0954
   59SAPC   C13 4429   6.312   2.249   8.129 -0.0167  0.1878 -0.3164
   59SAPC  H13A 4430   6.262   2.201   8.212  1.4070 -3.6555 -1.4733
   59SAPC  H13B 4431   6.338   2.179   8.052 -0.6498 -0.7277  0.2783
   59SAPC  H13C 4432   6.407   2.276   8.172 -0.3942 -0.1490  0.7819
   59SAPC   C14 4433   6.118   2.339   7.999 -0.2134  0.5273  0.2037
   59SAPC  H14A 4434   6.064   2.424   7.958  0.7441  0.7710 -0.5931
   59SAPC  H14B 4435   6.136   2.268   7.920 -0.5268  0.1349  0.4838
   59SAPC  H14C 4436   6.039   2.295   8.057 -0.3779  0.8507  0.2262
   59SAPC   C15 4437   6.336   2.436   7.976 -0.1543  0.0884 -0.3398
   59SAPC  H15A 4438   6.353   2.359   7.902 -2.0223 -0.8214  0.1137
   59SAPC  H15B 4439   6.304   2.522   7.919  1.8206  2.1671  1.4662
   59SAPC  H15C 4440   6.430   2.463   8.021  1.0439 -3.3051 -0.4776
   59SAPC   C11 4441   6.132   2.601   8.145  0.2558 -0.5222  0.5090
   59SAPC  H11A 4442   6.116   2.643   8.247  2.0933 -1.4976  1.2590
   59SAPC  H11B 4443   6.025   2.588   8.117 -0.5780  2.1367  2.0777
   59SAPC     P 4444   6.168   2.732   7.917  0.0448 -0.1771  0.0473
   59SAPC   O13 4445   6.093   2.856   7.920 -0.5514 -0.3018  0.0972
   59SAPC   O14 4446   6.287   2.712   7.833 -0.2205 -0.4765 -0.2713
   59SAPC   O12 4447   6.209   2.697   8.061  0.3480  0.0876 -0.5137
   59SAPC   O11 4448   6.072   2.614   7.871 -0.1829 -0.5399  0.4425
   59SAPC    C1 4449   6.052   2.581   7.733  0.0037  0.3839 -0.1907
   59SAPC    HA 4450   6.149   2.570   7.681 -1.0272  1.3653 -2.5298
   59SAPC    HB 4451   6.009   2.479   7.720  1.1566 -0.4322  2.0560
   59SAPC    C2 4452   5.962   2.679   7.652  0.1710 -0.4858  0.3851
   59SAPC    HS 4453   5.935   2.643   7.550  2.2579  2.0045 -1.1644
   59SAPC   O21 4454   6.019   2.807   7.637  0.2279 -0.5350 -0.1153
   59SAPC   C21 4455   6.113   2.803   7.546  0.1938  0.1347  0.3092
   59SAPC   O22 4456   6.145   2.703   7.479  0.2934  0.1912  0.0963
   59SAPC   C22 4457   6.159   2.946   7.525 -0.0349 -0.2571 -0.0382
   59SAPC   H2R 4458   6.178   2.996   7.623 -0.9147  0.6828 -0.3274
   59SAPC   H2S 4459   6.250   2.941   7.462  0.9070 -1.2289  1.3231
   59SAPC    C3 4460   5.820   2.681   7.731 -0.2554 -0.5509 -0.0552
   59SAPC    HX 4461   5.832   2.734   7.827  0.3312 -2.3670  0.9159
   59SAPC    HY 4462   5.795   2.579   7.767  0.1349  0.1407  2.3323
   59SAPC   O31 4463   5.716   2.735   7.642  0.1619 -0.0228 -0.3607
   59SAPC   C31 4464   5.689   2.862   7.657 -0.3168  0.1335 -0.0296
   59SAPC   O32 4465   5.722   2.938   7.748  0.0505  0.2836  0.7850
   59SAPC   C32 4466   5.615   2.913   7.529  0.0413  0.9239 -0.9697
   59SAPC   H2X 4467   5.645   2.840   7.451  1.5841 -0.9237  1.2561
   59SAPC   H2Y 4468   5.661   3.011   7.504 -0.4515  1.7607  1.1761
   59SAPC   C23 4469   6.045   3.028   7.460  0.6529  0.0163  0.1107
   59SAPC   H3R 4470   6.064   3.137   7.470  1.8588 -0.3023  1.7518
   59SAPC   H3S 4471   5.944   3.016   7.505 -0.1039 -0.7010 -1.6532
   59SAPC   C24 4472   6.029   2.995   7.313  0.1049  0.5450  0.1166
   59SAPC   H4R 4473   6.017   2.885   7.307 -1.8880  0.8076 -1.5470
   59SAPC   H4S 4474   6.123   3.020   7.259  3.1532 -2.0875  3.5918
   59SAPC   C25 4475   5.906   3.058   7.250  0.4989 -0.6654 -0.2945
   59SAPC   H5R 4476   5.889   3.161   7.283  2.2403 -0.0561 -1.2195
   59SAPC   C26 4477   5.799   2.996   7.194 -0.2113  0.8028  0.2731
   59SAPC   H6R 4478   5.726   3.054   7.135  0.3828  1.4695  0.1884
   59SAPC   C27 4479   5.795   2.845   7.168 -0.4685 -0.2366 -0.2065
   59SAPC   H7R 4480   5.816   2.798   7.266 -1.6563  2.3637  1.3886
   59SAPC   H7S 4481   5.876   2.803   7.104  0.4762  0.0815  0.7404
   59SAPC   C28 4482   5.665   2.787   7.120 -0.3609  0.9119 -0.2128
   59SAPC   H8R 4483   5.603   2.740   7.198  2.1735  1.2305  2.1252
   59SAPC   C29 4484   5.623   2.774   6.994  1.0029 -0.5389 -0.1393
   59SAPC   H9R 4485   5.519   2.744   6.972  1.1272 -0.5038 -0.7964
   59SAPC  C210 4486   5.696   2.828   6.871 -0.1047  1.1221 -0.6243
   59SAPC  H10R 4487   5.800   2.846   6.905 -0.7703 -0.0697  2.4114
   59SAPC  H10S 4488   5.652   2.925   6.840 -1.1672  1.3440  1.3951
   59SAPC  C211 4489   5.691   2.716   6.760  0.2168  1.2256 -0.9889
   59SAPC  H11R 4490   5.697   2.610   6.786  0.2786  0.8879 -2.2811
   59SAPC  C212 4491   5.678   2.740   6.627 -0.0226 -0.1333  0.0661
   59SAPC  H12R 4492   5.673   2.659   6.553 -0.8977 -0.4143  0.4163
   59SAPC  C213 4493   5.657   2.880   6.566 -0.1120  1.0327 -0.9441
   59SAPC  H13R 4494   5.709   2.876   6.468  1.7038  2.0043 -0.0681
   59SAPC  H13S 4495   5.708   2.952   6.633  0.9216 -1.8950  1.6524
   59SAPC  C214 4496   5.509   2.914   6.551  0.7638  0.1144  0.1560
   59SAPC  H14R 4497   5.446   2.894   6.640  2.4611  0.3893  1.4741
   59SAPC  C215 4498   5.449   2.956   6.436 -0.3028 -0.4340 -0.6131
   59SAPC  H15R 4499   5.346   2.994   6.444 -1.1364 -2.6474 -0.1660
   59SAPC  C216 4500   5.528   2.990   6.310  0.8779 -0.7976  0.3071
   59SAPC  H16R 4501   5.529   2.900   6.244 -0.0163 -1.5586  1.3035
   59SAPC  H16S 4502   5.635   3.016   6.327  0.8060  0.2150 -0.7207
   59SAPC  C217 4503   5.460   3.111   6.240 -0.4634  0.3502 -0.7245
   59SAPC  H17R 4504   5.533   3.148   6.165 -0.7557  0.3024 -1.0338
   59SAPC  H17S 4505   5.442   3.177   6.327 -2.3337 -0.2333 -0.6416
   59SAPC  C218 4506   5.327   3.073   6.177  0.5980  0.1362 -0.2862
   59SAPC  H18R 4507   5.264   3.032   6.259 -0.1793 -1.0599 -1.4460
   59SAPC  H18S 4508   5.326   2.988   6.106  0.1496 -1.5484  1.6574
   59SAPC  C219 4509   5.246   3.180   6.103 -0.0770 -0.8268  0.9505
   59SAPC  H19R 4510   5.313   3.258   6.062 -1.6798  1.2440  2.0656
   59SAPC  H19S 4511   5.184   3.234   6.178 -0.5644 -0.6118  0.3968
   59SAPC  C220 4512   5.139   3.134   5.999  0.5425 -0.0099  0.1022
   59SAPC  H20R 4513   5.179   3.088   5.906 -5.5285 -1.5871 -2.1652
   59SAPC  H20S 4514   5.074   3.217   5.965 -0.2186 -1.1634 -1.3314
   59SAPC  H20T 4515   5.075   3.057   6.046 -0.9805  0.3229 -1.3529
   59SAPC   C33 4516   5.466   2.930   7.562 -0.0255  0.8799  0.1754
   59SAPC   H3X 4517   5.459   3.007   7.643  0.3359 -0.0040  1.0624
   59SAPC   H3Y 4518   5.433   2.836   7.610 -0.4650  0.4293 -0.9996
   59SAPC   C34 4519   5.360   2.957   7.445 -0.0330  0.2195 -0.4072
   59SAPC   H4X 4520   5.265   2.989   7.491  0.5217  0.2990  0.7253
   59SAPC   H4Y 4521   5.332   2.866   7.388  1.3576 -1.5051  1.5293
   59SAPC   C35 4522   5.405   3.072   7.360  0.1569 -0.1182  0.4567
   59SAPC   H5X 4523   5.505   3.053   7.317 -0.0259  1.0691 -0.5601
   59SAPC   H5Y 4524   5.419   3.156   7.431  0.3443  0.8143 -0.6575
   59SAPC   C36 4525   5.310   3.107   7.242  0.1708  0.0758  0.0486
   59SAPC   H6X 4526   5.337   3.201   7.191 -2.5029  0.1098 -1.5285
   59SAPC   H6Y 4527   5.206   3.114   7.282  0.5137 -1.8068  1.4360
   59SAPC   C37 4528   5.322   3.002   7.135 -0.2933  0.2957  0.7809
   59SAPC   H7X 4529   5.285   2.904   7.171 -0.1046  0.5233  1.6323
   59SAPC   H7Y 4530   5.426   2.999   7.098 -0.0849 -0.3361  1.3924
   59SAPC   C38 4531   5.229   3.052   7.018  0.3922  0.1640 -0.3091
   59SAPC   H8X 4532   5.281   3.138   6.971 -1.1356  1.1757 -0.1984
   59SAPC   H8Y 4533   5.129   3.073   7.061  0.1578 -1.7364  0.1658
   59SAPC   C39 4534   5.207   2.964   6.903  0.2075 -0.6558  0.0329
   59SAPC   H9X 4535   5.151   2.874   6.937 -0.2252  0.2375  1.8310
   59SAPC   H9Y 4536   5.309   2.930   6.876 -0.4094 -0.3505 -2.9842
   59SAPC  C310 4537   5.132   3.023   6.779 -0.3353 -0.5492 -0.0774
   59SAPC  H10X 4538   5.188   3.116   6.754  0.1241 -0.8976 -0.3446
   59SAPC  H10Y 4539   5.026   3.049   6.801 -0.1595 -1.2901  1.8790
   59SAPC  C311 4540   5.136   2.939   6.651 -0.4380  0.2338  1.1450
   59SAPC  H11X 4541   5.068   2.855   6.676  1.6448 -2.0816 -0.4822
   59SAPC  H11Y 4542   5.237   2.895   6.635 -0.4980  0.4753  0.0486
   59SAPC  C312 4543   5.100   3.013   6.525 -0.7437  0.1309 -0.2011
   59SAPC  H12X 4544   5.118   2.951   6.435  0.8387  2.3579 -1.5050
   59SAPC  H12Y 4545   5.168   3.100   6.534 -0.0429 -0.3887 -0.3593
   59SAPC  C313 4546   4.950   3.043   6.523  0.4786 -0.8441  0.8116
   59SAPC  H13X 4547   4.921   3.107   6.608  0.0880 -0.2939  0.2662
   59SAPC  H13Y 4548   4.899   2.945   6.534  0.9180 -1.1739 -0.0005
   59SAPC  C314 4549   4.921   3.112   6.385 -0.0674  0.2244 -0.1789
   59SAPC  H14X 4550   4.944   3.047   6.297 -1.3553  0.3469 -0.6236
   59SAPC  H14Y 4551   4.977   3.208   6.391 -0.7133  0.5259  1.7527
   59SAPC  C315 4552   4.777   3.162   6.373 -0.2638 -0.4701 -0.2919
   59SAPC  H15X 4553   4.760   3.257   6.427 -0.6205 -1.3907  1.2769
   59SAPC  H15Y 4554   4.715   3.085   6.424 -0.0339 -1.6302 -1.6922
   59SAPC  C316 4555   4.729   3.189   6.227  0.7969  0.2579 -0.3041
   59SAPC  H16X 4556   4.624   3.227   6.235  0.2568 -1.4764  2.9055
   59SAPC  H16Y 4557   4.733   3.100   6.161  0.6064 -0.8914  1.1705
   59SAPC  C317 4558   4.798   3.314   6.164  0.3184  0.0215 -0.2911
   59SAPC  H17X 4559   4.897   3.267   6.145 -0.3646 -2.7196  2.1887
   59SAPC  H17Y 4560   4.809   3.400   6.234 -0.6249  0.3771 -0.5707
   59SAPC  C318 4561   4.724   3.364   6.043 -0.1370 -0.4505 -0.8036
   59SAPC  H18X 4562   4.620   3.393   6.071 -0.3619 -0.9715 -1.0890
   59SAPC  H18Y 4563   4.714   3.292   5.959 -0.1229 -1.0809 -0.2672
   59SAPC  H18Z 4564   4.766   3.458   6.000  1.6791 -1.5345 -1.5072
   60SAPC     N 4565   2.075   3.307   8.393 -0.5388 -0.0738  0.0344
   60SAPC   C12 4566   2.103   3.288   8.246  0.1398 -0.3371  0.4318
   60SAPC  H12A 4567   2.209   3.297   8.226 -0.0403  0.1806 -0.2862
   60SAPC  H12B 4568   2.054   3.372   8.201  2.0850  0.7461  0.2084
   60SAPC   C13 4569   1.928   3.304   8.425  0.4059 -0.5734  0.1860
   60SAPC  H13A 4570   1.901   3.315   8.529 -1.9898 -2.2989 -0.1600
   60SAPC  H13B 4571   1.868   3.367   8.360 -1.7795  1.4841  3.8573
   60SAPC  H13C 4572   1.899   3.202   8.405  0.9547 -0.7125  0.1033
   60SAPC   C14 4573   2.145   3.206   8.477  0.4793  0.9802 -1.0473
   60SAPC  H14A 4574   2.125   3.201   8.583 -0.7048 -0.4524 -1.3152
   60SAPC  H14B 4575   2.112   3.110   8.440  0.3569 -0.4774  2.4362
   60SAPC  H14C 4576   2.251   3.196   8.455  0.5539  1.0295 -0.7189
   60SAPC   C15 4577   2.126   3.435   8.442 -0.0332 -0.7061  0.2670
   60SAPC  H15A 4578   2.226   3.462   8.412 -0.2182  0.9077  0.9838
   60SAPC  H15B 4579   2.057   3.514   8.414 -1.6783 -1.0902  2.8783
   60SAPC  H15C 4580   2.124   3.443   8.549 -0.0078 -0.7921  0.2738
   60SAPC   C11 4581   2.055   3.157   8.174 -0.0092 -0.2916 -0.0528
   60SAPC  H11A 4582   2.098   3.075   8.236  0.8286  0.2913  0.1559
   60SAPC  H11B 4583   2.100   3.149   8.073  0.3773  1.5387 -0.0621
   60SAPC     P 4584   1.830   3.226   8.076 -0.2819 -0.4493 -0.1442
   60SAPC   O13 4585   1.702   3.261   8.144 -0.1096  0.2401 -0.3508
   60SAPC   O14 4586   1.908   3.339   8.025  0.0371  0.5260 -0.0695
   60SAPC   O12 4587   1.911   3.141   8.176  0.0213 -0.0381 -0.4868
   60SAPC   O11 4588   1.779   3.135   7.958 -0.2523  0.0371 -0.5005
   60SAPC    C1 4589   1.872   3.058   7.881 -0.3677  0.2031  0.1911
   60SAPC    HA 4590   1.976   3.056   7.920  0.3563  2.5612 -1.4165
   60SAPC    HB 4591   1.836   2.955   7.860 -1.9915  0.9055 -0.6365
   60SAPC    C2 4592   1.883   3.113   7.736  0.5423  0.4393  0.7039
   60SAPC    HS 4593   1.928   3.214   7.731  1.9721 -0.2170 -0.8435
   60SAPC   O21 4594   1.760   3.115   7.681 -0.5256 -0.5181 -0.0484
   60SAPC   C21 4595   1.710   3.223   7.627  0.2102  0.4066  0.0396
   60SAPC   O22 4596   1.752   3.338   7.625 -0.1820 -0.3633 -0.0885
   60SAPC   C22 4597   1.578   3.178   7.570  0.0735 -0.0560  0.1031
   60SAPC   H2R 4598   1.595   3.082   7.518 -0.1149  0.0138 -0.0866
   60SAPC   H2S 4599   1.520   3.167   7.664  1.0436  0.3962  0.7726
   60SAPC    C3 4600   1.975   3.022   7.653 -0.7458  0.2063  0.3559
   60SAPC    HX 4601   1.939   2.916   7.648  3.4265 -1.4238  1.2117
   60SAPC    HY 4602   2.074   3.025   7.702 -1.1792 -1.1082  1.3726
   60SAPC   O31 4603   2.009   3.069   7.520  0.4235 -0.4458 -0.6136
   60SAPC   C31 4604   1.934   3.032   7.418 -0.7057 -0.1220  0.2260
   60SAPC   O32 4605   1.829   2.977   7.422  0.0680  0.1519  0.2395
   60SAPC   C32 4606   2.011   3.075   7.289 -0.1625  0.2344 -1.3630
   60SAPC   H2X 4607   2.088   2.996   7.275  0.3756  0.2530  1.0623
   60SAPC   H2Y 4608   2.065   3.167   7.318 -1.6633  0.2227  2.0200
   60SAPC   C23 4609   1.514   3.278   7.472 -0.1201  0.1583  1.1160
   60SAPC   H3R 4610   1.517   3.380   7.517 -0.1304  0.9565 -0.6058
   60SAPC   H3S 4611   1.413   3.243   7.443  0.2006 -0.4138  0.6732
   60SAPC   C24 4612   1.597   3.291   7.340  0.1204  0.1468 -0.0698
   60SAPC   H4R 4613   1.573   3.217   7.260 -0.0650  0.5420 -0.3807
   60SAPC   H4S 4614   1.698   3.262   7.376 -0.8168 -0.5363  2.1867
   60SAPC   C25 4615   1.621   3.426   7.279  0.0670  0.0410 -0.1037
   60SAPC   H5R 4616   1.675   3.495   7.345  2.0502 -0.8171 -0.7465
   60SAPC   C26 4617   1.573   3.471   7.157 -0.5675  0.0272 -0.5981
   60SAPC   H6R 4618   1.613   3.566   7.120  0.4184 -0.7278 -1.5422
   60SAPC   C27 4619   1.473   3.403   7.068  0.1618 -0.0172 -0.3184
   60SAPC   H7R 4620   1.394   3.357   7.131 -0.4676  0.7266 -0.5474
   60SAPC   H7S 4621   1.523   3.314   7.024 -0.3541 -0.2271 -0.4787
   60SAPC   C28 4622   1.413   3.503   6.980 -0.0250  0.4048  0.4285
   60SAPC   H8R 4623   1.389   3.593   7.038  1.4225  0.8829  0.3149
   60SAPC   C29 4624   1.436   3.501   6.847  0.0805  0.0343  0.4494
   60SAPC   H9R 4625   1.393   3.582   6.787 -0.0928 -1.1372 -1.0637
   60SAPC  C210 4626   1.502   3.392   6.773  0.1329 -0.0685 -0.3191
   60SAPC  H10R 4627   1.594   3.355   6.824 -0.2975 -0.9158 -0.1387
   60SAPC  H10S 4628   1.547   3.433   6.680  2.1276  2.5683  1.6691
   60SAPC  C211 4629   1.416   3.275   6.741 -0.0068  0.0334  0.2144
   60SAPC  H11R 4630   1.422   3.206   6.826 -0.6483 -0.5552 -0.2062
   60SAPC  C212 4631   1.324   3.270   6.646 -0.0830 -0.5205  1.0399
   60SAPC  H12R 4632   1.274   3.173   6.633 -0.2234 -0.2357 -0.8606
   60SAPC  C213 4633   1.302   3.366   6.534  0.7333  0.2303  0.6407
   60SAPC  H13R 4634   1.374   3.451   6.543 -0.4645  1.4342 -0.6442
   60SAPC  H13S 4635   1.201   3.409   6.548  0.7343 -0.1951  2.1239
   60SAPC  C214 4636   1.305   3.304   6.392  0.2161  0.9390 -0.6763
   60SAPC  H14R 4637   1.278   3.198   6.385  0.0225  0.9418 -0.0422
   60SAPC  C215 4638   1.339   3.360   6.274  0.2392 -0.3310 -0.1482
   60SAPC  H15R 4639   1.321   3.307   6.180 -0.8729  1.4966 -1.0244
   60SAPC  C216 4640   1.392   3.497   6.249  0.0139  0.2221  0.1837
   60SAPC  H16R 4641   1.479   3.492   6.179  0.9188  1.1506  1.1958
   60SAPC  H16S 4642   1.444   3.530   6.342  0.8843 -1.2885  0.2621
   60SAPC  C217 4643   1.289   3.595   6.210  0.2161 -0.4614 -0.4550
   60SAPC  H17R 4644   1.219   3.604   6.297  1.1055  2.5499  0.0672
   60SAPC  H17S 4645   1.217   3.568   6.130 -1.0432 -0.2560  0.5556
   60SAPC  C218 4646   1.349   3.735   6.184 -0.0542  0.0650  0.3746
   60SAPC  H18R 4647   1.459   3.736   6.170 -0.3263  2.3912 -2.6760
   60SAPC  H18S 4648   1.339   3.798   6.275 -1.8455  0.7166 -0.2338
   60SAPC  C219 4649   1.280   3.805   6.067  0.5182 -0.4799  0.5024
   60SAPC  H19R 4650   1.330   3.903   6.056  0.0837 -0.2334  0.6824
   60SAPC  H19S 4651   1.174   3.817   6.099  0.2862 -1.6118  0.2091
   60SAPC  C220 4652   1.292   3.717   5.941  0.3926 -0.1238 -0.1478
   60SAPC  H20R 4653   1.236   3.749   5.851  1.4970  1.1168 -0.4286
   60SAPC  H20S 4654   1.264   3.611   5.956  0.2102  0.1479  1.5726
   60SAPC  H20T 4655   1.397   3.718   5.905  0.2099 -2.1189 -0.8896
   60SAPC   C33 4656   1.923   3.095   7.164 -0.0974  0.1587  0.0639
   60SAPC   H3X 4657   1.848   3.172   7.193  1.5437  1.9294 -0.2095
   60SAPC   H3Y 4658   1.879   2.998   7.131  1.9411 -0.0768 -2.2435
   60SAPC   C34 4659   2.012   3.139   7.043  0.5537 -0.2648 -0.0202
   60SAPC   H4X 4660   2.082   3.056   7.022 -0.1023 -1.2941  1.7237
   60SAPC   H4Y 4661   2.068   3.234   7.060  2.3805 -0.9291 -1.9547
   60SAPC   C35 4662   1.928   3.166   6.913  0.3706  0.7322  0.0751
   60SAPC   H5X 4663   1.848   3.242   6.927 -0.7682 -0.5552  0.8384
   60SAPC   H5Y 4664   1.865   3.075   6.903  0.3168  0.5894  1.5011
   60SAPC   C36 4665   2.016   3.189   6.787  0.5153  0.3623 -0.3061
   60SAPC   H6X 4666   2.100   3.117   6.784 -0.2501 -0.8702  2.9099
   60SAPC   H6Y 4667   2.063   3.289   6.786  0.4975  0.3727 -0.0982
   60SAPC   C37 4668   1.948   3.156   6.650 -0.4586 -0.2049 -0.6299
   60SAPC   H7X 4669   1.914   3.050   6.643 -2.4911  0.3784 -0.1335
   60SAPC   H7Y 4670   2.021   3.188   6.573 -0.8218  0.4509 -0.7046
   60SAPC   C38 4671   1.827   3.248   6.630  0.4751 -0.0199  0.1788
   60SAPC   H8X 4672   1.861   3.350   6.656  0.4280 -0.6894  3.2252
   60SAPC   H8Y 4673   1.744   3.224   6.701  0.8723 -0.7469  0.4127
   60SAPC   C39 4674   1.756   3.244   6.490 -0.3847  0.3726 -1.0777
   60SAPC   H9X 4675   1.826   3.303   6.428 -1.5058  0.6776 -2.0824
   60SAPC   H9Y 4676   1.654   3.287   6.485 -0.2355  0.9051 -0.0056
   60SAPC  C310 4677   1.751   3.103   6.434 -0.4764  0.1222 -0.0596
   60SAPC  H10X 4678   1.719   3.022   6.503  3.0165 -0.4358  1.0641
   60SAPC  H10Y 4679   1.857   3.078   6.415 -0.3649 -0.3738  1.1170
   60SAPC  C311 4680   1.674   3.088   6.298 -0.0179  0.7696 -0.0589
   60SAPC  H11X 4681   1.574   3.135   6.311 -1.3010 -1.4799 -1.0890
   60SAPC  H11Y 4682   1.644   2.981   6.291  1.2790  0.4013 -0.1759
   60SAPC  C312 4683   1.741   3.146   6.172 -0.6228 -0.0895 -0.2128
   60SAPC  H12X 4684   1.742   3.257   6.178  0.5676 -0.1227  0.4653
   60SAPC  H12Y 4685   1.666   3.137   6.090 -1.2198 -0.3599  0.3566
   60SAPC  C313 4686   1.865   3.064   6.133 -0.5202 -0.4281  0.3158
   60SAPC  H13X 4687   1.835   2.957   6.122 -0.4041 -0.2222 -4.7066
   60SAPC  H13Y 4688   1.942   3.086   6.210  0.8903  0.1454 -1.1931
   60SAPC  C314 4689   1.920   3.103   5.996 -0.5040  0.2570  0.0516
   60SAPC  H14X 4690   1.992   3.187   6.006 -1.6233  1.5666 -2.1287
   60SAPC  H14Y 4691   1.835   3.139   5.934  0.2384  0.9676 -0.5623
   60SAPC  C315 4692   1.982   2.991   5.921  0.7382  0.0050  0.3092
   60SAPC  H15X 4693   1.900   2.917   5.914  0.3103  0.4529  0.4910
   60SAPC  H15Y 4694   2.063   2.943   5.979  0.6044  0.7272  1.1180
   60SAPC  C316 4695   2.032   3.031   5.786  0.3003 -0.2595  0.0454
   60SAPC  H16X 4696   2.108   2.953   5.765 -0.5358 -0.5843 -1.9759
   60SAPC  H16Y 4697   2.080   3.130   5.803 -2.8994  1.4500 -0.0383
   60SAPC  C317 4698   1.938   3.032   5.668  1.1349 -0.1891  0.6704
   60SAPC  H17X 4699   1.852   2.962   5.679  0.3755  0.0957 -2.5310
   60SAPC  H17Y 4700   1.979   2.992   5.573  0.2883 -0.5617  0.4572
   60SAPC  C318 4701   1.878   3.173   5.641 -0.4773  0.5312 -0.1801
   60SAPC  H18X 4702   1.961   3.246   5.645 -1.1643  1.3470 -0.4698
   60SAPC  H18Y 4703   1.812   3.198   5.726 -2.0338 -0.3134 -1.0867
   60SAPC  H18Z 4704   1.815   3.185   5.550 -2.3999  1.7750  1.2209
   61SAPC     N 4705   3.947   1.314   8.265 -0.0340  0.4165  0.4048
   61SAPC   C12 4706   3.920   1.382   8.129  0.3768  0.7301  0.0741
   61SAPC  H12A 4707   4.012   1.422   8.089 -0.9566  2.6873 -1.2162
   61SAPC  H12B 4708   3.859   1.470   8.144 -1.1920 -0.0564 -1.3667
   61SAPC   C13 4709   4.025   1.414   8.345  0.3383  0.1276  0.4365
   61SAPC  H13A 4710   4.099   1.457   8.279 -1.6276  0.5246 -1.6081
   61SAPC  H13B 4711   3.969   1.496   8.387  1.1771  1.0301 -0.1630
   61SAPC  H13C 4712   4.072   1.373   8.433  1.9625  0.6912 -0.1174
   61SAPC   C14 4713   3.816   1.290   8.342 -0.0545  0.0622  0.7996
   61SAPC  H14A 4714   3.778   1.390   8.357 -0.2450  0.0820  0.2219
   61SAPC  H14B 4715   3.761   1.226   8.274  3.4407 -1.1955 -1.0765
   61SAPC  H14C 4716   3.831   1.243   8.438 -0.1973  1.8686  1.7469
   61SAPC   C15 4717   4.027   1.178   8.251 -0.1025  0.3436  0.6962
   61SAPC  H15A 4718   3.976   1.113   8.181 -1.5017  1.5264  0.5791
   61SAPC  H15B 4719   4.125   1.206   8.215 -0.0109  1.0695  1.5005
   61SAPC  H15C 4720   4.037   1.119   8.341  0.2976  1.1991  1.2285
   61SAPC   C11 4721   3.845   1.301   8.028  0.3888 -0.2471  0.0063
   61SAPC  H11A 4722   3.903   1.207   8.015  2.2036  0.9526 -1.1627
   61SAPC  H11B 4723   3.857   1.358   7.933 -1.3831  0.3257  0.0907
   61SAPC     P 4724   3.589   1.385   8.017 -0.1879 -0.4543  0.1612
   61SAPC   O13 4725   3.461   1.316   8.026  0.8026 -0.4637  0.2399
   61SAPC   O14 4726   3.598   1.509   8.105  0.5206 -0.2840  0.1252
   61SAPC   O12 4727   3.704   1.274   8.050 -0.3479  0.1051  0.4255
   61SAPC   O11 4728   3.622   1.419   7.866 -0.6265 -0.3487 -0.3614
   61SAPC    C1 4729   3.615   1.314   7.766 -0.2102  0.2801 -0.0730
   61SAPC    HA 4730   3.656   1.222   7.811 -0.0628  0.3430 -0.0796
   61SAPC    HB 4731   3.507   1.310   7.736 -1.8585  0.8016  4.9548
   61SAPC    C2 4732   3.699   1.341   7.636  0.0200 -0.7559  0.4205
   61SAPC    HS 4733   3.803   1.355   7.672  0.0852  0.0775 -0.0605
   61SAPC   O21 4734   3.648   1.453   7.565  0.7818  0.2560 -0.0279
   61SAPC   C21 4735   3.733   1.536   7.512  0.2768  0.1256 -0.7421
   61SAPC   O22 4736   3.854   1.527   7.514  0.2607 -0.1553 -0.7080
   61SAPC   C22 4737   3.651   1.642   7.449  0.2072 -0.1069  0.5562
   61SAPC   H2R 4738   3.564   1.604   7.392 -0.4799  0.6789  1.0589
   61SAPC   H2S 4739   3.616   1.716   7.524 -0.8125 -0.2008  0.1832
   61SAPC    C3 4740   3.690   1.213   7.544 -1.0638  0.3078  0.0175
   61SAPC    HX 4741   3.583   1.188   7.529 -1.0435  0.0066  0.3472
   61SAPC    HY 4742   3.732   1.124   7.596  0.6630  0.5144 -0.9461
   61SAPC   O31 4743   3.747   1.242   7.423  0.6100  0.3537  0.5344
   61SAPC   C31 4744   3.882   1.212   7.423 -0.6731  0.0551 -0.0575
   61SAPC   O32 4745   3.937   1.157   7.517  0.3011 -0.3005 -0.1781
   61SAPC   C32 4746   3.935   1.242   7.282  0.2962  0.8396  0.0884
   61SAPC   H2X 4747   3.951   1.352   7.283 -0.5913  0.9710  0.8230
   61SAPC   H2Y 4748   3.863   1.207   7.205 -0.9129 -0.2952  1.6629
   61SAPC   C23 4749   3.735   1.723   7.347 -0.6461  0.6235  0.6794
   61SAPC   H3R 4750   3.801   1.653   7.290  0.4030  1.5009  0.7743
   61SAPC   H3S 4751   3.800   1.792   7.405  0.9559 -0.5161  0.3388
   61SAPC   C24 4752   3.657   1.801   7.235  0.1640  0.2770  0.5235
   61SAPC   H4R 4753   3.582   1.868   7.282 -0.1850 -0.2907  0.7851
   61SAPC   H4S 4754   3.603   1.721   7.180  1.4060  0.1977 -0.6440
   61SAPC   C25 4755   3.752   1.876   7.147 -0.6273  0.4793 -0.1979
   61SAPC   H5R 4756   3.790   1.977   7.170  2.3621 -0.3529 -0.9719
   61SAPC   C26 4757   3.778   1.852   7.022 -0.3471 -0.3388  0.0009
   61SAPC   H6R 4758   3.842   1.920   6.963  0.6814 -1.9365 -0.7887
   61SAPC   C27 4759   3.718   1.742   6.932 -0.5517  0.0090 -0.9318
   61SAPC   H7R 4760   3.616   1.772   6.900 -0.5552  0.8231 -0.1911
   61SAPC   H7S 4761   3.694   1.659   7.001  1.1669  0.7993  0.7234
   61SAPC   C28 4762   3.803   1.694   6.809 -0.5966 -0.3752 -0.2402
   61SAPC   H8R 4763   3.858   1.599   6.815  3.0743  1.5372 -0.7587
   61SAPC   C29 4764   3.815   1.760   6.698 -0.0443  0.1209 -0.8180
   61SAPC   H9R 4765   3.867   1.711   6.613  2.8284 -0.7506  1.2925
   61SAPC  C210 4766   3.739   1.885   6.666 -0.2793  0.5454 -0.2550
   61SAPC  H10R 4767   3.643   1.889   6.722  1.1032  2.1646  2.1684
   61SAPC  H10S 4768   3.693   1.862   6.567 -3.0494 -1.4231  1.3455
   61SAPC  C211 4769   3.812   2.015   6.647  0.1651 -0.1534  0.0998
   61SAPC  H11R 4770   3.892   2.023   6.722 -0.8598  0.8731  1.1277
   61SAPC  C212 4771   3.815   2.089   6.534 -0.6417 -0.4219 -0.1932
   61SAPC  H12R 4772   3.859   2.190   6.545  0.3520 -0.6177 -2.0503
   61SAPC  C213 4773   3.745   2.061   6.404 -0.7236  0.1455  0.8394
   61SAPC  H13R 4774   3.637   2.076   6.420 -1.8161 -3.5343 -1.6447
   61SAPC  H13S 4775   3.747   1.951   6.383 -1.9603  0.3637 -0.6186
   61SAPC  C214 4776   3.811   2.142   6.289 -0.3115 -0.0321 -0.4043
   61SAPC  H14R 4777   3.920   2.127   6.284 -0.0664  1.7399 -1.2805
   61SAPC  C215 4778   3.756   2.208   6.189 -0.1490  0.8942 -0.1708
   61SAPC  H15R 4779   3.821   2.245   6.109 -2.1670  3.5299 -0.7477
   61SAPC  C216 4780   3.608   2.220   6.164 -0.1453  1.0368 -0.0257
   61SAPC  H16R 4781   3.598   2.330   6.180  1.6582  1.4521 -1.3295
   61SAPC  H16S 4782   3.542   2.172   6.239  0.3482  0.2264 -0.0979
   61SAPC  C217 4783   3.557   2.181   6.021 -0.0981 -0.6476  0.3191
   61SAPC  H17R 4784   3.446   2.186   6.022 -0.0810  2.0392  2.6293
   61SAPC  H17S 4785   3.583   2.074   6.004  0.8859 -0.6443  1.6104
   61SAPC  C218 4786   3.617   2.246   5.901  0.5514 -0.3312  0.6038
   61SAPC  H18R 4787   3.592   2.194   5.806  1.4912  0.2440  0.0240
   61SAPC  H18S 4788   3.724   2.220   5.917  0.4609 -1.5581 -0.6191
   61SAPC  C219 4789   3.597   2.398   5.887 -0.0574  0.4127 -0.2782
   61SAPC  H19R 4790   3.607   2.442   5.988  0.4153 -2.3601  0.9666
   61SAPC  H19S 4791   3.498   2.418   5.840  0.1973  1.6091 -0.3446
   61SAPC  C220 4792   3.714   2.464   5.815  0.0457 -0.0104 -0.4251
   61SAPC  H20R 4793   3.709   2.443   5.707 -0.6869 -0.4376 -0.3139
   61SAPC  H20S 4794   3.809   2.425   5.857  0.3354 -0.9815 -1.9180
   61SAPC  H20T 4795   3.723   2.575   5.825  0.8821 -0.0161 -1.0307
   61SAPC   C33 4796   4.079   1.193   7.235  0.0156  0.1978  0.6220
   61SAPC   H3X 4797   4.082   1.084   7.215 -0.9533  0.2050  0.3669
   61SAPC   H3Y 4798   4.143   1.237   7.315  0.1643  0.6260  0.2670
   61SAPC   C34 4799   4.125   1.268   7.107 -0.2626 -0.8462  0.1764
   61SAPC   H4X 4800   4.213   1.210   7.069 -1.2449 -3.0912  1.1554
   61SAPC   H4Y 4801   4.146   1.374   7.133 -2.0339 -0.5517  0.4808
   61SAPC   C35 4802   4.038   1.269   6.985 -0.3086  0.2875  0.5366
   61SAPC   H5X 4803   3.955   1.340   7.002 -0.5997  0.2077 -0.4895
   61SAPC   H5Y 4804   3.995   1.167   6.976 -0.6523  0.2791  2.0432
   61SAPC   C36 4805   4.105   1.305   6.853 -0.4805  0.1821 -0.1419
   61SAPC   H6X 4806   4.188   1.234   6.832 -0.9677  0.1914 -2.3274
   61SAPC   H6Y 4807   4.159   1.402   6.860 -1.9938  1.1404 -1.1332
   61SAPC   C37 4808   4.005   1.300   6.741 -0.6582  0.0898  0.0925
   61SAPC   H7X 4809   3.931   1.379   6.769  1.3069  2.1143 -0.0812
   61SAPC   H7Y 4810   3.969   1.196   6.746  0.3779 -0.2457  1.2268
   61SAPC   C38 4811   4.068   1.332   6.598 -0.3433 -0.5003 -0.1479
   61SAPC   H8X 4812   4.136   1.248   6.572  0.4053  0.3233 -0.8912
   61SAPC   H8Y 4813   4.118   1.431   6.597 -1.8542  0.3724  2.1514
   61SAPC   C39 4814   3.960   1.336   6.486 -0.7883  0.1893  0.4158
   61SAPC   H9X 4815   3.904   1.242   6.506 -3.0554  0.5338 -3.3981
   61SAPC   H9Y 4816   4.004   1.325   6.384 -0.6468 -0.8181  0.5668
   61SAPC  C310 4817   3.859   1.450   6.489  0.1660  0.0882  0.0384
   61SAPC  H10X 4818   3.921   1.539   6.514  0.2840 -0.0800  0.3617
   61SAPC  H10Y 4819   3.786   1.437   6.572 -3.5321  2.7155 -2.5023
   61SAPC  C311 4820   3.794   1.483   6.354 -0.5355  0.7325  0.1825
   61SAPC  H11X 4821   3.718   1.560   6.377  0.0039  1.3419 -0.0407
   61SAPC  H11Y 4822   3.744   1.395   6.309  0.2603  1.3484 -2.0343
   61SAPC  C312 4823   3.877   1.552   6.244  0.1797  0.1987 -0.3602
   61SAPC  H12X 4824   3.965   1.494   6.208  0.8985  1.3674 -0.5196
   61SAPC  H12Y 4825   3.906   1.652   6.281 -0.3585  0.2752 -0.1370
   61SAPC  C313 4826   3.790   1.571   6.123 -0.4952 -0.7460 -0.7017
   61SAPC  H13X 4827   3.692   1.603   6.165  0.1203  0.0635  0.1637
   61SAPC  H13Y 4828   3.790   1.475   6.067  3.5143 -1.5283  0.2967
   61SAPC  C314 4829   3.835   1.693   6.033 -0.1094 -0.0410  0.1598
   61SAPC  H14X 4830   3.936   1.662   6.001 -0.8154 -3.7354  1.0200
   61SAPC  H14Y 4831   3.833   1.789   6.090  0.5540 -0.4350  0.8702
   61SAPC  C315 4832   3.740   1.713   5.912 -0.1256  0.2257  0.1157
   61SAPC  H15X 4833   3.639   1.731   5.955 -0.2884 -2.2900  0.9979
   61SAPC  H15Y 4834   3.728   1.617   5.857 -4.7116  0.1662  0.8092
   61SAPC  C316 4835   3.784   1.830   5.824  0.2374 -0.0878  0.0140
   61SAPC  H16X 4836   3.888   1.819   5.784 -0.3274  0.6665 -1.7480
   61SAPC  H16Y 4837   3.774   1.926   5.879 -1.6973  0.4079 -1.1229
   61SAPC  C317 4838   3.701   1.847   5.696  0.3762  0.6745 -0.2067
   61SAPC  H17X 4839   3.731   1.944   5.652 -1.1921  1.1528 -0.2647
   61SAPC  H17Y 4840   3.595   1.867   5.722 -0.3022 -1.3804 -1.1680
   61SAPC  C318 4841   3.711   1.735   5.594 -0.8528  0.3930 -0.3322
   61SAPC  H18X 4842   3.816   1.710   5.569 -1.5633 -2.7854 -0.5500
   61SAPC  H18Y 4843   3.672   1.752   5.491  0.9989  0.3326 -1.0700
   61SAPC  H18Z 4844   3.656   1.648   5.635  0.9308 -1.2511 -1.2667
   62SAPC     N 4845   5.939   1.548   8.187 -0.0738 -0.0482  0.8962
   62SAPC   C12 4846   5.861   1.670   8.143 -0.1598 -0.9877  0.1593
   62SAPC  H12A 4847   5.926   1.740   8.092 -1.2588 -2.1514 -3.0557
   62SAPC  H12B 4848   5.828   1.716   8.235 -1.6316  0.7416 -1.1568
   62SAPC   C13 4849   5.855   1.486   8.290 -0.1392  0.6472  0.1440
   62SAPC  H13A 4850   5.888   1.385   8.311 -0.7941  0.1844 -0.9950
   62SAPC  H13B 4851   5.858   1.546   8.380  1.5049  0.5698  0.1808
   62SAPC  H13C 4852   5.757   1.482   8.247  0.2121  1.4100 -0.7584
   62SAPC   C14 4853   5.961   1.450   8.077 -0.5949  0.2309  0.3462
   62SAPC  H14A 4854   5.868   1.423   8.028 -0.1089 -5.1206  1.7844
   62SAPC  H14B 4855   6.028   1.485   8.000 -0.3113 -2.4218 -0.7139
   62SAPC  H14C 4856   6.000   1.354   8.108  0.4335 -0.1150 -1.8516
   62SAPC   C15 4857   6.070   1.595   8.250  0.6476  0.5612  0.0550
   62SAPC  H15A 4858   6.052   1.682   8.312 -2.8319  0.2407 -0.2893
   62SAPC  H15B 4859   6.123   1.521   8.308  0.3353 -0.1555 -0.5550
   62SAPC  H15C 4860   6.135   1.634   8.173 -0.2645 -0.6957 -1.4219
   62SAPC   C11 4861   5.748   1.656   8.045  0.4509 -0.1709 -1.0097
   62SAPC  H11A 4862   5.694   1.752   8.037 -0.4075 -0.3420  1.7588
   62SAPC  H11B 4863   5.674   1.585   8.087  0.9346  0.7630  1.6212
   62SAPC     P 4864   5.862   1.679   7.808 -0.0435  0.3914 -0.0914
   62SAPC   O13 4865   5.987   1.726   7.861 -0.3759 -0.0430 -0.3632
   62SAPC   O14 4866   5.870   1.595   7.688  0.0745 -0.1996  0.5557
   62SAPC   O12 4867   5.780   1.601   7.923  0.0528  0.9575  0.0285
   62SAPC   O11 4868   5.778   1.809   7.773 -0.0674  0.5391 -0.2712
   62SAPC    C1 4869   5.639   1.809   7.745 -0.0941 -0.0976 -0.4703
   62SAPC    HA 4870   5.611   1.721   7.684  1.1845 -1.2849  0.6009
   62SAPC    HB 4871   5.586   1.809   7.843 -0.3493  0.6240 -0.5962
   62SAPC    C2 4872   5.594   1.942   7.673 -0.0960  0.5990  0.4771
   62SAPC    HS 4873   5.483   1.940   7.670 -0.0934 -0.1107  0.6923
   62SAPC   O21 4874   5.649   1.946   7.541  0.4256 -0.4863  0.2618
   62SAPC   C21 4875   5.607   1.856   7.453 -0.4978  0.0513 -1.0044
   62SAPC   O22 4876   5.516   1.778   7.465 -0.2781 -0.0148 -0.2567
   62SAPC   C22 4877   5.691   1.866   7.327  0.2708  0.4847  0.2232
   62SAPC   H2R 4878   5.793   1.887   7.363 -0.6786 -0.8812  4.2370
   62SAPC   H2S 4879   5.689   1.764   7.282  0.6786  0.2519  0.7240
   62SAPC    C3 4880   5.639   2.074   7.753  0.0918 -0.4163 -0.6078
   62SAPC    HX 4881   5.749   2.071   7.743  0.2571 -2.0139  1.1136
   62SAPC    HY 4882   5.623   2.070   7.863  0.2979  1.0056 -0.5046
   62SAPC   O31 4883   5.563   2.181   7.693 -0.2500  0.5318 -0.0972
   62SAPC   C31 4884   5.620   2.295   7.722  0.6735 -0.0207  0.8852
   62SAPC   O32 4885   5.723   2.312   7.779 -0.1541  0.3989 -0.3490
   62SAPC   C32 4886   5.534   2.410   7.674 -0.1236 -0.1369 -0.1572
   62SAPC   H2X 4887   5.534   2.492   7.748  0.0897  1.6187 -2.0075
   62SAPC   H2Y 4888   5.431   2.372   7.652  0.0526 -0.0781 -1.1200
   62SAPC   C23 4889   5.638   1.982   7.238 -0.7549  0.3337  0.5521
   62SAPC   H3R 4890   5.704   1.989   7.149 -2.4455 -1.2788 -0.9080
   62SAPC   H3S 4891   5.649   2.076   7.296  2.7812  1.0526 -1.0257
   62SAPC   C24 4892   5.492   1.974   7.196 -0.2148  0.9476 -0.3671
   62SAPC   H4R 4893   5.471   2.055   7.122 -1.0907 -1.7331 -3.2583
   62SAPC   H4S 4894   5.427   1.979   7.286  0.1293  0.4899 -0.0893
   62SAPC   C25 4895   5.477   1.853   7.113  0.6917  0.0263 -0.2674
   62SAPC   H5R 4896   5.511   1.759   7.159 -0.1021  0.5159  1.4241
   62SAPC   C26 4897   5.455   1.841   6.981  0.2149  0.1932 -0.0409
   62SAPC   H6R 4898   5.455   1.739   6.940 -0.0914  0.0588  0.2902
   62SAPC   C27 4899   5.430   1.946   6.882 -0.3038  0.7681  0.4850
   62SAPC   H7R 4900   5.419   2.049   6.921  3.4747  1.3986  0.2135
   62SAPC   H7S 4901   5.330   1.925   6.837 -0.0817  0.6155  0.0546
   62SAPC   C28 4902   5.547   1.952   6.773  0.2166  0.9671 -0.2392
   62SAPC   H8R 4903   5.648   1.965   6.813  0.7219  0.4016 -1.3056
   62SAPC   C29 4904   5.535   1.983   6.644  0.7777 -0.2456 -0.6204
   62SAPC   H9R 4905   5.629   2.003   6.591  1.1385 -0.1114  0.0707
   62SAPC  C210 4906   5.411   1.995   6.557  0.9684  0.6319  0.2847
   62SAPC  H10R 4907   5.313   1.969   6.602  0.3520  0.2222 -1.2200
   62SAPC  H10S 4908   5.411   1.919   6.475 -1.4691 -0.0441  0.8320
   62SAPC  C211 4909   5.393   2.138   6.499 -0.3235  0.7305  0.0277
   62SAPC  H11R 4910   5.362   2.212   6.574 -0.7481 -0.6561  1.2694
   62SAPC  C212 4911   5.404   2.171   6.367  0.7340 -0.3093 -0.6704
   62SAPC  H12R 4912   5.379   2.271   6.330  4.3063  0.5724 -1.0787
   62SAPC  C213 4913   5.433   2.072   6.257  0.6682  0.2958 -0.3470
   62SAPC  H13R 4914   5.336   2.031   6.222  2.1636 -2.0079 -2.0805
   62SAPC  H13S 4915   5.498   1.989   6.291 -1.5544 -0.7336  1.6735
   62SAPC  C214 4916   5.485   2.133   6.129  0.1537  0.5381 -0.3117
   62SAPC  H14R 4917   5.590   2.104   6.109 -0.4912 -0.7714 -1.9682
   62SAPC  C215 4918   5.409   2.198   6.032 -0.2888  0.1149  0.3953
   62SAPC  H15R 4919   5.455   2.249   5.946 -1.5069  0.3737 -0.1239
   62SAPC  C216 4920   5.262   2.217   6.053  0.2610 -0.5889  0.2006
   62SAPC  H16R 4921   5.241   2.254   6.156  1.5191  1.5553 -0.2460
   62SAPC  H16S 4922   5.206   2.122   6.045 -2.7423  1.0503  0.4712
   62SAPC  C217 4923   5.205   2.329   5.952 -0.4611  0.2329  0.4814
   62SAPC  H17R 4924   5.095   2.331   5.945 -0.5821  0.6347  2.0078
   62SAPC  H17S 4925   5.240   2.310   5.848 -2.1955 -1.1305  0.1119
   62SAPC  C218 4926   5.250   2.467   6.000  0.2097 -0.5018 -0.0786
   62SAPC  H18R 4927   5.361   2.468   6.000  0.2740  0.2803  2.2206
   62SAPC  H18S 4928   5.211   2.486   6.103 -0.3792  0.9313 -0.5382
   62SAPC  C219 4929   5.199   2.582   5.915  0.3707  0.3881 -0.1780
   62SAPC  H19R 4930   5.088   2.575   5.903 -0.1249  3.2702  1.6504
   62SAPC  H19S 4931   5.232   2.568   5.810  1.0848  1.3673 -0.0945
   62SAPC  C220 4932   5.239   2.721   5.966  0.0897 -0.2575  0.9290
   62SAPC  H20R 4933   5.349   2.729   5.958 -0.0986  2.8790  0.1478
   62SAPC  H20S 4934   5.216   2.717   6.075  1.1816 -0.0419  1.1733
   62SAPC  H20T 4935   5.184   2.802   5.914 -0.8013 -0.3061  1.7634
   62SAPC   C33 4936   5.586   2.465   7.537 -0.0545 -0.3097  0.9561
   62SAPC   H3X 4937   5.694   2.486   7.522 -0.3517 -1.0227 -3.3974
   62SAPC   H3Y 4938   5.534   2.564   7.533 -1.5080 -0.8330  3.9633
   62SAPC   C34 4939   5.526   2.386   7.420 -0.1127  0.5672  0.0749
   62SAPC   H4X 4940   5.415   2.377   7.431 -0.3110  1.3165 -1.1163
   62SAPC   H4Y 4941   5.565   2.283   7.404 -0.1322  0.5827 -0.0795
   62SAPC   C35 4942   5.526   2.463   7.287 -0.3735  0.1154 -0.9629
   62SAPC   H5X 4943   5.623   2.462   7.234 -1.0465  0.1233 -2.2422
   62SAPC   H5Y 4944   5.497   2.569   7.308 -0.7216 -0.1994  0.2006
   62SAPC   C36 4945   5.439   2.403   7.181  0.0096 -0.3785 -0.3623
   62SAPC   H6X 4946   5.369   2.337   7.236 -0.0097 -0.2732 -0.2584
   62SAPC   H6Y 4947   5.504   2.331   7.128 -0.3185 -1.1255  0.2379
   62SAPC   C37 4948   5.367   2.494   7.087 -0.9911 -0.3821  0.7157
   62SAPC   H7X 4949   5.439   2.562   7.038 -2.0498 -0.8490 -1.5998
   62SAPC   H7Y 4950   5.329   2.581   7.146 -1.1861 -0.1504  0.2514
   62SAPC   C38 4951   5.262   2.428   6.999  0.0108 -0.2228 -0.4829
   62SAPC   H8X 4952   5.186   2.498   6.961 -1.2721 -1.6862 -0.7194
   62SAPC   H8Y 4953   5.207   2.344   7.048 -0.1745  0.1079 -0.1195
   62SAPC   C39 4954   5.326   2.360   6.872 -0.7164 -0.4726  0.4482
   62SAPC   H9X 4955   5.252   2.294   6.823 -1.1289  0.2052  0.1463
   62SAPC   H9Y 4956   5.404   2.288   6.905 -0.0536 -0.2147 -0.5291
   62SAPC  C310 4957   5.403   2.450   6.778 -0.3678 -0.0162 -0.1407
   62SAPC  H10X 4958   5.446   2.387   6.697 -1.7787  1.4351 -2.1381
   62SAPC  H10Y 4959   5.487   2.497   6.832  1.8061 -1.0356 -2.4542
   62SAPC  C311 4960   5.326   2.562   6.705  0.1838  0.8164  0.2961
   62SAPC  H11X 4961   5.397   2.637   6.664  2.0394 -0.0871  1.7017
   62SAPC  H11Y 4962   5.260   2.620   6.773 -1.5059  1.1985 -1.5661
   62SAPC  C312 4963   5.234   2.506   6.594  0.1074  0.6730 -0.3104
   62SAPC  H12X 4964   5.144   2.454   6.634  0.7708  0.4176  0.8733
   62SAPC  H12Y 4965   5.299   2.427   6.549 -1.1368 -0.5303 -0.0731
   62SAPC  C313 4966   5.201   2.608   6.492  0.2437  0.6120  0.2267
   62SAPC  H13X 4967   5.293   2.656   6.452  0.1820  1.1359  0.7072
   62SAPC  H13Y 4968   5.129   2.674   6.545 -0.2041  1.1113 -0.9612
   62SAPC  C314 4969   5.112   2.547   6.384  0.2188 -0.4137 -0.1339
   62SAPC  H14X 4970   5.041   2.486   6.444  0.8354  0.9060  2.0456
   62SAPC  H14Y 4971   5.156   2.486   6.302  1.0156  2.3391 -1.8625
   62SAPC  C315 4972   5.025   2.648   6.305 -0.0061  0.5081 -0.2146
   62SAPC  H15X 4973   5.097   2.726   6.273  0.0900  1.2620  1.7136
   62SAPC  H15Y 4974   4.955   2.681   6.384 -0.0763  1.3527 -0.6184
   62SAPC  C316 4975   4.953   2.577   6.182 -0.0181  0.4080  0.4246
   62SAPC  H16X 4976   4.884   2.510   6.237 -0.0769  0.8800  0.9401
   62SAPC  H16Y 4977   5.020   2.527   6.109 -0.2756  2.9491 -1.6977
   62SAPC  C317 4978   4.881   2.684   6.101  0.4906  0.5314 -1.1226
   62SAPC  H17X 4979   4.954   2.747   6.047  0.8286 -0.9442 -2.4582
   62SAPC  H17Y 4980   4.814   2.737   6.172  1.4428  0.1187  0.1270
   62SAPC  C318 4981   4.791   2.632   5.987 -0.2932  0.7395  0.1339
   62SAPC  H18X 4982   4.864   2.576   5.925  0.3121  1.5194  0.1188
   62SAPC  H18Y 4983   4.748   2.710   5.920 -1.7834  0.0911  0.2999
   62SAPC  H18Z 4984   4.713   2.558   6.018  1.0741 -0.7708  0.0918
   63SAPC     N 4985   0.734   4.894   7.751  0.4450  0.2738  0.2903
   63SAPC   C12 4986   0.726   4.740   7.757  0.0636  0.6472 -0.2798
   63SAPC  H12A 4987   0.799   4.704   7.686 -0.2420  4.0127 -2.5431
   63SAPC  H12B 4988   0.634   4.714   7.707  0.2239  0.7052 -0.6108
   63SAPC   C13 4989   0.845   4.942   7.842 -0.6395  0.5451 -0.7569
   63SAPC  H13A 4990   0.834   5.047   7.865 -2.3024 -0.3744  3.4799
   63SAPC  H13B 4991   0.856   4.893   7.937  0.8782 -0.1764 -1.2650
   63SAPC  H13C 4992   0.938   4.929   7.789  0.1600 -0.1270  0.7502
   63SAPC   C14 4993   0.762   4.941   7.610 -0.3355  0.3730  0.1317
   63SAPC  H14A 4994   0.685   4.902   7.545  0.4695 -0.4316 -0.3486
   63SAPC  H14B 4995   0.749   5.048   7.603  1.2759  0.9865  3.9730
   63SAPC  H14C 4996   0.858   4.921   7.565 -0.2512  1.0484 -0.0038
   63SAPC   C15 4997   0.597   4.935   7.808 -0.1530 -0.1071 -0.2179
   63SAPC  H15A 4998   0.595   4.896   7.909 -1.2835  2.2930  0.7668
   63SAPC  H15B 4999   0.576   5.041   7.808  0.2904 -0.0117 -0.6750
   63SAPC  H15C 5000   0.518   4.887   7.754 -1.4717  1.1814  0.4873
   63SAPC   C11 5001   0.736   4.681   7.890 -0.0640 -0.2319  0.2501
   63SAPC  H11A 5002   0.684   4.584   7.875 -1.2117  0.5823 -1.3679
   63SAPC  H11B 5003   0.690   4.740   7.973  1.9353 -1.0208  2.0012
   63SAPC     P 5004   0.950   4.544   7.883 -0.0209 -0.0314 -0.1794
   63SAPC   O13 5005   1.091   4.546   7.927 -0.0621 -0.1551 -0.3093
   63SAPC   O14 5006   0.865   4.423   7.918 -0.4760  0.1068 -0.1261
   63SAPC   O12 5007   0.871   4.671   7.929 -0.0111 -0.5632  0.2021
   63SAPC   O11 5008   0.958   4.557   7.722  0.7059 -0.2098 -0.9364
   63SAPC    C1 5009   1.074   4.615   7.673  0.0504 -0.1085 -0.9630
   63SAPC    HA 5010   1.123   4.691   7.738 -3.2214  0.7318  0.7245
   63SAPC    HB 5011   1.138   4.526   7.652 -0.7845 -1.7468  2.6313
   63SAPC    C2 5012   1.040   4.683   7.535 -0.7142 -0.1957  0.2350
   63SAPC    HS 5013   0.985   4.776   7.562 -0.2972  0.2525 -0.4475
   63SAPC   O21 5014   0.971   4.592   7.454 -0.4535  0.2257 -0.4288
   63SAPC   C21 5015   0.883   4.642   7.371 -0.0029 -0.0756  0.4713
   63SAPC   O22 5016   0.832   4.753   7.386 -0.4587  0.0350 -0.0877
   63SAPC   C22 5017   0.859   4.541   7.263  0.0215 -0.4575 -0.3114
   63SAPC   H2R 5018   0.890   4.438   7.293  0.3989  0.0920  1.2500
   63SAPC   H2S 5019   0.749   4.531   7.252 -0.5225  0.5359  3.0684
   63SAPC    C3 5020   1.167   4.735   7.463 -0.9758 -0.0905 -1.2380
   63SAPC    HX 5021   1.217   4.643   7.426 -1.7190 -1.6475  1.4329
   63SAPC    HY 5022   1.239   4.777   7.536 -0.1872 -2.8579 -0.3334
   63SAPC   O31 5023   1.136   4.828   7.357 -0.0921 -0.0324 -0.0364
   63SAPC   C31 5024   1.115   4.950   7.391  0.0390 -0.0726  0.3347
   63SAPC   O32 5025   1.119   4.993   7.505 -0.1062 -0.2347  0.4597
   63SAPC   C32 5026   1.075   5.032   7.267  0.2383  0.3231 -0.3291
   63SAPC   H2X 5027   1.141   5.121   7.259  2.5940 -1.2986 -0.3064
   63SAPC   H2Y 5028   0.971   5.068   7.277  0.2513  1.0526 -2.4719
   63SAPC   C23 5029   0.921   4.590   7.131  0.8605  0.4498 -0.3976
   63SAPC   H3R 5030   0.913   4.700   7.119  0.0253  0.5358  0.7181
   63SAPC   H3S 5031   0.864   4.534   7.054 -0.9081  1.5305  0.0788
   63SAPC   C24 5032   1.072   4.551   7.136 -0.1156  0.3745  0.1838
   63SAPC   H4R 5033   1.084   4.442   7.155 -0.5598 -0.1575 -2.2666
   63SAPC   H4S 5034   1.121   4.607   7.218  0.4616 -1.7654  1.3907
   63SAPC   C25 5035   1.132   4.575   7.003 -0.1226  0.0470  0.0200
   63SAPC   H5R 5036   1.216   4.645   7.010 -0.3011  0.1351  1.7986
   63SAPC   C26 5037   1.105   4.516   6.883  0.2700  0.3640  0.1274
   63SAPC   H6R 5038   1.165   4.545   6.796 -0.1317 -1.8770 -0.9495
   63SAPC   C27 5039   1.006   4.405   6.872  0.3014  0.9204  0.1147
   63SAPC   H7R 5040   0.903   4.444   6.854  0.3829  0.8217 -0.6187
   63SAPC   H7S 5041   1.009   4.331   6.954 -0.2550  0.2792 -0.4224
   63SAPC   C28 5042   1.043   4.316   6.755 -0.4773 -0.7183  0.7273
   63SAPC   H8R 5043   1.082   4.219   6.790 -3.1216 -1.2656  2.4913
   63SAPC   C29 5044   1.012   4.329   6.621 -0.4250 -0.2246 -0.0600
   63SAPC   H9R 5045   1.064   4.263   6.551  0.8971  1.1192 -0.4040
   63SAPC  C210 5046   0.926   4.429   6.550  0.5952 -0.0150  0.0142
   63SAPC  H10R 5047   0.882   4.499   6.624 -0.4771 -1.7264  1.0607
   63SAPC  H10S 5048   0.836   4.376   6.513  1.0803 -0.0603 -1.1446
   63SAPC  C211 5049   0.992   4.504   6.441  0.2694  0.4202 -0.6006
   63SAPC  H11R 5050   1.053   4.593   6.466  0.0957  0.6035 -0.8174
   63SAPC  C212 5051   0.954   4.506   6.315 -0.1619 -0.3907  0.2133
   63SAPC  H12R 5052   0.997   4.573   6.240 -3.4502  1.0142 -0.6022
   63SAPC  C213 5053   0.868   4.408   6.247  0.0511 -0.1713  0.5236
   63SAPC  H13R 5054   0.766   4.448   6.230 -0.1373 -0.0484  1.8799
   63SAPC  H13S 5055   0.851   4.319   6.311  0.0266 -0.9456 -0.5224
   63SAPC  C214 5056   0.934   4.358   6.120 -0.0861 -0.6443  0.0485
   63SAPC  H14R 5057   0.924   4.424   6.032 -2.8390  0.7922  1.3188
   63SAPC  C215 5058   1.002   4.251   6.111  0.2967  0.4432 -0.2637
   63SAPC  H15R 5059   1.044   4.231   6.012  2.2000  1.5223  0.2760
   63SAPC  C216 5060   1.029   4.145   6.208  0.5161 -0.6559  0.3011
   63SAPC  H16R 5061   1.044   4.049   6.154 -0.8409  0.3630 -2.0270
   63SAPC  H16S 5062   0.946   4.138   6.281  0.1752  1.5606  0.1883
   63SAPC  C217 5063   1.159   4.181   6.281 -0.0757 -0.0245  0.5718
   63SAPC  H17R 5064   1.159   4.287   6.315  1.1614  0.5518 -1.1135
   63SAPC  H17S 5065   1.239   4.163   6.206 -0.8316  1.4839 -0.6373
   63SAPC  C218 5066   1.189   4.076   6.392  0.8174  0.6298  0.2473
   63SAPC  H18R 5067   1.196   3.979   6.339  1.6838  1.0149 -0.3787
   63SAPC  H18S 5068   1.108   4.075   6.467  0.6681  1.1277  0.1004
   63SAPC  C219 5069   1.318   4.109   6.472 -0.1392 -0.0173 -0.0444
   63SAPC  H19R 5070   1.292   4.202   6.528 -1.7511 -2.6414  4.0097
   63SAPC  H19S 5071   1.405   4.105   6.403 -0.6177 -2.4402 -0.5988
   63SAPC  C220 5072   1.349   4.001   6.588  0.0075  0.2655 -0.6350
   63SAPC  H20R 5073   1.276   4.021   6.670  1.5960  0.9408  0.6824
   63SAPC  H20S 5074   1.450   4.013   6.631  0.6384 -1.7992 -1.4271
   63SAPC  H20T 5075   1.343   3.898   6.548 -1.4577 -0.1467  0.5317
   63SAPC   C33 5076   1.072   4.935   7.144  0.5852 -1.0825  0.4349
   63SAPC   H3X 5077   0.996   4.859   7.171 -0.4146 -0.0823  0.5067
   63SAPC   H3Y 5078   1.177   4.899   7.136  1.3074  0.7303  1.2056
   63SAPC   C34 5079   1.030   5.010   7.015  0.4556 -0.0799  0.7049
   63SAPC   H4X 5080   1.104   5.089   6.991 -1.3140  1.7632  1.0247
   63SAPC   H4Y 5081   0.930   5.056   7.030  0.6264  0.3581  0.5031
   63SAPC   C35 5082   1.017   4.923   6.889 -0.0774  0.4586  0.1975
   63SAPC   H5X 5083   0.952   4.833   6.896 -0.0481  0.3050 -1.1874
   63SAPC   H5Y 5084   1.116   4.881   6.861 -1.5808 -1.8709 -2.0922
   63SAPC   C36 5085   0.969   4.999   6.768 -0.4593 -0.2518  0.8524
   63SAPC   H6X 5086   1.031   5.090   6.754 -0.0823 -0.2777  2.2352
   63SAPC   H6Y 5087   0.862   5.027   6.774  0.6094  4.5263  1.0645
   63SAPC   C37 5088   0.989   4.928   6.633 -0.2543  0.1836 -0.3115
   63SAPC   H7X 5089   0.953   4.823   6.638  0.2626  0.0710  2.5022
   63SAPC   H7Y 5090   1.096   4.932   6.606  0.5961  1.8225  2.7590
   63SAPC   C38 5091   0.895   4.985   6.516  0.1229  0.6956 -0.0963
   63SAPC   H8X 5092   0.921   5.093   6.508 -0.5475  0.8637 -0.0176
   63SAPC   H8Y 5093   0.787   4.981   6.541  0.5981  0.9796  2.2201
   63SAPC   C39 5094   0.915   4.916   6.382 -0.7333  0.2192 -0.3291
   63SAPC   H9X 5095   0.875   4.814   6.401  1.0919 -0.4584  0.1191
   63SAPC   H9Y 5096   1.024   4.913   6.361 -0.4696 -0.7215  1.0211
   63SAPC  C310 5097   0.835   4.963   6.256 -0.1241  0.4049 -0.4902
   63SAPC  H10X 5098   0.892   5.041   6.201  1.2219 -0.3299 -0.1921
   63SAPC  H10Y 5099   0.732   4.988   6.290 -0.6652 -2.2429  0.0729
   63SAPC  C311 5100   0.816   4.862   6.137 -0.0114 -0.3798 -0.4690
   63SAPC  H11X 5101   0.736   4.905   6.074 -2.1520 -1.9140  1.0386
   63SAPC  H11Y 5102   0.784   4.763   6.175  1.9517 -0.9754 -0.2463
   63SAPC  C312 5103   0.946   4.834   6.069  0.3441  0.5090  0.3218
   63SAPC  H12X 5104   1.011   4.765   6.128  0.6265 -0.0952 -0.6741
   63SAPC  H12Y 5105   0.999   4.929   6.049  0.2300  0.4851 -0.0911
   63SAPC  C313 5106   0.921   4.772   5.925 -0.3314  1.1490 -0.5778
   63SAPC  H13X 5107   0.866   4.675   5.932  0.7195  0.6408  1.1324
   63SAPC  H13Y 5108   1.018   4.747   5.877 -0.7143  0.4001 -0.9875
   63SAPC  C314 5109   0.845   4.867   5.824 -0.3633  0.3511  0.1226
   63SAPC  H14X 5110   0.905   4.960   5.818  2.0151 -1.0121  1.2909
   63SAPC  H14Y 5111   0.741   4.883   5.862  0.1849 -0.5023  2.1286
   63SAPC  C315 5112   0.820   4.804   5.685 -0.0327  0.4644 -0.2920
   63SAPC  H15X 5113   0.742   4.865   5.634  0.5377  2.0620  0.7210
   63SAPC  H15Y 5114   0.788   4.697   5.692  1.5747 -0.0817 -0.8482
   63SAPC  C316 5115   0.940   4.793   5.587  0.0063  0.0490  0.6245
   63SAPC  H16X 5116   1.027   4.750   5.640  0.3710  0.1832  0.1377
   63SAPC  H16Y 5117   0.981   4.892   5.560 -0.0578 -0.2923 -0.7763
   63SAPC  C317 5118   0.900   4.723   5.454  0.3075  0.0482  0.3447
   63SAPC  H17X 5119   0.989   4.715   5.388 -0.7102  0.1844 -1.0945
   63SAPC  H17Y 5120   0.823   4.791   5.411  0.4280  1.0527  1.6449
   63SAPC  C318 5121   0.837   4.581   5.474  0.7852 -0.7667 -0.0187
   63SAPC  H18X 5122   0.730   4.573   5.505  0.5621 -1.4943 -0.9431
   63SAPC  H18Y 5123   0.900   4.531   5.551  1.0482  0.6356  0.7084
   63SAPC  H18Z 5124   0.844   4.514   5.387 -1.2968  0.1042 -0.9215
   64SAPC     N 5125   1.007   5.983   7.322 -0.0118  0.1800  0.3406
   64SAPC   C12 5126   1.111   6.031   7.223  0.0168 -0.8242  0.6437
   64SAPC  H12A 5127   1.112   5.971   7.134  1.9022 -0.9209  0.6990
   64SAPC  H12B 5128   1.207   6.013   7.268  1.0929  1.5007 -0.5384
   64SAPC   C13 5129   0.869   5.985   7.263  0.3799 -0.0553 -0.1012
   64SAPC  H13A 5130   0.835   6.087   7.260  0.1197 -0.1404 -0.0978
   64SAPC  H13B 5131   0.864   5.942   7.164 -0.1833  1.4379 -0.7410
   64SAPC  H13C 5132   0.805   5.928   7.329  1.9236 -0.3201  1.2541
   64SAPC   C14 5133   1.041   5.847   7.379 -0.6917  0.3767  0.3628
   64SAPC  H14A 5134   0.962   5.817   7.446  0.4050 -0.6297  1.2449
   64SAPC  H14B 5135   1.055   5.769   7.306 -0.8024  0.4382  0.2737
   64SAPC  H14C 5136   1.131   5.857   7.439  0.6497  0.6014 -1.6066
   64SAPC   C15 5137   1.011   6.079   7.441  0.0096  0.1800  0.0356
   64SAPC  H15A 5138   1.102   6.071   7.499  1.1033  2.3503 -1.2560
   64SAPC  H15B 5139   1.007   6.179   7.401  1.1318 -0.2452 -1.2067
   64SAPC  H15C 5140   0.928   6.053   7.504  0.6261 -1.0019  0.3894
   64SAPC   C11 5141   1.101   6.181   7.181  0.1667  0.3994  0.7224
   64SAPC  H11A 5142   1.136   6.241   7.267 -0.8251  0.4447  1.1124
   64SAPC  H11B 5143   0.998   6.213   7.154 -0.5418 -3.0524 -1.2935
   64SAPC     P 5144   1.343   6.144   7.068  0.0360  0.3947 -0.6995
   64SAPC   O13 5145   1.395   6.126   7.204 -0.7200 -0.3701  0.2372
   64SAPC   O14 5146   1.349   6.033   6.972 -0.6910 -0.1016 -0.1697
   64SAPC   O12 5147   1.193   6.193   7.074  0.1690  0.4717  0.3826
   64SAPC   O11 5148   1.407   6.270   7.024 -0.2258  0.2075  0.1471
   64SAPC    C1 5149   1.351   6.395   6.975 -0.0960  0.2618  0.8577
   64SAPC    HA 5150   1.261   6.425   7.032 -0.6741 -0.8850  0.5743
   64SAPC    HB 5151   1.422   6.480   6.986 -3.9341  3.8188  0.7716
   64SAPC    C2 5152   1.302   6.407   6.825  0.1746 -0.1600 -0.9009
   64SAPC    HS 5153   1.267   6.511   6.806 -0.7120 -0.4912 -1.1260
   64SAPC   O21 5154   1.207   6.305   6.792  0.3462 -0.2971  0.1060
   64SAPC   C21 5155   1.080   6.329   6.828 -0.2639  0.7094 -0.2296
   64SAPC   O22 5156   1.042   6.432   6.877  0.1713  0.0047  0.4047
   64SAPC   C22 5157   0.992   6.210   6.801 -0.9982 -0.0039 -0.2577
   64SAPC   H2R 5158   1.063   6.129   6.775 -1.0681 -0.4554  0.8920
   64SAPC   H2S 5159   0.949   6.173   6.898  1.4287  0.1053  0.9284
   64SAPC    C3 5160   1.424   6.383   6.736 -0.6304  0.7689 -0.8788
   64SAPC    HX 5161   1.469   6.288   6.771  0.6727  2.8627  3.9980
   64SAPC    HY 5162   1.502   6.461   6.751  1.7327 -1.8186  1.4034
   64SAPC   O31 5163   1.385   6.384   6.596 -0.4165 -0.4226 -1.0270
   64SAPC   C31 5164   1.359   6.260   6.541 -0.1335 -0.9421 -0.2602
   64SAPC   O32 5165   1.383   6.154   6.588  0.1699 -0.0384 -0.3915
   64SAPC   C32 5166   1.311   6.286   6.403  0.6181  0.3455 -0.4397
   64SAPC   H2X 5167   1.234   6.366   6.398 -1.7213 -1.4727  2.8566
   64SAPC   H2Y 5168   1.263   6.192   6.369  0.8409  0.5698 -1.4216
   64SAPC   C23 5169   0.886   6.241   6.688 -0.2421 -0.2710 -0.2213
   64SAPC   H3R 5170   0.830   6.332   6.718  2.8387  1.1454  1.7486
   64SAPC   H3S 5171   0.812   6.158   6.684 -1.7104  1.0206 -1.0075
   64SAPC   C24 5172   0.952   6.262   6.552 -0.2680 -0.2227 -0.3294
   64SAPC   H4R 5173   1.025   6.346   6.557 -1.4515  0.7984  0.2316
   64SAPC   H4S 5174   0.875   6.309   6.487 -1.7542 -1.3976  0.5189
   64SAPC   C25 5175   1.017   6.141   6.495 -0.1865  0.2050 -0.7022
   64SAPC   H5R 5176   1.109   6.108   6.545  0.2469 -1.5532 -2.5569
   64SAPC   C26 5177   0.991   6.083   6.379 -0.3952 -0.2259 -0.7418
   64SAPC   H6R 5178   1.051   5.995   6.350  3.4616  2.1172 -0.6423
   64SAPC   C27 5179   0.863   6.114   6.305  0.5074  0.0224  0.1550
   64SAPC   H7R 5180   0.853   6.216   6.262  1.7514  0.9872  2.0070
   64SAPC   H7S 5181   0.784   6.110   6.383 -0.0542  1.3138 -0.3292
   64SAPC   C28 5182   0.837   6.006   6.206  1.0355 -0.0674 -0.4266
   64SAPC   H8R 5183   0.814   5.906   6.245 -0.1722  0.5774  0.5922
   64SAPC   C29 5184   0.843   6.008   6.072 -0.0213  0.1546  0.0243
   64SAPC   H9R 5185   0.855   5.908   6.026  2.3430 -0.0900  1.0297
   64SAPC  C210 5186   0.866   6.123   5.982  0.8399 -0.8726 -0.6570
   64SAPC  H10R 5187   0.944   6.105   5.905  1.8838  1.7954 -0.3413
   64SAPC  H10S 5188   0.903   6.213   6.036 -0.4388 -0.4856 -0.3833
   64SAPC  C211 5189   0.735   6.174   5.927  0.6269 -0.2940 -0.6921
   64SAPC  H11R 5190   0.669   6.213   6.006  2.3920  1.5741 -0.0188
   64SAPC  C212 5191   0.692   6.166   5.803 -0.1513  0.5585 -0.1026
   64SAPC  H12R 5192   0.595   6.210   5.776 -0.8264 -1.8202 -1.8474
   64SAPC  C213 5193   0.775   6.137   5.681  0.3048  0.0105 -0.2245
   64SAPC  H13R 5194   0.881   6.107   5.692  0.0615 -1.8523 -2.1683
   64SAPC  H13S 5195   0.768   6.232   5.624  0.0730 -0.3730 -0.8499
   64SAPC  C214 5196   0.706   6.025   5.601  0.4235 -0.0578  0.2433
   64SAPC  H14R 5197   0.715   5.929   5.653 -0.2778  0.3757  1.1998
   64SAPC  C215 5198   0.642   6.043   5.482 -0.4064  1.0523 -0.1579
   64SAPC  H15R 5199   0.600   5.953   5.435  0.6707  0.6212 -0.3482
   64SAPC  C216 5200   0.628   6.173   5.413  0.1057 -0.2143  0.9535
   64SAPC  H16R 5201   0.632   6.264   5.477  0.7390  0.2701  0.2367
   64SAPC  H16S 5202   0.531   6.181   5.359  1.2950  1.2525 -1.1153
   64SAPC  C217 5203   0.720   6.214   5.296  0.0661  0.6319 -0.0935
   64SAPC  H17R 5204   0.825   6.198   5.329 -0.1880 -0.9273  0.0377
   64SAPC  H17S 5205   0.714   6.324   5.290  1.0294  0.7071  0.1484
   64SAPC  C218 5206   0.691   6.148   5.163  0.2751 -0.2082  0.0339
   64SAPC  H18R 5207   0.585   6.167   5.137 -1.1080 -3.9504  2.1509
   64SAPC  H18S 5208   0.693   6.037   5.170 -0.5265 -0.5242 -3.1608
   64SAPC  C219 5209   0.778   6.197   5.041  0.4555 -0.7693  0.5283
   64SAPC  H19R 5210   0.883   6.188   5.074  1.2773  1.7205 -1.1122
   64SAPC  H19S 5211   0.760   6.306   5.034 -2.0994 -1.2133 -1.3325
   64SAPC  C220 5212   0.759   6.130   4.907 -0.3654 -0.0786  0.4830
   64SAPC  H20R 5213   0.664   6.072   4.909 -0.6588  0.2555 -1.7063
   64SAPC  H20S 5214   0.844   6.062   4.886 -0.9612 -1.2509  1.7233
   64SAPC  H20T 5215   0.732   6.214   4.840 -0.8842 -0.9590 -0.4419
   64SAPC   C33 5216   1.418   6.302   6.300 -0.2942  0.3468  0.0778
   64SAPC   H3X 5217   1.484   6.214   6.311 -0.9162 -0.0527  0.7464
   64SAPC   H3Y 5218   1.472   6.396   6.322  0.9364 -0.3717  0.1982
   64SAPC   C34 5219   1.366   6.291   6.155  0.0318 -0.5350 -0.1684
   64SAPC   H4X 5220   1.302   6.204   6.126 -1.3030 -0.3084  1.8771
   64SAPC   H4Y 5221   1.454   6.282   6.088  0.3400  0.4464  0.0901
   64SAPC   C35 5222   1.308   6.430   6.115  0.1201 -0.6836 -0.0087
   64SAPC   H5X 5223   1.364   6.506   6.174  1.5678 -1.5238 -0.2381
   64SAPC   H5Y 5224   1.202   6.432   6.147  0.3169 -1.9181  0.8152
   64SAPC   C36 5225   1.323   6.451   5.965  0.2922 -0.0918 -0.6423
   64SAPC   H6X 5226   1.431   6.448   5.939 -0.2470  2.4208 -3.6958
   64SAPC   H6Y 5227   1.298   6.557   5.945  0.2666  0.1079  0.4092
   64SAPC   C37 5228   1.242   6.352   5.880  0.0223  0.3362  0.5883
   64SAPC   H7X 5229   1.137   6.388   5.874 -0.2201 -0.3540  0.6065
   64SAPC   H7Y 5230   1.243   6.245   5.910 -2.5715  0.0584 -0.0643
   64SAPC   C38 5231   1.277   6.355   5.732  0.6054  0.2533  0.4582
   64SAPC   H8X 5232   1.384   6.331   5.713  0.5040  1.1407 -1.5052
   64SAPC   H8Y 5233   1.265   6.460   5.699 -2.3280  0.2065  1.1620
   64SAPC   C39 5234   1.191   6.260   5.637 -0.5677 -0.2207 -0.4403
   64SAPC   H9X 5235   1.092   6.259   5.687  0.7644  0.1766  2.3869
   64SAPC   H9Y 5236   1.244   6.164   5.654  2.0785  1.2162 -0.0448
   64SAPC  C310 5237   1.185   6.314   5.493  0.0244  0.3378 -0.3601
   64SAPC  H10X 5238   1.283   6.326   5.442 -0.1582 -0.5275 -0.9260
   64SAPC  H10Y 5239   1.140   6.414   5.477  0.6211  0.3140 -2.5506
   64SAPC  C311 5240   1.108   6.216   5.407  0.3219  0.0304  0.7734
   64SAPC  H11X 5241   1.041   6.252   5.326  0.5209 -0.9690  0.1485
   64SAPC  H11Y 5242   1.025   6.167   5.461 -0.4711 -1.1661 -1.3910
   64SAPC  C312 5243   1.188   6.102   5.349 -0.5131  0.7399 -0.1155
   64SAPC  H12X 5244   1.244   6.067   5.438 -0.3687  0.0921 -0.4574
   64SAPC  H12Y 5245   1.253   6.153   5.275  0.7719  0.3059  0.7009
   64SAPC  C313 5246   1.112   5.985   5.274 -0.0406 -0.2738  0.2752
   64SAPC  H13X 5247   1.027   6.038   5.227  0.5903  0.8498  0.3619
   64SAPC  H13Y 5248   1.078   5.905   5.343  1.9162 -0.9186  0.5403
   64SAPC  C314 5249   1.202   5.932   5.157 -0.3935  0.8927 -0.5567
   64SAPC  H14X 5250   1.295   5.896   5.207 -0.8562  0.8421  0.3012
   64SAPC  H14Y 5251   1.221   6.023   5.096 -3.4108  1.0417 -1.4053
   64SAPC  C315 5252   1.133   5.825   5.067 -0.4716 -0.1024 -0.2201
   64SAPC  H15X 5253   1.050   5.870   5.008 -1.4391 -1.0058  0.4241
   64SAPC  H15Y 5254   1.083   5.745   5.125 -1.5940 -0.5038 -1.6781
   64SAPC  C316 5255   1.234   5.763   4.970 -0.5935 -0.4593  0.6908
   64SAPC  H16X 5256   1.313   5.713   5.030 -0.3121  0.4434  1.0919
   64SAPC  H16Y 5257   1.281   5.832   4.897  0.4644 -0.7557  1.0764
   64SAPC  C317 5258   1.160   5.655   4.879  0.3357  0.0965  0.0255
   64SAPC  H17X 5259   1.242   5.629   4.809  0.3792  2.1339 -0.7291
   64SAPC  H17Y 5260   1.071   5.702   4.833  0.3038  2.0194  1.9224
   64SAPC  C318 5261   1.112   5.529   4.955  0.7656  0.0299  0.5055
   64SAPC  H18X 5262   1.168   5.510   5.049  2.1451 -0.2250 -0.3389
   64SAPC  H18Y 5263   1.113   5.437   4.892  1.8041  1.5821 -1.9091
   64SAPC  H18Z 5264   1.006   5.544   4.985  0.2950 -0.4379 -0.8625
   65SAPC     N 5265   4.435   4.111   3.737 -0.2438 -0.4430  0.0695
   65SAPC   C12 5266   4.529   3.993   3.721  0.1999 -0.3067 -0.5363
   65SAPC  H12A 5267   4.562   3.970   3.621  3.5695 -0.7671  0.5433
   65SAPC  H12B 5268   4.492   3.895   3.748 -0.9890 -0.0690 -1.2253
   65SAPC   C13 5269   4.493   4.233   3.668 -0.7378 -0.5589 -0.0946
   65SAPC  H13A 5270   4.442   4.325   3.692  0.1726 -0.3814  1.2777
   65SAPC  H13B 5271   4.590   4.258   3.709 -2.6020  2.6583  2.9132
   65SAPC  H13C 5272   4.512   4.223   3.562  0.9872  2.8311 -0.2132
   65SAPC   C14 5273   4.305   4.076   3.667  0.3687 -0.1042  0.4356
   65SAPC  H14A 5274   4.259   3.986   3.707 -0.9061  0.9418  1.4058
   65SAPC  H14B 5275   4.236   4.157   3.685  1.6308  1.1680 -0.2882
   65SAPC  H14C 5276   4.312   4.071   3.559  1.6087 -0.7313  0.5272
   65SAPC   C15 5277   4.413   4.139   3.882  0.2632 -0.6999 -0.6748
   65SAPC  H15A 5278   4.383   4.050   3.935 -1.4064  0.0410 -0.2918
   65SAPC  H15B 5279   4.509   4.169   3.921  0.9777 -0.5858 -2.4535
   65SAPC  H15C 5280   4.345   4.221   3.902  0.2695 -0.5910 -1.0951
   65SAPC   C11 5281   4.669   4.005   3.794  0.2962 -0.0794 -0.6405
   65SAPC  H11A 5282   4.708   3.901   3.799 -0.8343 -0.4643  0.9156
   65SAPC  H11B 5283   4.653   4.046   3.896 -1.5009 -1.4777 -0.3110
   65SAPC     P 5284   4.851   4.181   3.783 -0.2613 -0.6446 -0.4036
   65SAPC   O13 5285   4.966   4.188   3.702 -0.1426  0.0270  0.7566
   65SAPC   O14 5286   4.783   4.307   3.820 -0.4466  0.5975 -0.4908
   65SAPC   O12 5287   4.759   4.074   3.714  0.0508  0.1873 -0.2572
   65SAPC   O11 5288   4.896   4.102   3.915  0.1576 -0.3535  0.4875
   65SAPC    C1 5289   4.989   3.993   3.897  0.4698 -0.2700  0.3800
   65SAPC    HA 5290   4.977   3.942   3.799  1.2237  2.1574 -1.0558
   65SAPC    HB 5291   5.090   4.041   3.890  0.7914 -1.0987 -1.2480
   65SAPC    C2 5292   4.990   3.892   4.010  0.0367  0.0305 -0.1919
   65SAPC    HS 5293   4.886   3.862   4.037 -1.7372  4.0251 -1.7093
   65SAPC   O21 5294   5.053   3.950   4.127  0.6608 -0.5933  0.1702
   65SAPC   C21 5295   4.991   3.947   4.245  0.6347 -0.5958  0.6761
   65SAPC   O22 5296   4.875   3.904   4.253 -0.4323  0.0972 -0.0406
   65SAPC   C22 5297   5.079   4.004   4.355  1.4062  0.4388 -0.1279
   65SAPC   H2R 5298   5.183   3.989   4.321  0.3682 -0.1369 -3.4285
   65SAPC   H2S 5299   5.068   4.113   4.374  0.3074  0.6935 -1.9315
   65SAPC    C3 5300   5.063   3.768   3.969  0.3440 -0.0033 -0.5742
   65SAPC    HX 5301   5.168   3.784   3.999  0.2528 -1.3902  0.6001
   65SAPC    HY 5302   5.061   3.767   3.858 -0.0132  0.7986 -0.5837
   65SAPC   O31 5303   5.011   3.647   4.021 -0.0032  0.8091  0.1140
   65SAPC   C31 5304   5.072   3.604   4.130 -0.2707  1.0172  0.4781
   65SAPC   O32 5305   5.152   3.665   4.199  1.0637 -0.1247  0.1723
   65SAPC   C32 5306   5.014   3.465   4.150 -0.3096  0.1440 -0.0631
   65SAPC   H2X 5307   5.064   3.401   4.074 -0.6986  1.3469 -1.3573
   65SAPC   H2Y 5308   4.906   3.478   4.126 -0.4727  1.4486  1.2318
   65SAPC   C23 5309   5.055   3.939   4.491  0.5060  0.2734  0.6842
   65SAPC   H3R 5310   5.135   3.982   4.555 -1.8461  3.1275  1.9688
   65SAPC   H3S 5311   5.070   3.829   4.485 -1.0478  0.0217  0.8446
   65SAPC   C24 5312   4.918   3.981   4.561  0.0208  0.6302 -0.4568
   65SAPC   H4R 5313   4.874   3.910   4.635 -1.0552  0.8545 -0.8625
   65SAPC   H4S 5314   4.840   3.984   4.483  1.5681  0.6734 -2.0487
   65SAPC   C25 5315   4.920   4.115   4.618 -0.4760  0.4700 -0.0134
   65SAPC   H5R 5316   4.924   4.182   4.531 -0.7988 -2.0811 -2.1324
   65SAPC   C26 5317   4.930   4.151   4.746 -0.3885  0.5525 -0.1892
   65SAPC   H6R 5318   4.943   4.258   4.771 -0.1506  0.3532  0.5608
   65SAPC   C27 5319   4.936   4.057   4.861 -0.5310 -0.3657 -0.2952
   65SAPC   H7R 5320   4.985   3.961   4.833 -0.7938 -1.0337  1.3787
   65SAPC   H7S 5321   4.831   4.024   4.878 -0.0600 -2.0350 -0.4512
   65SAPC   C28 5322   5.009   4.105   4.993  0.5257  0.7373  0.6722
   65SAPC   H8R 5323   5.078   4.191   4.998  2.0574 -0.5240  3.1126
   65SAPC   C29 5324   4.996   4.027   5.106 -0.0072  0.4172  0.3817
   65SAPC   H9R 5325   5.040   4.062   5.200 -1.0519  0.9074  0.7011
   65SAPC  C210 5326   4.926   3.893   5.133  0.3566  0.2806  0.1562
   65SAPC  H10R 5327   4.988   3.822   5.193 -1.1411 -1.0270  0.2323
   65SAPC  H10S 5328   4.894   3.835   5.043  1.0960 -0.6689  0.4835
   65SAPC  C211 5329   4.806   3.934   5.212 -0.5164 -0.1681 -0.0610
   65SAPC  H11R 5330   4.729   3.983   5.151  0.2008  2.3890  0.9476
   65SAPC  C212 5331   4.789   3.927   5.346  0.4194  0.8825  0.0439
   65SAPC  H12R 5332   4.697   3.960   5.396 -1.3000 -2.8070 -0.3355
   65SAPC  C213 5333   4.884   3.848   5.432 -0.5775  0.3657 -0.1026
   65SAPC  H13R 5334   4.978   3.818   5.381  1.3369 -0.6524  3.6798
   65SAPC  H13S 5335   4.832   3.754   5.462  1.8441 -1.5947 -1.6619
   65SAPC  C214 5336   4.919   3.927   5.555  0.2935 -0.1897  0.9515
   65SAPC  H14R 5337   4.897   4.035   5.548 -0.6169 -0.4047  0.3611
   65SAPC  C215 5338   4.974   3.878   5.667 -0.3033 -0.4032 -0.1234
   65SAPC  H15R 5339   4.995   3.941   5.754  0.8438  0.9422 -1.3091
   65SAPC  C216 5340   5.036   3.741   5.681  0.4776  0.2756  0.4466
   65SAPC  H16R 5341   5.146   3.753   5.690  0.2011  2.8969  1.0482
   65SAPC  H16S 5342   5.030   3.687   5.584  3.4064  0.6771 -0.0397
   65SAPC  C217 5343   4.979   3.642   5.788  0.2095 -0.0075 -0.6782
   65SAPC  H17R 5344   4.869   3.646   5.805  0.5800  0.2541  2.1018
   65SAPC  H17S 5345   5.021   3.672   5.886  2.1923 -0.3308 -1.3863
   65SAPC  C218 5346   5.014   3.497   5.769 -0.1032  0.5819  0.0287
   65SAPC  H18R 5347   4.969   3.462   5.674 -0.2357 -2.1534  1.0201
   65SAPC  H18S 5348   4.972   3.437   5.853  2.9351  0.2391  1.4482
   65SAPC  C219 5349   5.160   3.469   5.758 -0.2393  0.5004  0.5679
   65SAPC  H19R 5350   5.196   3.524   5.669  0.3298 -0.9225 -0.0978
   65SAPC  H19S 5351   5.168   3.361   5.735 -1.7921  0.3550  0.5799
   65SAPC  C220 5352   5.250   3.484   5.882 -0.6744 -0.4582 -0.6366
   65SAPC  H20R 5353   5.213   3.426   5.970  0.3791 -3.3009 -1.9533
   65SAPC  H20S 5354   5.275   3.591   5.892 -0.2819 -0.5132 -1.0310
   65SAPC  H20T 5355   5.343   3.429   5.857  0.0303  0.1385  0.6199
   65SAPC   C33 5356   5.039   3.413   4.299  0.2584  0.3530 -0.4480
   65SAPC   H3X 5357   5.147   3.395   4.318 -0.5619 -1.4462  3.5038
   65SAPC   H3Y 5358   4.990   3.315   4.316  1.5398 -0.1414  0.5640
   65SAPC   C34 5359   4.977   3.493   4.417  0.1485  0.0238  0.1060
   65SAPC   H4X 5360   4.867   3.505   4.414  0.2985  1.9706  1.1511
   65SAPC   H4Y 5361   5.014   3.597   4.401 -0.9372  0.4935  0.5289
   65SAPC   C35 5362   5.000   3.431   4.552 -0.8171 -0.1711 -0.3102
   65SAPC   H5X 5363   5.109   3.426   4.573 -1.0253 -0.4061  0.7891
   65SAPC   H5Y 5364   4.974   3.324   4.540 -0.5465 -0.0816 -1.7943
   65SAPC   C36 5365   4.928   3.504   4.662 -0.2870  0.6500 -0.7569
   65SAPC   H6X 5366   4.818   3.501   4.650 -0.5271 -0.2766  1.3076
   65SAPC   H6Y 5367   4.943   3.614   4.661 -4.1358  1.3004 -0.6356
   65SAPC   C37 5368   4.963   3.440   4.804 -0.2821 -0.1785 -0.0476
   65SAPC   H7X 5369   5.072   3.439   4.821 -0.3219  0.6758  0.3155
   65SAPC   H7Y 5370   4.924   3.338   4.784  0.0518 -0.0533 -1.4995
   65SAPC   C38 5371   4.903   3.517   4.919  0.2175 -0.7264  0.2223
   65SAPC   H8X 5372   4.811   3.568   4.881  0.3966 -0.1641  0.5343
   65SAPC   H8Y 5373   4.973   3.594   4.957 -0.2180 -0.0280 -0.3499
   65SAPC   C39 5374   4.873   3.413   5.030 -0.3049 -1.0444  0.3902
   65SAPC   H9X 5375   4.971   3.364   5.045  0.1604  0.0586  1.0436
   65SAPC   H9Y 5376   4.792   3.344   4.999 -0.8720  0.6058 -2.2208
   65SAPC  C310 5377   4.822   3.479   5.158 -0.0155 -0.0653  0.5004
   65SAPC  H10X 5378   4.712   3.490   5.160 -0.1636 -1.0282 -0.9517
   65SAPC  H10Y 5379   4.869   3.580   5.156  2.1312 -1.0144 -0.5446
   65SAPC  C311 5380   4.856   3.404   5.281 -0.2787  0.3588 -0.4635
   65SAPC  H11X 5381   4.966   3.387   5.277 -0.4162 -0.5715 -0.5759
   65SAPC  H11Y 5382   4.808   3.304   5.274  0.3321  0.1162 -1.4248
   65SAPC  C312 5383   4.816   3.464   5.414 -0.1754 -0.0606  0.9004
   65SAPC  H12X 5384   4.879   3.554   5.432 -0.6315  0.5793 -0.5511
   65SAPC  H12Y 5385   4.842   3.397   5.499  0.4061  0.9698  1.5585
   65SAPC  C313 5386   4.671   3.508   5.416  0.0907 -0.8384  0.9181
   65SAPC  H13X 5387   4.625   3.412   5.383 -1.4358 -0.0436  0.6831
   65SAPC  H13Y 5388   4.653   3.588   5.341 -0.9216 -0.6941  1.3055
   65SAPC  C314 5389   4.623   3.555   5.551  0.8890 -0.1885 -0.3709
   65SAPC  H14X 5390   4.675   3.643   5.594  3.8968 -3.3137  3.0093
   65SAPC  H14Y 5391   4.638   3.479   5.630 -1.1527 -0.0814  0.1692
   65SAPC  C315 5392   4.469   3.563   5.545  0.2097 -0.4416 -0.6774
   65SAPC  H15X 5393   4.409   3.480   5.502  0.5121 -2.7592  2.9298
   65SAPC  H15Y 5394   4.452   3.646   5.473  0.5670 -0.3640 -0.6753
   65SAPC  C316 5395   4.396   3.595   5.674  0.4508 -0.4404 -0.7569
   65SAPC  H16X 5396   4.294   3.638   5.662 -0.6967 -3.0872 -1.1549
   65SAPC  H16Y 5397   4.450   3.675   5.730 -1.1356 -0.1367  0.4184
   65SAPC  C317 5398   4.394   3.488   5.780  0.1889 -0.0053 -0.3500
   65SAPC  H17X 5399   4.488   3.433   5.758 -0.6552 -0.8005 -2.1276
   65SAPC  H17Y 5400   4.326   3.404   5.752 -0.3796  1.0549 -2.3396
   65SAPC  C318 5401   4.387   3.526   5.931  0.3752  0.4277  0.5521
   65SAPC  H18X 5402   4.378   3.431   5.987  0.6913  1.3521  2.2404
   65SAPC  H18Y 5403   4.299   3.591   5.947  0.0254 -0.4296  2.2772
   65SAPC  H18Z 5404   4.480   3.578   5.964  1.2746 -1.7472  1.6263
   66SAPC     N 5405   0.046   5.458   2.834  0.1029 -0.0627 -0.2776
   66SAPC   C12 5406   0.073   5.414   2.981 -0.1559  0.0333  0.6685
   66SAPC  H12A 5407   0.014   5.474   3.048 -0.7340 -0.8630  0.9804
   66SAPC  H12B 5408   0.173   5.445   3.007 -0.4688  3.3893 -1.5092
   66SAPC   C13 5409   0.135   5.397   2.737  0.1003 -0.6776  0.6646
   66SAPC  H13A 5410   0.162   5.295   2.761 -0.0832 -0.9551 -0.2708
   66SAPC  H13B 5411   0.094   5.407   2.637  2.3930  3.2399 -0.0846
   66SAPC  H13C 5412   0.226   5.455   2.736 -0.2735 -0.0532 -1.1688
   66SAPC   C14 5413  -0.089   5.419   2.791  0.1768  0.1378 -0.0293
   66SAPC  H14A 5414  -0.168   5.468   2.846  0.6395 -0.0393  0.8079
   66SAPC  H14B 5415  -0.100   5.439   2.685  0.4055  0.7408  0.0568
   66SAPC  H14C 5416  -0.108   5.315   2.813  1.5454 -0.0141  0.5716
   66SAPC   C15 5417   0.051   5.611   2.813 -0.2209 -0.0860 -0.3492
   66SAPC  H15A 5418   0.028   5.641   2.711  1.8385 -0.4049 -0.9547
   66SAPC  H15B 5419  -0.000   5.654   2.897 -0.8221 -0.5596 -0.4628
   66SAPC  H15C 5420   0.153   5.645   2.814 -0.0105 -0.5628 -1.9243
   66SAPC   C11 5421   0.039   5.269   3.021  0.3843 -0.3980  0.0059
   66SAPC  H11A 5422  -0.069   5.260   3.001 -0.0552  1.6066  1.2305
   66SAPC  H11B 5423   0.058   5.256   3.130  1.0803 -0.3198 -0.0962
   66SAPC     P 5424   0.264   5.139   2.971  0.0865 -0.0879 -0.1266
   66SAPC   O13 5425   0.269   4.994   3.016 -0.1439 -0.8754 -0.6948
   66SAPC   O14 5426   0.346   5.169   2.847  0.6772 -0.9165 -0.2508
   66SAPC   O12 5427   0.111   5.173   2.943 -0.3688  0.2516 -0.2902
   66SAPC   O11 5428   0.312   5.234   3.088  0.5535  0.0797  0.0014
   66SAPC    C1 5429   0.453   5.264   3.094 -0.5625  0.7585  0.4673
   66SAPC    HA 5430   0.517   5.174   3.084  2.2734  2.8289 -1.7394
   66SAPC    HB 5431   0.487   5.338   3.019 -0.3712 -0.9205 -1.1986
   66SAPC    C2 5432   0.483   5.317   3.238 -0.4812 -0.5840 -0.2913
   66SAPC    HS 5433   0.591   5.330   3.260 -0.9571  1.9503  0.8518
   66SAPC   O21 5434   0.441   5.225   3.339  0.2833 -0.0216 -0.1450
   66SAPC   C21 5435   0.519   5.115   3.361 -0.1338 -0.4788 -0.2917
   66SAPC   O22 5436   0.629   5.098   3.306  0.1628  0.0486  0.1508
   66SAPC   C22 5437   0.455   5.034   3.471  0.1325  0.1286  0.4127
   66SAPC   H2R 5438   0.345   5.048   3.485  0.4049  0.9396  1.9205
   66SAPC   H2S 5439   0.480   4.928   3.448 -0.6861 -0.4803  2.1388
   66SAPC    C3 5440   0.428   5.465   3.255 -0.0585 -0.3861 -0.0513
   66SAPC    HX 5441   0.322   5.437   3.277 -0.2100  1.1898  1.3941
   66SAPC    HY 5442   0.442   5.518   3.159 -0.1251 -1.2252 -0.5372
   66SAPC   O31 5443   0.490   5.540   3.364  0.2118  0.0454  0.3657
   66SAPC   C31 5444   0.420   5.619   3.437 -0.3178 -0.7731 -0.8290
   66SAPC   O32 5445   0.306   5.653   3.419 -0.1951  0.2736  0.1032
   66SAPC   C32 5446   0.510   5.666   3.550 -0.2584 -0.2280 -0.3565
   66SAPC   H2X 5447   0.490   5.775   3.547 -1.7601 -0.4876 -2.1571
   66SAPC   H2Y 5448   0.613   5.639   3.520  0.6926  1.2267  1.3661
   66SAPC   C23 5449   0.523   5.065   3.604  0.0776  0.1367 -0.1327
   66SAPC   H3R 5450   0.632   5.081   3.589 -0.1551  1.1884 -0.7676
   66SAPC   H3S 5451   0.513   4.977   3.671  1.5884  0.7278  0.9189
   66SAPC   C24 5452   0.472   5.188   3.683  0.4329 -0.1134  0.0184
   66SAPC   H4R 5453   0.505   5.281   3.633 -2.2840  0.0546 -1.6855
   66SAPC   H4S 5454   0.526   5.187   3.780  0.8752 -0.6684 -0.2230
   66SAPC   C25 5455   0.327   5.209   3.706  0.2020  0.6590 -0.0677
   66SAPC   H5R 5456   0.263   5.215   3.616 -1.5784  0.3490  1.1197
   66SAPC   C26 5457   0.261   5.199   3.828 -0.3152  0.3953  0.3092
   66SAPC   H6R 5458   0.158   5.237   3.825 -0.4492  0.0438  0.4066
   66SAPC   C27 5459   0.319   5.156   3.964 -0.4157  0.1400 -0.4206
   66SAPC   H7R 5460   0.246   5.162   4.048 -0.0449 -0.0090 -0.0837
   66SAPC   H7S 5461   0.403   5.222   3.995 -0.3933  0.6637 -1.5556
   66SAPC   C28 5462   0.363   5.013   3.963 -0.9341  0.7148 -0.3500
   66SAPC   H8R 5463   0.316   4.948   3.887  1.3299 -0.4304 -0.8599
   66SAPC   C29 5464   0.466   4.950   4.030 -0.1009 -0.5375 -0.1915
   66SAPC   H9R 5465   0.470   4.841   4.026  2.2464 -0.4994 -0.1553
   66SAPC  C210 5466   0.563   5.007   4.132 -0.0490 -0.3510  0.8583
   66SAPC  H10R 5467   0.653   5.043   4.078  0.3169 -0.6123  1.2764
   66SAPC  H10S 5468   0.615   4.929   4.193  1.2553 -1.7265 -1.8292
   66SAPC  C211 5469   0.505   5.112   4.224 -1.1509  0.4731 -0.5318
   66SAPC  H11R 5470   0.396   5.121   4.212 -1.4837  1.2785  2.3639
   66SAPC  C212 5471   0.568   5.168   4.324 -0.6783 -0.5323 -0.3803
   66SAPC  H12R 5472   0.508   5.237   4.385  0.5388  0.1276  0.1208
   66SAPC  C213 5473   0.708   5.151   4.372 -0.2481 -0.4243 -0.1227
   66SAPC  H13R 5474   0.765   5.246   4.362  1.0759 -1.2288 -0.4153
   66SAPC  H13S 5475   0.762   5.090   4.297  0.6288  1.1922 -0.8657
   66SAPC  C214 5476   0.729   5.087   4.503 -0.3771 -0.6960 -0.2933
   66SAPC  H14R 5477   0.672   4.993   4.504 -0.0867 -0.9461 -2.1879
   66SAPC  C215 5478   0.764   5.154   4.615 -0.3189  0.1142  0.2745
   66SAPC  H15R 5479   0.765   5.095   4.707  0.1707 -1.4512 -0.6952
   66SAPC  C216 5480   0.826   5.295   4.642  1.0201 -0.0685 -0.5955
   66SAPC  H16R 5481   0.759   5.377   4.610 -1.8424 -0.7905  2.9413
   66SAPC  H16S 5482   0.915   5.301   4.576 -0.5491  0.2352 -2.7785
   66SAPC  C217 5483   0.856   5.328   4.789  0.3553  0.3020 -0.3855
   66SAPC  H17R 5484   0.877   5.437   4.798 -1.4251  0.5906  0.6755
   66SAPC  H17S 5485   0.946   5.273   4.824 -0.8440 -0.8944  0.8711
   66SAPC  C218 5486   0.740   5.298   4.885  0.5301 -0.0626  0.2440
   66SAPC  H18R 5487   0.704   5.194   4.870  1.5461 -0.1089 -2.4035
   66SAPC  H18S 5488   0.648   5.359   4.868  0.8175  0.6243  1.0999
   66SAPC  C219 5489   0.783   5.318   5.032  0.2883 -0.8671  0.1562
   66SAPC  H19R 5490   0.793   5.425   5.059 -1.7680 -0.8197  0.9489
   66SAPC  H19S 5491   0.879   5.266   5.050  0.6829  0.1975  1.2708
   66SAPC  C220 5492   0.683   5.264   5.135 -0.7872  0.4964 -0.5474
   66SAPC  H20R 5493   0.669   5.154   5.125 -0.5282  0.4807 -0.7339
   66SAPC  H20S 5494   0.585   5.316   5.132 -2.8699 -2.7551  2.6169
   66SAPC  H20T 5495   0.722   5.275   5.238 -2.8820  0.9791  0.2584
   66SAPC   C33 5496   0.465   5.620   3.687 -0.4075  0.3842 -0.2004
   66SAPC   H3X 5497   0.496   5.515   3.707 -0.6389  0.0803 -1.3474
   66SAPC   H3Y 5498   0.355   5.628   3.701 -0.2327  2.2145  0.3932
   66SAPC   C34 5499   0.532   5.691   3.811  0.4009  0.3954  0.7786
   66SAPC   H4X 5500   0.524   5.801   3.801  0.6611  0.3698  0.2861
   66SAPC   H4Y 5501   0.640   5.666   3.816  0.4210 -0.1486 -1.4555
   66SAPC   C35 5502   0.482   5.641   3.955  0.8030  0.3576 -0.0957
   66SAPC   H5X 5503   0.468   5.531   3.962  0.0977  0.3400 -1.4732
   66SAPC   H5Y 5504   0.386   5.687   3.986  0.8313 -0.9548  2.1755
   66SAPC   C36 5505   0.594   5.673   4.055  0.7688  0.1309  0.4742
   66SAPC   H6X 5506   0.621   5.779   4.035  3.3941 -0.8626 -1.8555
   66SAPC   H6Y 5507   0.684   5.611   4.033  0.9711  0.6956 -0.3103
   66SAPC   C37 5508   0.552   5.646   4.196 -0.9591  0.2496  0.3413
   66SAPC   H7X 5509   0.521   5.540   4.207  0.1533 -0.3800 -2.0642
   66SAPC   H7Y 5510   0.454   5.695   4.212 -2.6478 -2.7552  0.0762
   66SAPC   C38 5511   0.653   5.670   4.313 -0.2256  0.7150  0.5751
   66SAPC   H8X 5512   0.676   5.779   4.305  0.4955  0.4857 -0.8005
   66SAPC   H8Y 5513   0.742   5.612   4.280  0.6985  2.1703  0.4131
   66SAPC   C39 5514   0.614   5.631   4.452  0.2820  0.6415 -0.1999
   66SAPC   H9X 5515   0.615   5.520   4.465  2.7811  0.5158 -0.9367
   66SAPC   H9Y 5516   0.512   5.671   4.472  0.5192  0.8076  0.7176
   66SAPC  C310 5517   0.709   5.680   4.563  0.1088 -0.0883  0.1840
   66SAPC  H10X 5518   0.723   5.787   4.540 -2.1239  0.4270  1.0023
   66SAPC  H10Y 5519   0.813   5.641   4.553  0.3898  1.1436 -2.7172
   66SAPC  C311 5520   0.650   5.669   4.705 -0.0972 -0.9503  0.3103
   66SAPC  H11X 5521   0.641   5.563   4.738 -0.7959 -0.6408  1.1500
   66SAPC  H11Y 5522   0.548   5.714   4.699  0.1593  0.1816  3.1020
   66SAPC  C312 5523   0.737   5.741   4.806  0.0018  0.1131 -0.2156
   66SAPC  H12X 5524   0.758   5.847   4.778 -0.6034  0.4513  0.5601
   66SAPC  H12Y 5525   0.839   5.698   4.813  1.1204  2.7632  1.5804
   66SAPC  C313 5526   0.679   5.735   4.944 -0.3150 -0.1322  0.3319
   66SAPC  H13X 5527   0.635   5.635   4.965 -1.0322  0.2513  0.6713
   66SAPC  H13Y 5528   0.596   5.808   4.934 -0.7807 -0.6182  0.6287
   66SAPC  C314 5529   0.775   5.766   5.061 -0.0427 -0.3397  0.0864
   66SAPC  H14X 5530   0.808   5.867   5.028 -0.2913 -0.3704 -0.2571
   66SAPC  H14Y 5531   0.855   5.689   5.067  1.1866  0.6758 -2.1129
   66SAPC  C315 5532   0.714   5.766   5.204  0.0377  0.1950 -0.3658
   66SAPC  H15X 5533   0.612   5.809   5.201 -0.6252 -1.0033  2.2413
   66SAPC  H15Y 5534   0.774   5.839   5.263 -1.3018  1.3154 -0.3424
   66SAPC  C316 5535   0.710   5.624   5.261 -0.4508 -0.3161 -0.3496
   66SAPC  H16X 5536   0.812   5.579   5.256 -0.7112 -0.8648 -0.8082
   66SAPC  H16Y 5537   0.639   5.565   5.200 -0.0580 -3.8589  2.3265
   66SAPC  C317 5538   0.658   5.622   5.404 -0.5493 -0.0806 -0.4317
   66SAPC  H17X 5539   0.570   5.689   5.414 -1.3376 -1.2542  0.8918
   66SAPC  H17Y 5540   0.731   5.665   5.476 -3.4015 -0.6128  3.0537
   66SAPC  C318 5541   0.605   5.488   5.446 -0.0555 -0.0327 -0.0060
   66SAPC  H18X 5542   0.501   5.478   5.409 -0.2125  0.2082  0.3571
   66SAPC  H18Y 5543   0.600   5.475   5.557  1.6941 -3.1693 -0.1884
   66SAPC  H18Z 5544   0.667   5.404   5.408 -1.1614 -2.2164  2.6733
   67SAPC     N 5545   0.197   3.598   3.065  0.4886 -1.3482  0.0411
   67SAPC   C12 5546   0.111   3.598   3.186 -0.9695  0.6734  0.3868
   67SAPC  H12A 5547   0.066   3.501   3.202  0.0462  0.3209  1.1700
   67SAPC  H12B 5548   0.027   3.665   3.171 -0.7969  0.3928 -2.4270
   67SAPC   C13 5549   0.120   3.562   2.936  0.8318 -0.8947 -0.1291
   67SAPC  H13A 5550   0.177   3.562   2.844  0.3693  0.7830 -0.4509
   67SAPC  H13B 5551   0.081   3.466   2.965  2.7640 -1.1034  2.0813
   67SAPC  H13C 5552   0.041   3.632   2.915  0.9798 -0.5841  0.3297
   67SAPC   C14 5553   0.247   3.739   3.041  0.2273  0.9513  0.6120
   67SAPC  H14A 5554   0.311   3.775   3.120 -0.8893 -0.2286  2.1195
   67SAPC  H14B 5555   0.300   3.751   2.948  2.0574 -0.5170  1.4137
   67SAPC  H14C 5556   0.162   3.804   3.027  1.2655  1.9323 -1.6384
   67SAPC   C15 5557   0.324   3.511   3.069  0.4359  0.0384 -0.4283
   67SAPC  H15A 5558   0.385   3.539   3.154 -0.5158  1.1245 -0.0893
   67SAPC  H15B 5559   0.303   3.409   3.099 -1.0504  0.7138  0.9458
   67SAPC  H15C 5560   0.378   3.526   2.977 -2.0245  1.6126 -1.7037
   67SAPC   C11 5561   0.176   3.633   3.325  0.0260 -0.5120 -0.1077
   67SAPC  H11A 5562   0.087   3.623   3.391 -1.4887 -0.8638 -2.0706
   67SAPC  H11B 5563   0.204   3.740   3.328 -1.4740 -0.1139  2.9060
   67SAPC     P 5564   0.239   3.409   3.415 -0.2041  0.2507  0.3757
   67SAPC   O13 5565   0.099   3.380   3.390 -0.0838  0.0088 -0.0080
   67SAPC   O14 5566   0.332   3.308   3.362 -0.1130 -0.0314 -0.5397
   67SAPC   O12 5567   0.283   3.551   3.359 -0.1786  0.1664  0.0119
   67SAPC   O11 5568   0.259   3.409   3.574  0.0962  0.0591 -0.3545
   67SAPC    C1 5569   0.384   3.474   3.625  0.6613  0.7008  0.8703
   67SAPC    HA 5570   0.424   3.549   3.553 -1.2124  1.4324  0.5401
   67SAPC    HB 5571   0.359   3.527   3.719  0.9602  0.3028  1.1811
   67SAPC    C2 5572   0.487   3.361   3.649 -0.2843  0.3924  0.1169
   67SAPC    HS 5573   0.486   3.286   3.566  0.2761 -0.8335  1.1762
   67SAPC   O21 5574   0.446   3.296   3.777  0.2349 -0.1898 -0.1408
   67SAPC   C21 5575   0.509   3.189   3.814 -0.8617 -0.3438 -0.3790
   67SAPC   O22 5576   0.595   3.132   3.753 -0.2395  0.1218 -0.0113
   67SAPC   C22 5577   0.457   3.138   3.950 -0.3037 -0.2955 -0.1009
   67SAPC   H2R 5578   0.347   3.156   3.953 -0.1448  0.6835  0.5017
   67SAPC   H2S 5579   0.470   3.028   3.956  1.6575 -0.0987 -0.1424
   67SAPC    C3 5580   0.631   3.424   3.662 -0.0102 -0.2844 -0.4489
   67SAPC    HX 5581   0.655   3.455   3.558 -1.5887  0.8899 -0.4910
   67SAPC    HY 5582   0.705   3.345   3.690 -0.6678 -1.0258 -0.7760
   67SAPC   O31 5583   0.628   3.531   3.765 -0.3952 -0.2737 -0.1282
   67SAPC   C31 5584   0.692   3.644   3.748 -0.0667  0.1431 -0.2780
   67SAPC   O32 5585   0.761   3.667   3.651  0.5380 -0.1146  0.5301
   67SAPC   C32 5586   0.667   3.731   3.878 -0.2862  0.1893  0.3158
   67SAPC   H2X 5587   0.601   3.820   3.871  1.8458  2.2817  3.8833
   67SAPC   H2Y 5588   0.771   3.751   3.910  0.7116 -1.9348 -1.3535
   67SAPC   C23 5589   0.535   3.201   4.070  0.4310 -1.0887 -0.6887
   67SAPC   H3R 5590   0.544   3.311   4.054 -0.3806 -1.0651 -1.0181
   67SAPC   H3S 5591   0.637   3.158   4.079  1.4653  0.7858 -2.4889
   67SAPC   C24 5592   0.443   3.185   4.198 -0.4200  0.2503 -0.4404
   67SAPC   H4R 5593   0.429   3.078   4.223  0.4107  0.4547  0.9715
   67SAPC   H4S 5594   0.350   3.241   4.175  0.0599  2.5885  2.7305
   67SAPC   C25 5595   0.513   3.254   4.312  0.4872 -0.7343  0.7075
   67SAPC   H5R 5596   0.529   3.359   4.284  0.2875 -1.1473 -1.0832
   67SAPC   C26 5597   0.547   3.205   4.430  0.4510 -0.1208 -0.1442
   67SAPC   H6R 5598   0.567   3.274   4.513 -2.1436 -0.0213  0.4629
   67SAPC   C27 5599   0.542   3.063   4.480  1.1447 -0.2395  0.2055
   67SAPC   H7R 5600   0.647   3.027   4.484  2.3627  3.0705  2.6938
   67SAPC   H7S 5601   0.488   3.001   4.405 -3.1741  1.5249  1.5363
   67SAPC   C28 5602   0.479   3.047   4.614 -0.0730 -0.3765 -0.5671
   67SAPC   H8R 5603   0.375   3.079   4.631 -0.5033 -2.6845  1.9969
   67SAPC   C29 5604   0.515   2.965   4.712  0.7885  0.2160  0.4451
   67SAPC   H9R 5605   0.457   2.952   4.804  1.7181 -0.9070  0.9000
   67SAPC  C210 5606   0.640   2.886   4.714 -0.0910  0.5215 -0.4261
   67SAPC  H10R 5607   0.672   2.890   4.820 -1.2210  0.5672 -0.0828
   67SAPC  H10S 5608   0.725   2.947   4.676  1.0313  0.1950  1.4065
   67SAPC  C211 5609   0.644   2.745   4.665  0.3818  0.5148 -0.1984
   67SAPC  H11R 5610   0.558   2.714   4.603 -1.3933  2.6940  1.0162
   67SAPC  C212 5611   0.749   2.658   4.690  0.2564 -0.3755  0.2857
   67SAPC  H12R 5612   0.734   2.556   4.652 -0.3849 -0.4686  0.7761
   67SAPC  C213 5613   0.878   2.679   4.769  0.5400 -0.3611 -0.8676
   67SAPC  H13R 5614   0.924   2.774   4.736  0.4793 -0.8805 -2.5682
   67SAPC  H13S 5615   0.962   2.612   4.743  0.0646 -1.6722  0.8099
   67SAPC  C214 5616   0.865   2.682   4.919  0.3383  0.0401  0.4432
   67SAPC  H14R 5617   0.785   2.614   4.954 -0.7478  1.7113  1.3864
   67SAPC  C215 5618   0.943   2.748   5.009  0.1264  0.2571  0.0233
   67SAPC  H15R 5619   0.903   2.747   5.112 -3.5359 -0.9207 -1.2593
   67SAPC  C216 5620   1.055   2.848   4.972  0.0421 -0.5844 -0.9069
   67SAPC  H16R 5621   1.055   2.924   5.052  0.0810 -1.7913  0.2810
   67SAPC  H16S 5622   1.045   2.887   4.869 -3.3322 -0.1734 -0.5361
   67SAPC  C217 5623   1.186   2.765   4.993  0.0764 -0.1346 -0.4649
   67SAPC  H17R 5624   1.193   2.675   4.928  0.1635 -1.6783  1.6076
   67SAPC  H17S 5625   1.185   2.723   5.096  1.5095 -1.9986 -1.1540
   67SAPC  C218 5626   1.309   2.858   4.988 -0.5952  0.5308  0.2407
   67SAPC  H18R 5627   1.396   2.811   5.040 -1.2896  2.2093  3.1666
   67SAPC  H18S 5628   1.275   2.941   5.054 -1.8711 -0.6215  1.0932
   67SAPC  C219 5629   1.349   2.899   4.848  0.2429 -1.0887  0.2171
   67SAPC  H19R 5630   1.415   2.988   4.849 -0.0063 -0.8534 -1.2163
   67SAPC  H19S 5631   1.258   2.930   4.792  1.7190 -0.3349 -1.9256
   67SAPC  C220 5632   1.423   2.788   4.776 -0.2784 -0.6997 -0.5580
   67SAPC  H20R 5633   1.474   2.722   4.849  1.4821  0.0685 -1.0474
   67SAPC  H20S 5634   1.484   2.808   4.685 -0.1704 -0.8683 -0.5223
   67SAPC  H20T 5635   1.348   2.717   4.735 -1.5482 -0.4674  1.2539
   67SAPC   C33 5636   0.602   3.646   3.992  0.4773  0.0814 -0.0126
   67SAPC   H3X 5637   0.663   3.556   4.013 -0.0166 -0.4597 -0.8824
   67SAPC   H3Y 5638   0.507   3.597   3.963  0.0411  0.1054  1.3092
   67SAPC   C34 5639   0.563   3.709   4.131 -0.4105  0.2286  0.0729
   67SAPC   H4X 5640   0.491   3.635   4.173  1.8710 -1.5955  1.0037
   67SAPC   H4Y 5641   0.523   3.812   4.137 -0.8288  0.1762 -1.4853
   67SAPC   C35 5642   0.685   3.699   4.223 -0.1534 -0.3589 -0.0325
   67SAPC   H5X 5643   0.776   3.754   4.191  0.4790 -0.0129  2.1493
   67SAPC   H5Y 5644   0.701   3.590   4.229  0.5880 -0.4058 -2.0950
   67SAPC   C36 5645   0.653   3.755   4.363 -0.1855  0.3392  0.0196
   67SAPC   H6X 5646   0.549   3.737   4.397  0.0938 -0.7952  0.3198
   67SAPC   H6Y 5647   0.679   3.863   4.365  1.5620  0.0016 -1.6487
   67SAPC   C37 5648   0.745   3.681   4.458 -0.1873 -0.4553 -0.0851
   67SAPC   H7X 5649   0.848   3.715   4.434 -0.9780  1.1118 -1.4815
   67SAPC   H7Y 5650   0.724   3.574   4.441 -0.5150 -0.2926 -0.7270
   67SAPC   C38 5651   0.721   3.721   4.602  0.8331 -0.3140 -0.1182
   67SAPC   H8X 5652   0.612   3.726   4.620  0.7651  0.7337 -0.7550
   67SAPC   H8Y 5653   0.767   3.821   4.623 -1.2947  0.5132  0.8902
   67SAPC   C39 5654   0.792   3.629   4.700 -0.3308  0.0006 -0.1149
   67SAPC   H9X 5655   0.894   3.602   4.664 -0.4279  0.3380 -0.6645
   67SAPC   H9Y 5656   0.734   3.534   4.698 -2.3702  1.1338  1.5650
   67SAPC  C310 5657   0.810   3.692   4.840 -0.1335  0.0200  0.7715
   67SAPC  H10X 5658   0.741   3.655   4.919  1.7839 -3.6852  0.9627
   67SAPC  H10Y 5659   0.783   3.798   4.825 -1.6003 -0.4630 -0.2126
   67SAPC  C311 5660   0.952   3.686   4.890  0.2531 -0.1222 -0.7436
   67SAPC  H11X 5661   1.016   3.762   4.840 -0.6466  4.2341  3.9822
   67SAPC  H11Y 5662   0.989   3.583   4.868  2.0882  0.0556  1.0962
   67SAPC  C312 5663   0.967   3.707   5.041  0.7162  0.1497  0.6124
   67SAPC  H12X 5664   1.069   3.682   5.076  1.2127 -0.6811 -1.2934
   67SAPC  H12Y 5665   0.897   3.642   5.099  0.7114  0.0437  0.4888
   67SAPC  C313 5666   0.929   3.849   5.083  0.0839  0.1018  0.5465
   67SAPC  H13X 5667   0.827   3.872   5.046  0.2606 -1.0803 -0.7308
   67SAPC  H13Y 5668   0.990   3.928   5.032 -1.7164  2.0947  1.3268
   67SAPC  C314 5669   0.950   3.872   5.237  0.2179 -0.1414 -0.8726
   67SAPC  H14X 5670   1.056   3.896   5.261 -0.8835  1.5398  3.1015
   67SAPC  H14Y 5671   0.931   3.777   5.290 -0.3625  0.9304  0.9354
   67SAPC  C315 5672   0.855   3.974   5.306  0.0818 -0.1454  0.0357
   67SAPC  H15X 5673   0.757   3.933   5.337  0.8111 -0.9753  1.3562
   67SAPC  H15Y 5674   0.826   4.048   5.228  1.2305  0.8144  0.4713
   67SAPC  C316 5675   0.930   4.049   5.413 -0.2307  0.6499  0.0552
   67SAPC  H16X 5676   1.030   4.078   5.376  0.1800 -1.4971 -0.6490
   67SAPC  H16Y 5677   0.955   3.978   5.495  0.4232  1.0769  0.2341
   67SAPC  C317 5678   0.862   4.179   5.464 -0.2814  0.5916  0.4478
   67SAPC  H17X 5679   0.758   4.158   5.498 -0.4770  1.6016  0.4816
   67SAPC  H17Y 5680   0.857   4.241   5.372  1.3980 -0.1514 -0.1892
   67SAPC  C318 5681   0.948   4.251   5.571 -0.0060  0.7846 -0.1388
   67SAPC  H18X 5682   1.049   4.252   5.525  0.3520 -2.0582  0.3889
   67SAPC  H18Y 5683   0.972   4.182   5.656 -0.7382  0.8621  0.1359
   67SAPC  H18Z 5684   0.911   4.351   5.599  1.7219  1.2016  0.8552
   68SAPC     N 5685   3.428   5.820   2.631 -0.0031 -0.1430 -1.0122
   68SAPC   C12 5686   3.468   5.891   2.759 -0.1578 -0.2027  0.3714
   68SAPC  H12A 5687   3.556   5.854   2.809  0.6750  0.4812 -0.5488
   68SAPC  H12B 5688   3.392   5.874   2.834  0.5800  0.2227  1.2321
   68SAPC   C13 5689   3.418   5.671   2.643  0.1637  0.3363 -0.1113
   68SAPC  H13A 5690   3.498   5.615   2.688 -1.1984 -1.6483 -0.0138
   68SAPC  H13B 5691   3.336   5.644   2.708 -1.0950  1.3985 -1.1998
   68SAPC  H13C 5692   3.401   5.627   2.545  2.3948  0.2224 -0.4853
   68SAPC   C14 5693   3.297   5.867   2.579  0.0579  0.8758  0.0542
   68SAPC  H14A 5694   3.292   5.974   2.565  1.0069  0.8742 -0.4286
   68SAPC  H14B 5695   3.287   5.825   2.480  0.5325 -1.3368  0.8775
   68SAPC  H14C 5696   3.215   5.837   2.642 -0.3471 -0.7732 -1.1997
   68SAPC   C15 5697   3.542   5.832   2.540 -0.2325  0.4746 -0.2354
   68SAPC  H15A 5698   3.532   5.781   2.445  0.5742  2.7020 -1.6056
   68SAPC  H15B 5699   3.559   5.937   2.518 -0.6048  0.9677  1.6798
   68SAPC  H15C 5700   3.628   5.780   2.580  0.8475 -0.2030 -3.1870
   68SAPC   C11 5701   3.482   6.045   2.745 -0.1381 -0.8076  0.2241
   68SAPC  H11A 5702   3.480   6.085   2.849 -1.8817 -0.1985 -0.0173
   68SAPC  H11B 5703   3.389   6.094   2.709  0.5399  0.7401  0.4859
   68SAPC     P 5704   3.731   6.117   2.718  0.0573 -0.2532  0.1123
   68SAPC   O13 5705   3.783   6.004   2.797  0.3809 -0.4372 -0.1144
   68SAPC   O14 5706   3.818   6.180   2.617 -0.1562  0.4436  0.6552
   68SAPC   O12 5707   3.593   6.086   2.662 -0.1506 -0.8569 -0.0757
   68SAPC   O11 5708   3.692   6.228   2.823 -0.2569 -0.3936  0.6049
   68SAPC    C1 5709   3.671   6.372   2.790  0.0289  0.5333 -0.7491
   68SAPC    HA 5710   3.768   6.404   2.747  0.1493 -0.4431 -1.2198
   68SAPC    HB 5711   3.600   6.381   2.705 -1.5021  0.0815  0.4302
   68SAPC    C2 5712   3.617   6.458   2.911 -0.5153 -0.2593  0.1683
   68SAPC    HS 5713   3.694   6.482   2.986  0.1466 -0.7947 -0.3298
   68SAPC   O21 5714   3.497   6.387   2.961 -0.5434 -0.5588 -0.1347
   68SAPC   C21 5715   3.518   6.318   3.065 -0.7984  1.1529 -0.4156
   68SAPC   O22 5716   3.621   6.307   3.130  0.0289  0.0631 -0.7065
   68SAPC   C22 5717   3.394   6.237   3.096  0.2862 -0.3137 -0.1730
   68SAPC   H2R 5718   3.422   6.132   3.117  0.5466 -0.0201  1.0234
   68SAPC   H2S 5719   3.365   6.273   3.197  0.6845  0.1718 -0.2310
   68SAPC    C3 5720   3.585   6.600   2.858 -0.4214  0.0632  0.1937
   68SAPC    HX 5721   3.509   6.582   2.779 -0.3415  1.3924 -0.1929
   68SAPC    HY 5722   3.673   6.639   2.803 -0.1080  2.8219  2.4593
   68SAPC   O31 5723   3.529   6.697   2.951 -0.0961  0.1867  0.2751
   68SAPC   C31 5724   3.600   6.799   2.980 -0.1945 -0.1046  0.7534
   68SAPC   O32 5725   3.713   6.825   2.942 -0.3886 -0.8068  0.2652
   68SAPC   C32 5726   3.520   6.877   3.087 -0.4966 -0.3882 -0.4616
   68SAPC   H2X 5727   3.474   6.806   3.158 -1.1358 -0.5173 -0.9894
   68SAPC   H2Y 5728   3.447   6.941   3.032  0.7904  2.5147  1.0000
   68SAPC   C23 5729   3.275   6.250   2.997  0.0935  0.1060 -0.5862
   68SAPC   H3R 5730   3.195   6.180   3.030  1.0790 -0.5891  0.3936
   68SAPC   H3S 5731   3.310   6.204   2.902 -0.6067 -0.1273 -0.7394
   68SAPC   C24 5732   3.203   6.381   2.989  0.1420  0.5743  0.3322
   68SAPC   H4R 5733   3.267   6.470   2.972 -1.2745  1.4429 -0.7018
   68SAPC   H4S 5734   3.150   6.392   3.086  0.2928 -0.8990  0.6104
   68SAPC   C25 5735   3.101   6.376   2.881 -0.3677  0.0859 -0.4733
   68SAPC   H5R 5736   3.138   6.372   2.777  0.0462 -0.4677 -0.3131
   68SAPC   C26 5737   2.967   6.370   2.899  0.5450  0.4948  0.2553
   68SAPC   H6R 5738   2.914   6.360   2.804 -0.2557 -2.2573  0.8917
   68SAPC   C27 5739   2.889   6.365   3.022 -0.4848  0.9238 -1.0496
   68SAPC   H7R 5740   2.951   6.389   3.111  0.1733  1.7208 -1.6989
   68SAPC   H7S 5741   2.853   6.262   3.042  2.1893  0.2558  0.7929
   68SAPC   C28 5742   2.766   6.449   3.022 -0.0927 -0.3800  0.9747
   68SAPC   H8R 5743   2.775   6.543   3.077 -3.6502  0.8027 -0.2406
   68SAPC   C29 5744   2.657   6.424   2.955  0.0926  0.4144 -0.5242
   68SAPC   H9R 5745   2.575   6.497   2.959 -0.9407 -0.7658  0.3761
   68SAPC  C210 5746   2.628   6.299   2.867 -0.3015 -0.0573 -0.0573
   68SAPC  H10R 5747   2.585   6.226   2.938  2.3830  1.7883  3.8649
   68SAPC  H10S 5748   2.721   6.252   2.828  0.6603  0.9163  0.9684
   68SAPC  C211 5749   2.543   6.349   2.745 -0.3038 -0.1497 -0.4783
   68SAPC  H11R 5750   2.595   6.429   2.690 -1.7207  0.3287 -1.1707
   68SAPC  C212 5751   2.425   6.291   2.710 -0.3448 -0.0815  0.3395
   68SAPC  H12R 5752   2.380   6.334   2.619  2.1630  0.8643 -0.5549
   68SAPC  C213 5753   2.349   6.171   2.765 -0.1220 -0.1397  0.4607
   68SAPC  H13R 5754   2.271   6.218   2.829 -2.3558  0.9345 -2.7865
   68SAPC  H13S 5755   2.418   6.115   2.831  1.4891  1.4508  0.2079
   68SAPC  C214 5756   2.281   6.090   2.658 -0.3330  0.5452 -0.5823
   68SAPC  H14R 5757   2.194   6.140   2.612 -0.4668  1.2655  0.4078
   68SAPC  C215 5758   2.315   5.960   2.632  0.2129 -0.2807  0.7395
   68SAPC  H15R 5759   2.236   5.903   2.580 -0.2860  1.3293 -0.3337
   68SAPC  C216 5760   2.426   5.880   2.695 -0.5559 -0.4310 -0.0847
   68SAPC  H16R 5761   2.502   5.940   2.750  0.9069 -0.7131 -1.7165
   68SAPC  H16S 5762   2.482   5.841   2.607 -0.2184  2.0169 -1.0427
   68SAPC  C217 5763   2.371   5.776   2.792  0.3437  0.2245  0.8626
   68SAPC  H17R 5764   2.304   5.817   2.871 -0.1569  0.9340  0.0837
   68SAPC  H17S 5765   2.464   5.736   2.839  0.3996 -1.8360 -0.8591
   68SAPC  C218 5766   2.302   5.662   2.717 -0.3427 -0.1308 -0.1481
   68SAPC  H18R 5767   2.384   5.635   2.647 -0.3806 -0.8670  0.0943
   68SAPC  H18S 5768   2.214   5.693   2.655  0.3175  1.0520 -0.5279
   68SAPC  C219 5769   2.259   5.541   2.797 -0.2662  0.3565  0.2972
   68SAPC  H19R 5770   2.357   5.494   2.820 -0.1547  0.6912  0.5306
   68SAPC  H19S 5771   2.196   5.474   2.736  0.4093  1.6972 -2.0192
   68SAPC  C220 5772   2.196   5.574   2.928 -0.5413  0.2632 -0.1350
   68SAPC  H20R 5773   2.275   5.626   2.987  0.8264  0.7634 -2.3184
   68SAPC  H20S 5774   2.167   5.475   2.970  1.2391 -0.0516  0.4103
   68SAPC  H20T 5775   2.107   5.640   2.920 -1.6175 -0.8972  1.5255
   68SAPC   C33 5776   3.593   6.981   3.174  0.0932 -0.0942 -0.5390
   68SAPC   H3X 5777   3.663   7.038   3.109  2.0538 -3.1693 -1.4002
   68SAPC   H3Y 5778   3.668   6.921   3.230  0.7257  0.6380 -0.5884
   68SAPC   C34 5779   3.504   7.064   3.266  0.1664 -0.0281 -0.3899
   68SAPC   H4X 5780   3.426   7.127   3.217 -1.3557 -1.7425 -0.2733
   68SAPC   H4Y 5781   3.585   7.129   3.306  1.8738 -2.6093  0.5822
   68SAPC   C35 5782   3.436   6.996   3.385 -0.1968  0.6573 -0.4409
   68SAPC   H5X 5783   3.509   6.923   3.427 -0.0140 -0.1196 -2.0119
   68SAPC   H5Y 5784   3.350   6.936   3.349 -0.4946 -1.4361  3.2186
   68SAPC   C36 5785   3.382   7.092   3.498  0.8403  0.2709  0.1620
   68SAPC   H6X 5786   3.306   7.161   3.456 -1.6375 -2.5519 -0.3743
   68SAPC   H6Y 5787   3.473   7.152   3.521  1.1602  0.3777 -1.2600
   68SAPC   C37 5788   3.320   7.026   3.622 -0.2481  0.2678 -0.0732
   68SAPC   H7X 5789   3.377   6.935   3.651 -0.3046  0.0655 -0.5801
   68SAPC   H7Y 5790   3.225   6.981   3.585 -1.2580 -0.0359  2.6492
   68SAPC   C38 5791   3.291   7.110   3.745  0.0426 -0.5768  0.8859
   68SAPC   H8X 5792   3.199   7.088   3.803  0.1315 -1.8633  0.5782
   68SAPC   H8Y 5793   3.276   7.212   3.702 -0.5765 -0.9700  0.1497
   68SAPC   C39 5794   3.410   7.129   3.841 -0.2242 -0.5545  0.1004
   68SAPC   H9X 5795   3.507   7.149   3.790 -0.8453  0.2081 -0.8056
   68SAPC   H9Y 5796   3.422   7.042   3.908  0.2676 -0.0461  0.6862
   68SAPC  C310 5797   3.368   7.240   3.942  1.1139 -0.9987 -0.3004
   68SAPC  H10X 5798   3.265   7.227   3.983  0.7049  0.5392 -0.7652
   68SAPC  H10Y 5799   3.365   7.335   3.885  0.4996  0.1273  1.5512
   68SAPC  C311 5800   3.461   7.264   4.060  0.0634  0.0893  0.1428
   68SAPC  H11X 5801   3.556   7.294   4.010  0.1133 -0.2843  0.0121
   68SAPC  H11Y 5802   3.483   7.176   4.123  0.5540 -0.1043 -0.2829
   68SAPC  C312 5803   3.418   7.386   4.143 -0.1791 -0.1120  0.2693
   68SAPC  H12X 5804   3.373   7.467   4.082 -2.1610 -0.5212  1.0851
   68SAPC  H12Y 5805   3.505   7.436   4.190  0.4375 -0.1112 -0.8347
   68SAPC  C313 5806   3.319   7.349   4.254  0.4314  0.6452  0.0326
   68SAPC  H13X 5807   3.248   7.273   4.213  1.8007 -1.3775  1.1905
   68SAPC  H13Y 5808   3.257   7.439   4.273  0.3450  0.5848  0.0431
   68SAPC  C314 5809   3.378   7.279   4.382 -0.0919  0.5176  0.0658
   68SAPC  H14X 5810   3.479   7.249   4.345  0.2530  1.1363  0.4941
   68SAPC  H14Y 5811   3.324   7.186   4.406 -0.1505  0.5252 -0.0349
   68SAPC  C315 5812   3.391   7.375   4.507  0.0768 -0.3239  0.0724
   68SAPC  H15X 5813   3.287   7.398   4.537 -1.8222 -2.6653 -3.8668
   68SAPC  H15Y 5814   3.447   7.466   4.477 -1.4530 -0.5568 -4.1136
   68SAPC  C316 5815   3.462   7.311   4.624  0.7056  0.1883  0.7939
   68SAPC  H16X 5816   3.559   7.278   4.579  1.0725  0.4211  1.4035
   68SAPC  H16Y 5817   3.388   7.235   4.656 -2.4805  2.5358 -0.4874
   68SAPC  C317 5818   3.479   7.411   4.749 -0.5360 -0.3668 -0.8967
   68SAPC  H17X 5819   3.386   7.457   4.787  0.2104  0.8583 -0.4998
   68SAPC  H17Y 5820   3.541   7.497   4.715  0.2973 -0.2715  0.7556
   68SAPC  C318 5821   3.559   7.355   4.873 -0.1653  0.0652  0.2894
   68SAPC  H18X 5822   3.659   7.321   4.837 -0.8334 -0.6017 -1.0155
   68SAPC  H18Y 5823   3.496   7.283   4.930 -2.3453  1.4206 -0.2875
   68SAPC  H18Z 5824   3.581   7.445   4.933  1.5602  0.9576 -1.5585
   69SAPC     N 5825   0.982   1.067   2.087 -0.5171  0.1409  0.1768
   69SAPC   C12 5826   0.977   1.027   2.241  0.0362 -0.6633  0.2383
   69SAPC  H12A 5827   1.002   0.923   2.254  1.7230 -0.0817  2.3157
   69SAPC  H12B 5828   0.875   1.039   2.275 -0.0814  0.0978 -0.3496
   69SAPC   C13 5829   0.900   0.985   2.005 -0.0310  1.0640 -0.3384
   69SAPC  H13A 5830   0.918   0.992   1.899  0.5764  1.2196 -0.2249
   69SAPC  H13B 5831   0.924   0.880   2.020 -2.1642  0.7109  1.0743
   69SAPC  H13C 5832   0.796   0.996   2.033  0.1365 -1.0873  1.4085
   69SAPC   C14 5833   0.952   1.211   2.066 -0.0776  0.3227 -0.2135
   69SAPC  H14A 5834   1.033   1.274   2.101  0.3222 -0.5258  0.4293
   69SAPC  H14B 5835   0.937   1.235   1.962  0.0128 -0.1546 -0.3370
   69SAPC  H14C 5836   0.865   1.246   2.120 -1.1830 -1.5668 -0.6951
   69SAPC   C15 5837   1.121   1.043   2.035 -0.2690  0.1178  0.3126
   69SAPC  H15A 5838   1.163   0.948   2.065  3.0627  0.7881 -1.6762
   69SAPC  H15B 5839   1.122   1.053   1.928 -2.3112  1.2704  0.3658
   69SAPC  H15C 5840   1.185   1.124   2.067 -0.9122 -0.0414  2.1445
   69SAPC   C11 5841   1.086   1.096   2.324 -0.4569  0.9927  0.4271
   69SAPC  H11A 5842   1.056   1.096   2.431  0.3778  1.4533  0.6714
   69SAPC  H11B 5843   1.101   1.202   2.296  1.6902  0.4473 -0.7213
   69SAPC     P 5844   1.265   0.899   2.387  0.1432 -0.3764 -0.3857
   69SAPC   O13 5845   1.177   0.784   2.364 -0.4364 -0.2781  0.0118
   69SAPC   O14 5846   1.406   0.882   2.350 -0.2866 -0.1893  0.4009
   69SAPC   O12 5847   1.214   1.030   2.311 -0.2096 -0.4859 -0.2904
   69SAPC   O11 5848   1.265   0.936   2.541 -0.2918  0.1253 -0.1096
   69SAPC    C1 5849   1.363   1.035   2.587  0.2832  0.2407  0.0090
   69SAPC    HA 5850   1.465   1.001   2.558 -0.1254  0.0117 -1.2300
   69SAPC    HB 5851   1.337   1.131   2.537  1.4869  1.2231  1.1934
   69SAPC    C2 5852   1.343   1.047   2.740  0.3634 -0.2095 -0.4420
   69SAPC    HS 5853   1.409   1.123   2.787  0.8017 -0.0529 -1.2926
   69SAPC   O21 5854   1.359   0.918   2.787 -0.3788  0.0312  0.4261
   69SAPC   C21 5855   1.477   0.885   2.816 -0.2518 -0.8694  0.8743
   69SAPC   O22 5856   1.576   0.956   2.815 -0.4144 -0.1982  0.3496
   69SAPC   C22 5857   1.486   0.737   2.850  0.4129  0.5032 -0.2746
   69SAPC   H2R 5858   1.581   0.729   2.906  0.0774  1.5358  0.4735
   69SAPC   H2S 5859   1.412   0.718   2.932  0.4407 -1.7201 -0.6939
   69SAPC    C3 5860   1.201   1.098   2.787 -0.1292  0.1013  0.4941
   69SAPC    HX 5861   1.117   1.030   2.763 -0.4007  0.6013  0.0102
   69SAPC    HY 5862   1.189   1.199   2.742  1.1907 -0.1643 -0.5220
   69SAPC   O31 5863   1.191   1.113   2.938 -0.0800  0.1562  0.6628
   69SAPC   C31 5864   1.236   1.219   2.991  0.0541  0.1605  0.1716
   69SAPC   O32 5865   1.313   1.307   2.949  0.1990 -0.5521  0.2740
   69SAPC   C32 5866   1.174   1.218   3.134  0.0340  0.0496 -0.2638
   69SAPC   H2X 5867   1.227   1.136   3.187  1.1168 -0.4811 -2.0926
   69SAPC   H2Y 5868   1.066   1.193   3.129 -0.1064  0.5086  0.2709
   69SAPC   C23 5869   1.474   0.648   2.730 -0.0324  0.7065 -0.7674
   69SAPC   H3R 5870   1.560   0.657   2.661 -0.8642 -0.0715 -1.9432
   69SAPC   H3S 5871   1.385   0.669   2.666 -0.9799  0.3616  0.3908
   69SAPC   C24 5872   1.465   0.495   2.770 -0.5741 -0.9679  0.0652
   69SAPC   H4R 5873   1.561   0.458   2.812  1.1092  1.5929 -1.2272
   69SAPC   H4S 5874   1.448   0.434   2.678  0.3177 -1.6388  0.3317
   69SAPC   C25 5875   1.344   0.457   2.862  0.2721  0.1532 -0.1420
   69SAPC   H5R 5876   1.248   0.468   2.811 -0.8270  3.4896  2.3102
   69SAPC   C26 5877   1.352   0.448   2.998  0.5056 -0.0692 -0.1849
   69SAPC   H6R 5878   1.259   0.424   3.052  1.6680  0.7377  2.3240
   69SAPC   C27 5879   1.468   0.469   3.094 -0.0852  0.0369  0.4645
   69SAPC   H7R 5880   1.428   0.497   3.194  3.7470 -1.1900  2.5305
   69SAPC   H7S 5881   1.528   0.555   3.058  1.4973 -1.0443  0.4473
   69SAPC   C28 5882   1.556   0.350   3.119 -0.1499  0.0440  0.4764
   69SAPC   H8R 5883   1.569   0.275   3.039  1.8979 -0.3362  1.0852
   69SAPC   C29 5884   1.618   0.326   3.237  0.0631  0.3519 -0.6551
   69SAPC   H9R 5885   1.681   0.237   3.257  1.3943  1.7825  1.9493
   69SAPC  C210 5886   1.636   0.430   3.345  0.1735 -0.2597  0.3158
   69SAPC  H10R 5887   1.535   0.460   3.383  1.2124  0.4847  2.7108
   69SAPC  H10S 5888   1.689   0.518   3.302 -0.6300 -0.6466 -1.5745
   69SAPC  C211 5889   1.716   0.389   3.465  0.0641 -0.5060 -0.1452
   69SAPC  H11R 5890   1.771   0.294   3.457  0.6650 -0.0531 -1.6838
   69SAPC  C212 5891   1.732   0.472   3.573 -0.6435  0.5420  0.4227
   69SAPC  H12R 5892   1.810   0.443   3.645 -0.3657 -2.0347 -0.8199
   69SAPC  C213 5893   1.678   0.611   3.588  1.3466 -0.2941  0.0861
   69SAPC  H13R 5894   1.660   0.637   3.695 -0.2313  2.3605 -0.7225
   69SAPC  H13S 5895   1.572   0.624   3.558  0.8064 -2.8737  0.6970
   69SAPC  C214 5896   1.757   0.718   3.512 -0.6356 -0.5136  0.2433
   69SAPC  H14R 5897   1.865   0.716   3.531 -0.6388  1.9303  0.8209
   69SAPC  C215 5898   1.716   0.803   3.418 -0.4781  0.0204 -0.0087
   69SAPC  H15R 5899   1.802   0.857   3.377 -0.9108  1.2047  0.6084
   69SAPC  C216 5900   1.576   0.824   3.361 -0.3516 -0.4267 -0.3194
   69SAPC  H16R 5901   1.533   0.918   3.401  2.6875  1.7726 -1.8542
   69SAPC  H16S 5902   1.509   0.742   3.397  1.0080 -1.2814  0.3708
   69SAPC  C217 5903   1.578   0.818   3.214 -0.6991  0.4744 -0.5927
   69SAPC  H17R 5904   1.475   0.832   3.177 -1.5959 -1.6451  0.8745
   69SAPC  H17S 5905   1.609   0.716   3.181 -1.6156 -0.0438  0.0857
   69SAPC  C218 5906   1.667   0.921   3.153 -1.4046  1.0884  0.7443
   69SAPC  H18R 5907   1.665   0.915   3.042 -0.5265  0.5136  0.7520
   69SAPC  H18S 5908   1.772   0.895   3.178 -1.5295 -1.0256 -0.6576
   69SAPC  C219 5909   1.641   1.064   3.206 -0.6134  0.4451 -0.6275
   69SAPC  H19R 5910   1.692   1.090   3.301  0.4802 -2.8597 -0.1757
   69SAPC  H19S 5911   1.532   1.082   3.209 -0.9385 -1.3353  1.8157
   69SAPC  C220 5912   1.690   1.172   3.101  0.2583 -0.5480 -0.3070
   69SAPC  H20R 5913   1.668   1.273   3.142  2.5390 -0.1631  0.0929
   69SAPC  H20S 5914   1.639   1.146   3.006 -0.6817 -0.1532  0.0828
   69SAPC  H20T 5915   1.801   1.168   3.105  0.2431 -0.3250  0.3560
   69SAPC   C33 5916   1.205   1.347   3.217 -0.1255  0.1451  0.0432
   69SAPC   H3X 5917   1.147   1.432   3.176  1.1661  1.0855  0.1069
   69SAPC   H3Y 5918   1.315   1.367   3.219 -0.0584 -0.2514  1.4523
   69SAPC   C34 5919   1.176   1.322   3.368 -0.1525  0.5574  0.1279
   69SAPC   H4X 5920   1.080   1.269   3.388  0.9135 -0.8276  1.9953
   69SAPC   H4Y 5921   1.165   1.420   3.419  2.6264  1.3359 -0.6124
   69SAPC   C35 5922   1.291   1.252   3.441  0.1516 -0.0938 -0.1761
   69SAPC   H5X 5923   1.391   1.274   3.397 -0.1947  0.2864 -0.7899
   69SAPC   H5Y 5924   1.271   1.144   3.429 -1.2753 -0.0690  1.5541
   69SAPC   C36 5925   1.292   1.256   3.598 -0.0107  0.1858  0.0844
   69SAPC   H6X 5926   1.196   1.216   3.638 -0.9905  3.2566  1.1188
   69SAPC   H6Y 5927   1.296   1.362   3.632 -0.8670  0.1432  0.3336
   69SAPC   C37 5928   1.414   1.182   3.664 -0.4640  0.4457 -0.1051
   69SAPC   H7X 5929   1.513   1.226   3.640  0.0111 -0.7253 -0.3573
   69SAPC   H7Y 5930   1.417   1.082   3.617  1.9370  1.2058 -1.7322
   69SAPC   C38 5931   1.403   1.159   3.814 -0.1217  0.3996 -0.7100
   69SAPC   H8X 5932   1.299   1.130   3.839  0.2824 -2.1216 -1.6827
   69SAPC   H8Y 5933   1.422   1.257   3.862 -3.1161  1.4359 -1.3983
   69SAPC   C39 5934   1.502   1.047   3.864  0.1115 -0.4018  0.7617
   69SAPC   H9X 5935   1.489   0.958   3.798  1.8020 -0.7459  0.8625
   69SAPC   H9Y 5936   1.472   1.018   3.967  1.0165 -0.5721  0.9833
   69SAPC  C310 5937   1.648   1.100   3.863  0.5662 -0.2438  0.0667
   69SAPC  H10X 5938   1.662   1.158   3.957 -2.0889 -0.2860  0.5542
   69SAPC  H10Y 5939   1.679   1.156   3.772 -0.2749 -1.3244 -0.9061
   69SAPC  C311 5940   1.753   0.988   3.873 -0.5847  0.2291 -0.4343
   69SAPC  H11X 5941   1.853   1.025   3.844 -1.0759  2.5049  0.5726
   69SAPC  H11Y 5942   1.732   0.912   3.795 -1.7422  0.3894 -0.3067
   69SAPC  C312 5943   1.743   0.906   4.005 -0.0712  0.0717  0.2879
   69SAPC  H12X 5944   1.646   0.853   4.013  0.2984 -0.3174  2.6511
   69SAPC  H12Y 5945   1.742   0.978   4.090  0.6448  1.8325 -1.1150
   69SAPC  C313 5946   1.854   0.805   4.025  0.3468  0.6750  0.4997
   69SAPC  H13X 5947   1.957   0.847   4.029 -0.1592  1.9688  0.4895
   69SAPC  H13Y 5948   1.848   0.723   3.951 -1.4834  0.9446  0.2920
   69SAPC  C314 5949   1.838   0.729   4.157 -0.1019  0.2399  0.2612
   69SAPC  H14X 5950   1.731   0.702   4.171 -0.7462  3.1055  1.6188
   69SAPC  H14Y 5951   1.851   0.806   4.236 -0.8753  0.7701 -0.1089
   69SAPC  C315 5952   1.917   0.597   4.170  0.2684  0.1677 -0.3334
   69SAPC  H15X 5953   2.022   0.634   4.161 -0.0199  0.9897 -0.3329
   69SAPC  H15Y 5954   1.897   0.538   4.078  0.0230  0.5717 -0.5426
   69SAPC  C316 5955   1.877   0.520   4.296  0.0548 -0.0733  0.6500
   69SAPC  H16X 5956   1.772   0.485   4.281  0.5913 -0.7348 -2.2285
   69SAPC  H16Y 5957   1.883   0.590   4.381 -0.5626 -0.9806  1.4632
   69SAPC  C317 5958   1.952   0.392   4.323  0.1195 -0.1267  0.0291
   69SAPC  H17X 5959   2.058   0.420   4.346  0.2028 -0.2651 -0.1811
   69SAPC  H17Y 5960   1.954   0.317   4.241  0.1700  1.3507 -1.3580
   69SAPC  C318 5961   1.911   0.307   4.445  0.6921 -0.5009  0.2157
   69SAPC  H18X 5962   1.910   0.363   4.540  4.2530  1.1509 -0.5345
   69SAPC  H18Y 5963   1.981   0.222   4.463  1.6807  0.3171  0.3548
   69SAPC  H18Z 5964   1.812   0.261   4.427  1.0391 -0.5080 -1.9565
   70SAPC     N 5965   2.366   2.163   2.479  0.2651 -1.0190 -0.7877
   70SAPC   C12 5966   2.308   2.078   2.598 -0.2363  0.2907  0.1001
   70SAPC  H12A 5967   2.369   1.990   2.615  1.3571  1.3444  0.0057
   70SAPC  H12B 5968   2.208   2.046   2.573 -2.2055  3.5922  2.9237
   70SAPC   C13 5969   2.504   2.217   2.503  0.1267 -0.4148  0.2270
   70SAPC  H13A 5970   2.564   2.129   2.525 -0.3444 -0.9837 -0.7254
   70SAPC  H13B 5971   2.544   2.265   2.415 -2.3016 -0.4326 -0.9521
   70SAPC  H13C 5972   2.510   2.282   2.589 -0.8208 -2.3698  1.8722
   70SAPC   C14 5973   2.392   2.067   2.365  1.0375  0.4475 -0.2265
   70SAPC  H14A 5974   2.469   2.091   2.293  2.5288  0.9804  1.4766
   70SAPC  H14B 5975   2.442   1.976   2.395 -1.9972 -1.4026 -0.3625
   70SAPC  H14C 5976   2.294   2.051   2.320 -0.1406  2.6512  1.3723
   70SAPC   C15 5977   2.276   2.275   2.439 -0.5714 -0.6458 -0.6717
   70SAPC  H15A 5978   2.333   2.323   2.362  2.1711 -2.3695  0.1512
   70SAPC  H15B 5979   2.185   2.244   2.388 -0.8067  3.4286 -3.1668
   70SAPC  H15C 5980   2.245   2.337   2.522 -0.3122  0.2267 -1.2206
   70SAPC   C11 5981   2.295   2.155   2.731 -0.7338  0.4059  0.2521
   70SAPC  H11A 5982   2.393   2.195   2.762 -0.6472  0.2055  0.2410
   70SAPC  H11B 5983   2.269   2.079   2.808  0.8301  0.9615  1.3518
   70SAPC     P 5984   2.045   2.231   2.745  0.5206  0.6710  0.2521
   70SAPC   O13 5985   1.977   2.360   2.722  0.4906  0.0384  0.0115
   70SAPC   O14 5986   2.003   2.118   2.659  0.6291 -0.1395  0.1448
   70SAPC   O12 5987   2.197   2.259   2.717 -0.6712 -0.9831  0.2652
   70SAPC   O11 5988   2.038   2.185   2.896 -0.5461 -0.3519 -0.3198
   70SAPC    C1 5989   1.937   2.094   2.933  0.2191  0.1395  0.3204
   70SAPC    HA 5990   1.841   2.148   2.942 -0.1642 -0.4045 -0.3436
   70SAPC    HB 5991   1.914   2.016   2.857 -2.7079  0.7083  0.5252
   70SAPC    C2 5992   1.982   2.037   3.066 -0.1822  0.5806  0.6549
   70SAPC    HS 5993   1.915   1.949   3.078 -0.7713  0.4517 -2.6476
   70SAPC   O21 5994   1.965   2.128   3.175 -0.1829  0.0097  0.3716
   70SAPC   C21 5995   1.836   2.149   3.211  0.4273 -0.0195  0.5990
   70SAPC   O22 5996   1.743   2.093   3.158  0.9941  0.8766 -0.0904
   70SAPC   C22 5997   1.829   2.242   3.327  0.1839 -0.7917 -0.2372
   70SAPC   H2R 5998   1.864   2.345   3.305  2.5733 -1.8080 -1.4668
   70SAPC   H2S 5999   1.720   2.243   3.348  0.4992 -0.2551  1.5947
   70SAPC    C3 6000   2.125   1.978   3.068 -0.3517 -0.3243  0.6613
   70SAPC    HX 6001   2.202   2.058   3.075 -0.3583 -0.2433 -0.1583
   70SAPC    HY 6002   2.137   1.933   2.968 -2.9333  1.9853 -0.8407
   70SAPC   O31 6003   2.137   1.872   3.171  0.1645 -1.2372  0.2479
   70SAPC   C31 6004   2.206   1.905   3.271 -0.2220 -0.1146 -0.5411
   70SAPC   O32 6005   2.242   2.018   3.301  0.3039 -0.2849 -0.3335
   70SAPC   C32 6006   2.233   1.787   3.367  0.0207 -0.1083 -0.1736
   70SAPC   H2X 6007   2.175   1.779   3.461 -0.9980 -3.3162 -0.9553
   70SAPC   H2Y 6008   2.336   1.816   3.398 -0.5726  0.0230  1.7775
   70SAPC   C23 6009   1.913   2.195   3.453  0.4278  0.0170 -0.4824
   70SAPC   H3R 6010   1.900   2.275   3.529 -1.3025  1.3439 -2.0776
   70SAPC   H3S 6011   2.017   2.196   3.413  0.8692  2.8389  0.5041
   70SAPC   C24 6012   1.878   2.061   3.521 -0.3959  0.5263  0.9381
   70SAPC   H4R 6013   1.913   1.989   3.444 -1.1311  1.3622 -0.2084
   70SAPC   H4S 6014   1.769   2.039   3.523  0.0072 -2.6708 -1.8417
   70SAPC   C25 6015   1.938   2.034   3.654 -0.4850 -0.4748  0.4192
   70SAPC   H5R 6016   1.959   2.120   3.720 -0.6193 -0.5936  0.6190
   70SAPC   C26 6017   1.941   1.924   3.726 -0.2141  0.4943 -0.1406
   70SAPC   H6R 6018   1.972   1.937   3.831  0.3445 -0.0350 -0.2372
   70SAPC   C27 6019   1.871   1.799   3.693  0.5916 -0.3788 -0.1881
   70SAPC   H7R 6020   1.822   1.803   3.593  1.0606 -4.4446 -0.7236
   70SAPC   H7S 6021   1.793   1.781   3.769 -0.3219 -0.0995 -1.0270
   70SAPC   C28 6022   1.971   1.695   3.684 -0.3780  0.1204  0.1440
   70SAPC   H8R 6023   2.035   1.706   3.596  0.7853 -2.0495  0.6486
   70SAPC   C29 6024   1.988   1.598   3.772 -0.0958 -0.3675  0.4660
   70SAPC   H9R 6025   2.062   1.520   3.748  0.9894  0.6446  0.4754
   70SAPC  C210 6026   1.894   1.571   3.891 -0.3443  0.0908  0.1376
   70SAPC  H10R 6027   1.789   1.593   3.864 -0.8868 -1.8764  0.4559
   70SAPC  H10S 6028   1.923   1.646   3.967 -0.3439  1.9688 -1.6391
   70SAPC  C211 6029   1.907   1.428   3.953 -0.4104 -0.0429  0.2162
   70SAPC  H11R 6030   1.822   1.362   3.931  0.8917 -1.7560  0.1191
   70SAPC  C212 6031   2.008   1.378   4.026  0.2118  0.1115  0.3376
   70SAPC  H12R 6032   1.989   1.274   4.058  0.9292 -0.0702  0.1978
   70SAPC  C213 6033   2.138   1.440   4.067 -0.5067  0.5077 -0.3130
   70SAPC  H13R 6034   2.125   1.548   4.088 -0.9646  0.4539 -0.3190
   70SAPC  H13S 6035   2.199   1.455   3.975  1.7772  0.1682  1.0492
   70SAPC  C214 6036   2.232   1.385   4.171  0.1697  0.2935  0.0217
   70SAPC  H14R 6037   2.327   1.343   4.137  0.7613  0.3501  1.5288
   70SAPC  C215 6038   2.206   1.374   4.296 -0.4332 -0.3055 -0.3305
   70SAPC  H15R 6039   2.293   1.334   4.351 -0.9410 -2.4869 -1.0519
   70SAPC  C216 6040   2.084   1.406   4.376 -0.2158  0.0497  0.0699
   70SAPC  H16R 6041   2.012   1.463   4.314  0.6028  0.5430 -0.4481
   70SAPC  H16S 6042   2.114   1.481   4.452 -1.9768  0.6867  0.1830
   70SAPC  C217 6043   2.008   1.294   4.450  0.3795 -0.6182 -0.0041
   70SAPC  H17R 6044   1.925   1.345   4.504  1.1967 -1.3668  2.0998
   70SAPC  H17S 6045   2.081   1.250   4.522 -1.0731 -0.5829  1.5493
   70SAPC  C218 6046   1.966   1.176   4.363  0.1682  0.2775  0.1199
   70SAPC  H18R 6047   2.020   1.085   4.396 -1.5059 -0.8941 -0.2809
   70SAPC  H18S 6048   1.985   1.199   4.256  1.3254 -0.5792  0.1210
   70SAPC  C219 6049   1.808   1.156   4.365 -0.3292 -0.2267  0.3084
   70SAPC  H19R 6050   1.761   1.138   4.464  0.8102 -1.4230  0.6660
   70SAPC  H19S 6051   1.785   1.065   4.306  0.4651  0.0573 -0.4651
   70SAPC  C220 6052   1.728   1.269   4.300 -0.1306 -0.2461 -0.3834
   70SAPC  H20R 6053   1.618   1.255   4.300 -0.4445  1.8773 -0.7442
   70SAPC  H20S 6054   1.753   1.286   4.193  2.2992  1.4727  0.3720
   70SAPC  H20T 6055   1.733   1.369   4.348  0.8357 -0.2953 -0.3522
   70SAPC   C33 6056   2.244   1.655   3.289  0.2540  0.4073  0.3440
   70SAPC   H3X 6057   2.306   1.669   3.197 -0.5709 -0.1376 -0.3099
   70SAPC   H3Y 6058   2.148   1.620   3.246 -0.6167  1.2261  1.5733
   70SAPC   C34 6059   2.310   1.532   3.362 -0.5984 -0.1289  0.2248
   70SAPC   H4X 6060   2.414   1.564   3.384 -0.6684 -0.4538  1.0700
   70SAPC   H4Y 6061   2.311   1.457   3.280 -2.1483  1.5661 -1.4374
   70SAPC   C35 6062   2.240   1.493   3.489 -0.3817  0.5177 -0.1733
   70SAPC   H5X 6063   2.132   1.472   3.471 -1.6273  3.7310  2.4308
   70SAPC   H5Y 6064   2.248   1.580   3.559 -0.4305  0.5235 -0.1748
   70SAPC   C36 6065   2.325   1.373   3.545  0.5044 -0.5275 -0.5681
   70SAPC   H6X 6066   2.429   1.412   3.537 -0.3101  2.2076  1.2045
   70SAPC   H6Y 6067   2.307   1.283   3.481  1.2791 -0.8288 -0.3722
   70SAPC   C37 6068   2.304   1.350   3.689 -0.7775  0.3120 -0.7813
   70SAPC   H7X 6069   2.328   1.449   3.733  3.1702 -0.3203 -1.1119
   70SAPC   H7Y 6070   2.199   1.323   3.710 -1.1177  2.6142  0.8205
   70SAPC   C38 6071   2.409   1.242   3.731  0.5342 -0.6885  0.6073
   70SAPC   H8X 6072   2.510   1.277   3.701 -0.2618  0.7063 -0.5716
   70SAPC   H8Y 6073   2.395   1.144   3.681 -0.2059 -1.1888  1.7396
   70SAPC   C39 6074   2.391   1.203   3.871 -0.0447 -0.2408 -0.2541
   70SAPC   H9X 6075   2.284   1.179   3.889 -1.1590  3.3214 -1.3209
   70SAPC   H9Y 6076   2.417   1.291   3.933 -0.6981 -0.4124  0.2836
   70SAPC  C310 6077   2.483   1.079   3.902  0.0633 -0.5912 -0.3786
   70SAPC  H10X 6078   2.587   1.109   3.876  0.1268 -2.1530 -2.1249
   70SAPC  H10Y 6079   2.468   1.005   3.821  1.4870  0.8798 -2.0594
   70SAPC  C311 6080   2.490   1.028   4.046 -0.3049  0.6778 -0.4685
   70SAPC  H11X 6081   2.520   1.113   4.111 -0.7854 -0.6496  1.5915
   70SAPC  H11Y 6082   2.572   0.954   4.039  0.2201  1.4087 -2.9906
   70SAPC  C312 6083   2.363   0.974   4.098  0.5318 -0.8928 -0.4632
   70SAPC  H12X 6084   2.334   0.892   4.028  0.2392 -0.8814 -0.3567
   70SAPC  H12Y 6085   2.283   1.049   4.081  0.9156 -0.6266 -1.1700
   70SAPC  C313 6086   2.374   0.922   4.243  0.0474 -0.0776  0.1647
   70SAPC  H13X 6087   2.398   1.006   4.311  1.4877 -1.7836  1.8756
   70SAPC  H13Y 6088   2.461   0.853   4.245 -0.0656 -0.2974 -1.1676
   70SAPC  C314 6089   2.247   0.861   4.301  0.0821 -0.5738  0.2717
   70SAPC  H14X 6090   2.205   0.785   4.230 -2.2401 -0.2237  1.1690
   70SAPC  H14Y 6091   2.173   0.938   4.331 -0.5720 -1.2812  0.5149
   70SAPC  C315 6092   2.276   0.786   4.426  0.4804  0.2682 -0.1638
   70SAPC  H15X 6093   2.293   0.850   4.515  0.9186 -0.3511  0.2093
   70SAPC  H15Y 6094   2.366   0.721   4.422  2.0340  2.3048  0.0426
   70SAPC  C316 6095   2.164   0.682   4.457 -0.3549 -0.0671  0.6186
   70SAPC  H16X 6096   2.141   0.635   4.359 -0.6406 -0.3023  0.7974
   70SAPC  H16Y 6097   2.071   0.737   4.479 -0.5182  0.1752 -0.6276
   70SAPC  C317 6098   2.192   0.572   4.553 -0.0104  0.3308 -0.1300
   70SAPC  H17X 6099   2.096   0.518   4.564  0.8489 -0.6705  4.1536
   70SAPC  H17Y 6100   2.212   0.603   4.657 -0.0163  1.2343 -0.3892
   70SAPC  C318 6101   2.302   0.468   4.509 -0.1488 -0.3260 -0.7453
   70SAPC  H18X 6102   2.368   0.448   4.595 -1.3786  1.1829  0.6072
   70SAPC  H18Y 6103   2.364   0.505   4.425 -1.3664  0.9436 -1.1211
   70SAPC  H18Z 6104   2.255   0.371   4.481 -0.1707 -0.5506  0.0463
   71SAPC     N 6105   0.414   5.598   2.202 -0.4827  0.7652 -0.4934
   71SAPC   C12 6106   0.558   5.617   2.253  0.7682 -0.4816 -0.4141
   71SAPC  H12A 6107   0.590   5.716   2.227 -1.0376  0.3429  0.3432
   71SAPC  H12B 6108   0.624   5.556   2.193  2.5677  0.7830  0.1871
   71SAPC   C13 6109   0.369   5.463   2.243  0.4716 -0.3195  0.7164
   71SAPC  H13A 6110   0.278   5.443   2.189  1.2851 -1.3384 -0.3127
   71SAPC  H13B 6111   0.448   5.394   2.218  1.1763  0.6334  0.2342
   71SAPC  H13C 6112   0.366   5.467   2.351  1.0872 -0.3317  0.7373
   71SAPC   C14 6113   0.324   5.708   2.259 -0.1600  0.3063  0.1536
   71SAPC  H14A 6114   0.220   5.679   2.262 -0.8713  2.4851 -1.0817
   71SAPC  H14B 6115   0.347   5.724   2.364  0.1785 -1.5594  0.3945
   71SAPC  H14C 6116   0.329   5.792   2.191 -0.5295 -0.2742 -0.5995
   71SAPC   C15 6117   0.411   5.604   2.049  0.4083 -0.3216 -0.9568
   71SAPC  H15A 6118   0.468   5.527   1.999  0.1929  0.1761 -2.0045
   71SAPC  H15B 6119   0.309   5.593   2.017 -0.2842  1.2697  0.5160
   71SAPC  H15C 6120   0.450   5.703   2.031 -0.3241  0.3285  0.8176
   71SAPC   C11 6121   0.593   5.587   2.398  0.6021  0.6582  0.7933
   71SAPC  H11A 6122   0.700   5.611   2.410  1.2297  0.0155 -2.4133
   71SAPC  H11B 6123   0.582   5.479   2.422 -1.9112  0.4547 -0.8343
   71SAPC     P 6124   0.412   5.615   2.592 -0.0022  0.1483  0.1750
   71SAPC   O13 6125   0.285   5.697   2.600  0.5189 -0.1977  0.3388
   71SAPC   O14 6126   0.402   5.469   2.586  0.4211  0.1900  0.5676
   71SAPC   O12 6127   0.512   5.675   2.484 -0.1275 -0.2776 -0.0426
   71SAPC   O11 6128   0.495   5.638   2.723  0.1218  0.7160 -0.5905
   71SAPC    C1 6129   0.607   5.727   2.740  0.9892  0.2265 -0.4016
   71SAPC    HA 6130   0.611   5.803   2.659  1.3903  0.2315 -0.3765
   71SAPC    HB 6131   0.591   5.775   2.839 -1.4108 -2.4602  0.6575
   71SAPC    C2 6132   0.742   5.650   2.750  0.1774  0.1890  0.0375
   71SAPC    HS 6133   0.734   5.582   2.662 -2.7346  0.3897  0.0490
   71SAPC   O21 6134   0.748   5.591   2.887  0.2084  0.0257  0.2263
   71SAPC   C21 6135   0.812   5.480   2.900  0.1696  0.2392  0.3219
   71SAPC   O22 6136   0.880   5.422   2.817 -0.7018  0.4520 -0.8323
   71SAPC   C22 6137   0.819   5.437   3.045  0.0071 -0.1209  0.0332
   71SAPC   H2R 6138   0.768   5.338   3.051  0.1213 -0.2901 -1.4196
   71SAPC   H2S 6139   0.927   5.426   3.069  0.1534  0.4377 -0.3439
   71SAPC    C3 6140   0.865   5.746   2.725 -0.4015 -0.1749 -1.0209
   71SAPC    HX 6141   0.871   5.780   2.619 -0.3179 -0.0237 -0.9677
   71SAPC    HY 6142   0.952   5.681   2.746 -0.0724  1.5922  4.5491
   71SAPC   O31 6143   0.870   5.864   2.799  0.4160  0.1934 -0.4477
   71SAPC   C31 6144   0.963   5.875   2.886 -0.0775  0.4791 -0.2022
   71SAPC   O32 6145   1.037   5.782   2.923 -0.6777 -0.1964  0.9192
   71SAPC   C32 6146   0.958   6.015   2.945 -0.5467  0.2058 -0.3281
   71SAPC   H2X 6147   0.860   6.034   2.995  0.9758  1.1265  2.5642
   71SAPC   H2Y 6148   0.945   6.091   2.865 -0.9449  2.0244  1.3605
   71SAPC   C23 6149   0.753   5.535   3.149 -0.6357  0.0710 -0.3289
   71SAPC   H3R 6150   0.741   5.478   3.244 -0.5361 -0.6871 -0.7731
   71SAPC   H3S 6151   0.649   5.556   3.115 -0.1858 -0.8881 -2.4014
   71SAPC   C24 6152   0.844   5.656   3.170 -0.1290  0.3737 -0.7928
   71SAPC   H4R 6153   0.849   5.710   3.073 -2.9998  2.3575  0.0337
   71SAPC   H4S 6154   0.940   5.609   3.200 -1.1687  0.2281  2.6979
   71SAPC   C25 6155   0.791   5.744   3.276  0.2182  0.4481 -0.2875
   71SAPC   H5R 6156   0.689   5.778   3.252 -0.4601 -1.0733  0.3377
   71SAPC   C26 6157   0.849   5.771   3.397  0.3175  0.1752  0.1662
   71SAPC   H6R 6158   0.796   5.841   3.464  1.5136  1.8395 -0.5776
   71SAPC   C27 6159   0.988   5.723   3.443 -0.0547  0.2453  0.4807
   71SAPC   H7R 6160   1.052   5.695   3.356 -0.1570 -1.2447  0.8630
   71SAPC   H7S 6161   0.989   5.625   3.495 -0.2676 -1.2414 -2.1029
   71SAPC   C28 6162   1.048   5.833   3.526 -0.0347 -0.0495 -0.6163
   71SAPC   H8R 6163   1.063   5.920   3.459 -0.2972 -0.3039 -1.0117
   71SAPC   C29 6164   1.091   5.828   3.651  0.0310 -0.3708  0.3874
   71SAPC   H9R 6165   1.133   5.919   3.697  0.7980  0.4767 -1.8925
   71SAPC  C210 6166   1.078   5.721   3.748 -0.3044  0.7758  0.3041
   71SAPC  H10R 6167   1.180   5.700   3.784 -0.8222 -1.7029  0.5383
   71SAPC  H10S 6168   1.035   5.627   3.706  1.5845 -0.6360  1.4095
   71SAPC  C211 6169   0.988   5.755   3.855  0.5309 -0.9553 -0.2972
   71SAPC  H11R 6170   0.889   5.796   3.829  0.7082  0.1630  0.6768
   71SAPC  C212 6171   1.020   5.749   3.989 -0.2275  0.7053  0.9151
   71SAPC  H12R 6172   0.941   5.776   4.061 -0.9284 -0.5726  0.6711
   71SAPC  C213 6173   1.144   5.687   4.052 -0.7949 -0.0942  0.8916
   71SAPC  H13R 6174   1.234   5.684   3.987 -1.6652  2.4393 -0.5530
   71SAPC  H13S 6175   1.116   5.583   4.081 -0.3766 -0.3693  0.3384
   71SAPC  C214 6176   1.181   5.765   4.174  0.3338 -0.4590 -1.5403
   71SAPC  H14R 6177   1.265   5.835   4.167  0.9089 -1.1386 -1.5184
   71SAPC  C215 6178   1.117   5.748   4.295  0.0148  0.8192  0.9029
   71SAPC  H15R 6179   1.156   5.801   4.383  0.7274 -0.9515  1.6963
   71SAPC  C216 6180   1.002   5.652   4.325  0.1716  0.3250 -0.2715
   71SAPC  H16R 6181   0.972   5.599   4.232  2.3435 -0.9307 -0.3392
   71SAPC  H16S 6182   0.917   5.707   4.372 -0.1008  0.2056 -0.6206
   71SAPC  C217 6183   1.046   5.525   4.410 -0.2563 -0.0458  0.2773
   71SAPC  H17R 6184   0.947   5.477   4.428 -0.8414  0.8801 -0.3973
   71SAPC  H17S 6185   1.096   5.557   4.504  0.5860  1.7661 -0.7445
   71SAPC  C218 6186   1.137   5.431   4.325  0.1897 -0.6094 -0.4724
   71SAPC  H18R 6187   1.226   5.491   4.297 -0.8130  0.2092 -2.0029
   71SAPC  H18S 6188   1.097   5.400   4.226  1.1480  0.4753 -1.2231
   71SAPC  C219 6189   1.180   5.303   4.396 -0.7143 -1.3082  0.6427
   71SAPC  H19R 6190   1.248   5.251   4.324  1.9031 -0.0697  2.0963
   71SAPC  H19S 6191   1.093   5.236   4.415 -2.1135 -0.2039 -1.4762
   71SAPC  C220 6192   1.256   5.323   4.525  0.4937  0.6744  0.1377
   71SAPC  H20R 6193   1.311   5.229   4.546 -0.6144 -0.0049  0.0914
   71SAPC  H20S 6194   1.181   5.354   4.601  0.8404 -1.9860  1.7026
   71SAPC  H20T 6195   1.328   5.404   4.500  1.2523  0.0202  0.1830
   71SAPC   C33 6196   1.062   6.053   3.050  0.5047  0.1944  0.9820
   71SAPC   H3X 6197   1.160   6.081   3.004  0.5084 -1.5221 -0.1698
   71SAPC   H3Y 6198   1.075   5.961   3.112  0.0036 -0.3406  0.3083
   71SAPC   C34 6199   1.013   6.153   3.158  0.0824  0.3621 -0.9115
   71SAPC   H4X 6200   0.911   6.120   3.188 -0.7654  0.9560 -2.9683
   71SAPC   H4Y 6201   0.980   6.254   3.124 -2.7638 -0.2914 -0.3799
   71SAPC   C35 6202   1.126   6.172   3.263 -0.3777 -0.2291 -0.5928
   71SAPC   H5X 6203   1.205   6.234   3.216  0.0087  0.3755  0.8166
   71SAPC   H5Y 6204   1.161   6.071   3.291 -1.1683 -0.2911  0.1919
   71SAPC   C36 6205   1.081   6.242   3.391  0.7124 -0.3704 -0.1177
   71SAPC   H6X 6206   0.991   6.190   3.429 -0.4168  2.0474  0.7569
   71SAPC   H6Y 6207   1.046   6.344   3.365 -0.4690 -0.8744 -0.5909
   71SAPC   C37 6208   1.193   6.246   3.493 -0.4796 -0.0059 -0.3758
   71SAPC   H7X 6209   1.281   6.305   3.460  0.9714 -1.7566  0.1961
   71SAPC   H7Y 6210   1.230   6.141   3.500 -0.5257  0.0355  0.5746
   71SAPC   C38 6211   1.156   6.271   3.634 -0.0609  0.0757  0.1828
   71SAPC   H8X 6212   1.066   6.211   3.662 -1.9104  1.9225 -1.4347
   71SAPC   H8Y 6213   1.122   6.377   3.639  0.3944  0.1473  3.6553
   71SAPC   C39 6214   1.263   6.235   3.737 -0.2258  0.1403  0.1586
   71SAPC   H9X 6215   1.350   6.297   3.709 -2.2908  2.3795 -1.7517
   71SAPC   H9Y 6216   1.289   6.130   3.712 -1.4639 -0.0232 -0.5382
   71SAPC  C310 6217   1.226   6.249   3.887 -0.3513 -0.3727 -0.5046
   71SAPC  H10X 6218   1.121   6.226   3.915 -0.8613  0.0193 -2.0094
   71SAPC  H10Y 6219   1.226   6.358   3.909  1.0218 -0.0457 -1.9539
   71SAPC  C311 6220   1.314   6.173   3.986 -0.0943  0.4228 -0.0745
   71SAPC  H11X 6221   1.417   6.162   3.945  0.1614 -1.0677  0.8754
   71SAPC  H11Y 6222   1.275   6.069   3.984 -1.5416  0.9231 -2.4543
   71SAPC  C312 6223   1.322   6.236   4.130 -0.0265 -0.1519  0.0195
   71SAPC  H12X 6224   1.231   6.295   4.156  1.2309  1.5595  0.6886
   71SAPC  H12Y 6225   1.410   6.304   4.128  0.2665 -0.5375 -1.5946
   71SAPC  C313 6226   1.339   6.130   4.236 -0.2546  0.5227 -0.3938
   71SAPC  H13X 6227   1.428   6.069   4.207  0.2902  0.3154  1.5715
   71SAPC  H13Y 6228   1.239   6.081   4.237 -0.1553  0.2141  2.8441
   71SAPC  C314 6229   1.347   6.188   4.372  0.3017 -0.8670  0.4872
   71SAPC  H14X 6230   1.265   6.255   4.405 -0.7655 -2.1502  0.5217
   71SAPC  H14Y 6231   1.442   6.245   4.381  0.4634 -0.8031 -1.2889
   71SAPC  C315 6232   1.361   6.070   4.471  0.1492  0.4019  0.1613
   71SAPC  H15X 6233   1.275   6.005   4.444  1.1751 -0.5439 -0.9318
   71SAPC  H15Y 6234   1.341   6.104   4.575 -1.1489  1.6240 -0.4473
   71SAPC  C316 6235   1.493   5.987   4.463 -0.2414  0.6290 -0.0523
   71SAPC  H16X 6236   1.577   6.056   4.485  0.6107 -0.8140  1.4824
   71SAPC  H16Y 6237   1.514   5.949   4.361  1.0838  0.1469  0.3780
   71SAPC  C317 6238   1.494   5.873   4.559  0.1445  1.0617  0.6497
   71SAPC  H17X 6239   1.451   5.909   4.655 -1.0286  0.0293  0.5422
   71SAPC  H17Y 6240   1.597   5.836   4.576 -1.0509 -2.1119  1.7929
   71SAPC  C318 6241   1.395   5.760   4.518  0.4205 -0.1897 -0.1041
   71SAPC  H18X 6242   1.370   5.769   4.410 -0.2978 -0.8950 -0.0047
   71SAPC  H18Y 6243   1.294   5.778   4.562  0.6156 -1.4028  0.8940
   71SAPC  H18Z 6244   1.429   5.657   4.541 -0.0890 -0.0318  1.4974
   72SAPC     N 6245   6.194   2.683   2.900  0.7162  0.5106 -0.4422
   72SAPC   C12 6246   6.233   2.629   3.037 -0.3563 -0.4396 -0.4365
   72SAPC  H12A 6247   6.340   2.640   3.051 -0.1885  1.7745 -2.6990
   72SAPC  H12B 6248   6.224   2.524   3.014  3.4238 -0.6398 -1.7781
   72SAPC   C13 6249   6.281   2.628   2.801 -0.8199 -0.5578 -0.4928
   72SAPC  H13A 6250   6.385   2.650   2.817 -0.6435 -0.4241 -1.7012
   72SAPC  H13B 6251   6.275   2.521   2.788  1.4094 -0.9742  1.2227
   72SAPC  H13C 6252   6.253   2.669   2.705 -0.6193  0.6663 -0.0421
   72SAPC   C14 6253   6.052   2.642   2.859  0.6468  0.3200 -0.2327
   72SAPC  H14A 6254   5.979   2.675   2.932 -1.5814  1.0837 -2.6773
   72SAPC  H14B 6255   6.036   2.682   2.760  0.9145 -0.0682 -0.4378
   72SAPC  H14C 6256   6.029   2.537   2.861  1.4455  0.1443  0.6099
   72SAPC   C15 6257   6.195   2.829   2.901  0.6875  0.1114 -0.1073
   72SAPC  H15A 6258   6.155   2.869   2.809 -1.1692 -1.3425  0.0215
   72SAPC  H15B 6259   6.132   2.874   2.976 -0.4727 -2.3357  0.4684
   72SAPC  H15C 6260   6.295   2.871   2.904  0.4389  0.8983 -1.7927
   72SAPC   C11 6261   6.151   2.664   3.162 -0.7744  0.0960  0.0298
   72SAPC  H11A 6262   6.128   2.773   3.165 -0.8449  0.0565  1.4432
   72SAPC  H11B 6263   6.208   2.639   3.254 -1.0617 -0.1722  0.1332
   72SAPC     P 6264   6.013   2.438   3.165  0.2509 -0.3765  0.1987
   72SAPC   O13 6265   5.871   2.413   3.126 -0.4914 -0.4462  0.2808
   72SAPC   O14 6266   6.120   2.373   3.088  0.5929  0.4331  0.4736
   72SAPC   O12 6267   6.029   2.595   3.154  0.6860  0.4798 -0.0141
   72SAPC   O11 6268   6.036   2.411   3.317 -0.5684  0.2709  0.0126
   72SAPC    C1 6269   5.920   2.412   3.408 -0.3952 -0.0774 -0.3720
   72SAPC    HA 6270   5.823   2.437   3.359 -1.7802 -1.5295  1.4850
   72SAPC    HB 6271   5.910   2.313   3.458  1.6600 -0.5306 -0.7380
   72SAPC    C2 6272   5.945   2.510   3.523 -0.1463 -0.0049  0.4768
   72SAPC    HS 6273   5.947   2.614   3.484  0.3993  0.0093  0.5478
   72SAPC   O21 6274   6.057   2.470   3.597  0.5347  0.1872  0.2377
   72SAPC   C21 6275   6.162   2.535   3.583 -0.5378  0.2475  0.3243
   72SAPC   O22 6276   6.175   2.631   3.512 -0.0758  0.6009 -0.7247
   72SAPC   C22 6277   6.268   2.458   3.669 -0.0713 -0.4963  0.0283
   72SAPC   H2R 6278   6.237   2.352   3.677 -2.1664  0.0242 -0.7178
   72SAPC   H2S 6279   6.359   2.451   3.606  1.0249 -2.3970  1.7030
   72SAPC    C3 6280   5.827   2.503   3.624 -0.1542  1.1349 -0.2825
   72SAPC    HX 6281   5.836   2.401   3.667  2.5968  2.0011  1.5061
   72SAPC    HY 6282   5.739   2.516   3.557  0.8073 -1.8420 -2.3273
   72SAPC   O31 6283   5.848   2.600   3.732 -0.3750 -0.5837 -0.0039
   72SAPC   C31 6284   5.774   2.717   3.724 -0.0864  0.8273  0.0201
   72SAPC   O32 6285   5.707   2.749   3.630 -0.3054  0.0263 -0.1466
   72SAPC   C32 6286   5.779   2.800   3.849  0.2228  0.0965 -0.0502
   72SAPC   H2X 6287   5.704   2.758   3.919  0.9514 -0.6068  0.3373
   72SAPC   H2Y 6288   5.754   2.904   3.821 -0.0572  0.0922  0.1841
   72SAPC   C23 6289   6.313   2.543   3.796  0.3080 -0.0890 -0.5162
   72SAPC   H3R 6290   6.360   2.639   3.764 -1.7496  1.0558 -0.2952
   72SAPC   H3S 6291   6.391   2.483   3.847 -0.3174 -0.6497 -0.2153
   72SAPC   C24 6292   6.199   2.575   3.901 -0.1985  0.0174  0.8546
   72SAPC   H4R 6293   6.124   2.629   3.839  0.9942  1.5031  0.6359
   72SAPC   H4S 6294   6.226   2.651   3.978  2.4615  0.2901 -0.2395
   72SAPC   C25 6295   6.139   2.457   3.964 -0.8939 -0.4627 -0.1251
   72SAPC   H5R 6296   6.082   2.390   3.897 -0.1249 -2.2733  0.9511
   72SAPC   C26 6297   6.159   2.422   4.094  0.0661 -0.4372 -0.1475
   72SAPC   H6R 6298   6.102   2.333   4.124 -0.7694  0.1757  0.1160
   72SAPC   C27 6299   6.241   2.485   4.204 -0.2554 -0.0520  0.0643
   72SAPC   H7R 6300   6.344   2.507   4.169 -0.1581  0.2024  0.4964
   72SAPC   H7S 6301   6.260   2.412   4.285  2.9465 -0.2685 -0.7439
   72SAPC   C28 6302   6.181   2.617   4.249  0.4521  1.1114 -0.2900
   72SAPC   H8R 6303   6.098   2.649   4.186 -0.1513  2.2362  1.0256
   72SAPC   C29 6304   6.180   2.657   4.378 -0.4897 -0.4412 -0.5284
   72SAPC   H9R 6305   6.118   2.743   4.409  1.4941  1.2097 -0.9009
   72SAPC  C210 6306   6.264   2.594   4.484  0.2609 -0.0781  0.7745
   72SAPC  H10R 6307   6.307   2.676   4.547  1.3771  1.4511 -1.8189
   72SAPC  H10S 6308   6.358   2.548   4.446  1.3671  0.9474  2.1243
   72SAPC  C211 6309   6.192   2.487   4.563 -0.0933 -0.0166 -0.2901
   72SAPC  H11R 6310   6.175   2.397   4.503  1.4275 -0.7978  0.4016
   72SAPC  C212 6311   6.158   2.488   4.693  0.5435  0.4460  0.0201
   72SAPC  H12R 6312   6.111   2.394   4.727 -1.7661 -0.1936 -4.2345
   72SAPC  C213 6313   6.193   2.603   4.789 -0.5750  0.3739  0.4485
   72SAPC  H13R 6314   6.179   2.703   4.742 -0.8291  0.1167 -0.0231
   72SAPC  H13S 6315   6.301   2.589   4.808 -0.7487 -1.1227  0.4241
   72SAPC  C214 6316   6.103   2.595   4.903  0.2370  0.0763 -0.4722
   72SAPC  H14R 6317   5.998   2.619   4.882  0.4388  3.6451  1.7506
   72SAPC  C215 6318   6.143   2.577   5.028 -0.1627  0.0379  0.0442
   72SAPC  H15R 6319   6.073   2.566   5.112  0.9878 -0.9055  0.9138
   72SAPC  C216 6320   6.278   2.540   5.082  0.1821  0.2402  0.6293
   72SAPC  H16R 6321   6.361   2.550   5.009 -2.2930  2.0810 -2.1256
   72SAPC  H16S 6322   6.277   2.440   5.132 -0.8999  0.4784  1.0994
   72SAPC  C217 6323   6.320   2.631   5.202  0.0139  0.1933  0.0998
   72SAPC  H17R 6324   6.257   2.626   5.293  1.7624  1.2636  1.4368
   72SAPC  H17S 6325   6.335   2.738   5.177 -0.2903 -0.1016 -1.4529
   72SAPC  C218 6326   6.456   2.581   5.262 -0.0619 -0.2634  0.1796
   72SAPC  H18R 6327   6.543   2.585   5.192  0.8030  1.4450  1.2928
   72SAPC  H18S 6328   6.441   2.476   5.296 -3.1968  0.7518  2.3655
   72SAPC  C219 6329   6.493   2.654   5.397 -0.2279 -0.4042  0.0312
   72SAPC  H19R 6330   6.399   2.662   5.456  0.4956 -1.7030  1.4325
   72SAPC  H19S 6331   6.528   2.755   5.368  3.3949 -0.5048  3.3540
   72SAPC  C220 6332   6.600   2.591   5.469 -0.0753  0.9103  0.0497
   72SAPC  H20R 6333   6.597   2.481   5.483 -0.3133  0.9403  0.2440
   72SAPC  H20S 6334   6.608   2.641   5.568  1.7037 -0.1066  0.4675
   72SAPC  H20T 6335   6.697   2.608   5.418  0.0920  1.1704  0.4419
   72SAPC   C33 6336   5.911   2.804   3.925 -0.2745  1.0814 -0.2478
   72SAPC   H3X 6337   6.006   2.831   3.875  0.9209  1.8987  2.2915
   72SAPC   H3Y 6338   5.929   2.701   3.963  4.5643  1.6461 -0.3466
   72SAPC   C34 6339   5.910   2.895   4.051  0.2700 -0.5899 -0.1194
   72SAPC   H4X 6340   5.895   2.998   4.014  0.3459 -0.1816  0.9448
   72SAPC   H4Y 6341   6.012   2.902   4.094  0.5411  1.0328 -0.9634
   72SAPC   C35 6342   5.817   2.846   4.160 -0.2069 -0.1895 -0.7365
   72SAPC   H5X 6343   5.839   2.741   4.186 -0.9276  0.2936  2.2675
   72SAPC   H5Y 6344   5.710   2.843   4.131 -0.1823  0.3335 -0.8975
   72SAPC   C36 6345   5.835   2.935   4.280  0.6751 -0.3631  0.2976
   72SAPC   H6X 6346   5.788   3.035   4.266  1.1146  0.0531  1.6324
   72SAPC   H6Y 6347   5.944   2.946   4.300  0.4934 -1.1686  1.9049
   72SAPC   C37 6348   5.765   2.873   4.409  0.0622  0.3183 -0.3657
   72SAPC   H7X 6349   5.792   2.766   4.412 -4.2489 -1.0101 -1.2417
   72SAPC   H7Y 6350   5.655   2.877   4.391 -0.0333 -0.2277  0.0680
   72SAPC   C38 6351   5.796   2.936   4.548  0.8290  0.2963  0.1915
   72SAPC   H8X 6352   5.769   3.044   4.543 -0.6018 -0.0777 -0.8688
   72SAPC   H8Y 6353   5.903   2.916   4.570  0.9462  0.3429 -0.3173
   72SAPC   C39 6354   5.713   2.882   4.665  0.4107 -0.3508  0.4553
   72SAPC   H9X 6355   5.717   2.772   4.683 -0.9128 -0.3862  0.5698
   72SAPC   H9Y 6356   5.608   2.901   4.636  0.1435  0.2561  1.7510
   72SAPC  C310 6357   5.736   2.970   4.790  0.4216  0.3248  0.3117
   72SAPC  H10X 6358   5.653   2.966   4.863  1.6424 -1.5137  1.6998
   72SAPC  H10Y 6359   5.748   3.071   4.745  2.7876 -1.6498 -4.1245
   72SAPC  C311 6360   5.858   2.933   4.874 -0.9536 -0.9367 -0.2452
   72SAPC  H11X 6361   5.942   3.000   4.844 -0.0096 -2.1104 -0.2971
   72SAPC  H11Y 6362   5.889   2.830   4.845  0.2688 -0.6491 -0.0234
   72SAPC  C312 6363   5.835   2.939   5.031 -0.0260 -0.0547 -0.0061
   72SAPC  H12X 6364   5.815   3.045   5.058  1.4560 -0.1212  1.4952
   72SAPC  H12Y 6365   5.924   2.911   5.090 -0.9881  1.9159  2.5674
   72SAPC  C313 6366   5.722   2.853   5.078  0.7876  0.2222 -0.1655
   72SAPC  H13X 6367   5.723   2.762   5.015  2.6262  0.9711 -1.3221
   72SAPC  H13Y 6368   5.632   2.911   5.049  0.2688 -0.9088 -0.8247
   72SAPC  C314 6369   5.733   2.826   5.228  0.5411  0.1821  0.6799
   72SAPC  H14X 6370   5.745   2.926   5.274  1.1804  0.6864 -0.5308
   72SAPC  H14Y 6371   5.823   2.760   5.239  0.8643  0.3787 -0.6360
   72SAPC  C315 6372   5.601   2.750   5.276  0.0904  0.3268  0.3290
   72SAPC  H15X 6373   5.598   2.665   5.205  0.0622  1.9175 -1.6360
   72SAPC  H15Y 6374   5.513   2.813   5.255 -0.1368 -0.2871 -0.6073
   72SAPC  C316 6375   5.624   2.694   5.412  0.4782 -0.1565 -1.1736
   72SAPC  H16X 6376   5.678   2.773   5.467  0.8987  0.3378 -2.2603
   72SAPC  H16Y 6377   5.692   2.606   5.403  0.8008  0.0051 -0.3427
   72SAPC  C317 6378   5.490   2.644   5.471 -0.7108  0.0431 -0.1824
   72SAPC  H17X 6379   5.460   2.567   5.396  1.4179 -0.1977 -0.8563
   72SAPC  H17Y 6380   5.422   2.732   5.469  0.5227  1.0395  0.8620
   72SAPC  C318 6381   5.500   2.587   5.615  1.0033  0.1698  0.4260
   72SAPC  H18X 6382   5.399   2.571   5.657  0.9271  0.4125  0.3390
   72SAPC  H18Y 6383   5.535   2.671   5.679 -1.1184  0.3961  1.3537
   72SAPC  H18Z 6384   5.559   2.494   5.630  0.9895 -0.3202 -2.1142
   73SLPC     N 6385   1.017   1.586   8.224 -0.0397 -0.2984 -0.4803
   73SLPC   C13 6386   0.872   1.592   8.258 -0.7113 -0.3228  0.1300
   73SLPC  H13A 6387   0.804   1.532   8.198  1.0586 -2.1968 -0.1102
   73SLPC  H13B 6388   0.866   1.568   8.363  0.4551  1.3687  0.6058
   73SLPC  H13C 6389   0.832   1.690   8.238 -0.6554 -0.4096 -0.4386
   73SLPC   C14 6390   1.077   1.467   8.285  0.3738 -0.0598  0.2039
   73SLPC  H14A 6391   1.046   1.434   8.384 -1.7614 -1.8272 -0.9407
   73SLPC  H14B 6392   1.040   1.391   8.217 -1.9275  1.7343 -0.6627
   73SLPC  H14C 6393   1.184   1.478   8.290  0.4411 -0.7018  0.3051
   73SLPC   C15 6394   1.081   1.697   8.302  0.3412  0.3738  0.0557
   73SLPC  H15A 6395   1.044   1.787   8.256 -0.5771  0.1290  0.2935
   73SLPC  H15B 6396   1.059   1.691   8.408  0.7884  0.7155  0.1761
   73SLPC  H15C 6397   1.189   1.688   8.296  0.2063 -0.3912 -1.9739
   73SLPC   C12 6398   1.055   1.599   8.077  0.5057 -0.8190 -0.1842
   73SLPC  H12A 6399   1.161   1.615   8.066  0.2505  0.3887 -1.0197
   73SLPC  H12B 6400   1.002   1.680   8.031 -1.9528 -0.9295  2.1878
   73SLPC   C11 6401   1.015   1.490   7.975  0.0585  0.5855  0.1631
   73SLPC  H11A 6402   1.064   1.519   7.879  0.4446 -1.0469 -0.1643
   73SLPC  H11B 6403   0.910   1.494   7.939  0.5515  1.6059 -1.2470
   73SLPC     P 6404   1.187   1.302   7.962 -0.2040 -0.1408  0.0448
   73SLPC   O13 6405   1.310   1.366   8.016  0.4964 -0.1708  0.7844
   73SLPC   O14 6406   1.184   1.153   7.977  0.2811 -0.3441 -0.4574
   73SLPC   O12 6407   1.059   1.363   8.024  0.0710  0.0123  0.5893
   73SLPC   O11 6408   1.172   1.323   7.810  0.1939 -0.2471 -0.2211
   73SLPC    C1 6409   1.271   1.350   7.714 -0.0556  0.4721  0.2074
   73SLPC    HA 6410   1.367   1.336   7.767 -0.8382 -0.6114  1.3835
   73SLPC    HB 6411   1.271   1.285   7.624  0.3481  2.9252 -1.6814
   73SLPC    C2 6412   1.266   1.488   7.650  0.3841  0.8789 -1.1651
   73SLPC    HS 6413   1.256   1.559   7.735 -2.5904 -0.2393 -0.4453
   73SLPC   O21 6414   1.141   1.490   7.576  0.4441 -0.6272 -0.6442
   73SLPC   C21 6415   1.103   1.613   7.546 -0.2025 -0.0167 -0.2813
   73SLPC   O22 6416   1.167   1.715   7.576  0.1510  0.3574  0.5728
   73SLPC   C22 6417   0.974   1.615   7.476 -0.1082 -0.7068  0.4085
   73SLPC   H2R 6418   0.967   1.523   7.414 -1.9196 -0.5271  0.2909
   73SLPC   H2S 6419   0.889   1.586   7.542 -0.1009 -2.7967 -0.4414
   73SLPC    C3 6420   1.391   1.530   7.575 -0.5181  0.2980 -0.1141
   73SLPC    HX 6421   1.463   1.531   7.660 -0.1075  1.1311 -0.4602
   73SLPC    HY 6422   1.380   1.633   7.534 -0.8387  0.2868 -0.0639
   73SLPC   O31 6423   1.435   1.440   7.474 -0.4765 -0.2213 -0.2347
   73SLPC   C31 6424   1.560   1.398   7.478  0.6574  0.7609  0.5186
   73SLPC   O32 6425   1.640   1.413   7.567 -0.0960 -0.0082 -0.2657
   73SLPC   C32 6426   1.586   1.318   7.345  0.4947  0.1483 -0.5175
   73SLPC   H2X 6427   1.506   1.241   7.349  0.1772  0.4957 -0.1405
   73SLPC   H2Y 6428   1.680   1.259   7.352  0.8060  0.6332 -0.5264
   73SLPC   C23 6429   0.964   1.751   7.398 -0.3701 -0.2961  0.3255
   73SLPC   H3R 6430   0.988   1.834   7.468 -0.3982 -0.7684  0.9047
   73SLPC   H3S 6431   0.865   1.778   7.356  0.1128 -0.1016 -0.7280
   73SLPC   C24 6432   1.049   1.751   7.268  1.3065 -0.9519 -0.3533
   73SLPC   H4R 6433   1.044   1.653   7.216  0.5081 -1.5059  0.7243
   73SLPC   H4S 6434   1.154   1.761   7.304  0.7118 -0.4891  1.3879
   73SLPC   C25 6435   0.996   1.861   7.181 -0.3293 -0.4415  0.8202
   73SLPC   H5R 6436   0.967   1.952   7.238 -1.3679 -0.4253  0.2990
   73SLPC   H5S 6437   0.903   1.834   7.125  0.0148 -0.6597  0.3453
   73SLPC   C26 6438   1.092   1.908   7.064  0.0572 -0.0681  0.5179
   73SLPC   H6R 6439   1.136   1.816   7.020 -1.1456  0.1484 -1.2364
   73SLPC   H6S 6440   1.178   1.951   7.118  1.2954 -2.0405  0.2206
   73SLPC   C27 6441   1.029   2.001   6.962  0.3214  0.2525  0.3057
   73SLPC   H7R 6442   0.987   2.091   7.012  0.4445  1.4298 -1.6160
   73SLPC   H7S 6443   0.941   1.947   6.923 -0.8447  1.0814  1.7058
   73SLPC   C28 6444   1.125   2.034   6.842  0.9882  0.5203 -0.2111
   73SLPC   H8R 6445   1.075   2.116   6.786  1.6776  2.1052  1.4037
   73SLPC   H8S 6446   1.115   1.945   6.775 -1.5030  1.3801 -1.1050
   73SLPC   C29 6447   1.270   2.073   6.853  0.2639  0.1950  0.2103
   73SLPC   H9R 6448   1.320   2.046   6.947 -0.8388 -1.4316  0.3667
   73SLPC  C210 6449   1.340   2.130   6.750 -0.5555 -0.1509  0.3055
   73SLPC  H10R 6450   1.441   2.170   6.767 -0.0638 -0.8546 -0.8394
   73SLPC  C211 6451   1.286   2.169   6.613 -0.3470  0.1193  0.0913
   73SLPC  H11R 6452   1.329   2.270   6.599  3.1433 -0.9181  2.2027
   73SLPC  H11S 6453   1.176   2.168   6.593  0.1018  1.3015 -3.0018
   73SLPC  C212 6454   1.340   2.062   6.514  0.5717  0.0352  0.5107
   73SLPC  H12R 6455   1.325   1.958   6.548 -0.4862 -0.4258 -1.2603
   73SLPC  C213 6456   1.390   2.082   6.387  0.1110 -0.1730  0.2692
   73SLPC  H13R 6457   1.435   1.992   6.342 -1.7734 -0.1976 -1.7454
   73SLPC  C214 6458   1.421   2.209   6.319  0.0432  0.1806  0.8912
   73SLPC  H14R 6459   1.532   2.220   6.310  0.0783  0.7372  1.8892
   73SLPC  H14S 6460   1.384   2.294   6.380 -0.8147 -0.4904  1.3222
   73SLPC  C215 6461   1.366   2.235   6.179 -0.0506  0.2258 -0.0223
   73SLPC  H15R 6462   1.255   2.242   6.183 -0.1378 -0.5520 -0.9339
   73SLPC  H15S 6463   1.395   2.151   6.113  2.6529  1.2157 -0.2083
   73SLPC  C216 6464   1.432   2.352   6.113 -0.5492 -0.4951  0.2574
   73SLPC  H16R 6465   1.537   2.325   6.089  0.1636  1.1546  1.3415
   73SLPC  H16S 6466   1.432   2.436   6.185  2.0519 -0.2626  0.0889
   73SLPC  C217 6467   1.350   2.386   5.984 -0.1673  0.2879 -0.1787
   73SLPC  H17R 6468   1.252   2.424   6.022 -0.0060 -0.5701  1.1748
   73SLPC  H17S 6469   1.338   2.291   5.929  1.8883  0.2392 -0.6125
   73SLPC  C218 6470   1.429   2.476   5.887 -0.0319  0.3430 -0.1363
   73SLPC  H18R 6471   1.436   2.577   5.933 -0.7190  0.7601 -0.9078
   73SLPC  H18S 6472   1.383   2.495   5.787 -1.2109 -2.8222 -0.3204
   73SLPC  H18T 6473   1.529   2.430   5.873 -0.5806 -1.5341  1.6366
   73SLPC   C33 6474   1.584   1.393   7.208 -0.5293 -0.2856 -0.1454
   73SLPC   H3X 6475   1.684   1.441   7.204 -0.3363 -0.7170 -0.5186
   73SLPC   H3Y 6476   1.506   1.471   7.218 -0.2926  0.2129 -1.9118
   73SLPC   C34 6477   1.568   1.308   7.078 -0.1478  0.1664  0.6595
   73SLPC   H4X 6478   1.463   1.271   7.079 -0.6512  1.4518 -1.3498
   73SLPC   H4Y 6479   1.635   1.219   7.067 -2.0639 -1.1437 -1.1430
   73SLPC   C35 6480   1.583   1.398   6.961  0.2540 -0.4471 -0.4190
   73SLPC   H5X 6481   1.683   1.444   6.978  0.6162 -1.9257  1.9589
   73SLPC   H5Y 6482   1.507   1.475   6.940  0.3549 -0.8309 -2.3857
   73SLPC   C36 6483   1.586   1.325   6.826  0.1121 -0.2144 -0.1364
   73SLPC   H6X 6484   1.484   1.289   6.800  0.3737 -1.3752  0.3944
   73SLPC   H6Y 6485   1.644   1.230   6.828  0.5119 -0.0189 -1.2816
   73SLPC   C37 6486   1.646   1.410   6.710  0.3644 -0.2479  0.1315
   73SLPC   H7X 6487   1.740   1.456   6.747 -0.1136  0.3859  0.5721
   73SLPC   H7Y 6488   1.573   1.493   6.701 -0.1204 -0.5544  1.1348
   73SLPC   C38 6489   1.678   1.339   6.578  0.8579  0.3283  0.0565
   73SLPC   H8X 6490   1.575   1.330   6.537 -0.0882  0.9173  2.1835
   73SLPC   H8Y 6491   1.732   1.244   6.595 -0.7404 -0.8870 -1.3408
   73SLPC   C39 6492   1.757   1.426   6.481  0.1683 -0.0321  0.0459
   73SLPC   H9X 6493   1.853   1.448   6.533  0.2219  1.9076 -0.7732
   73SLPC   H9Y 6494   1.724   1.532   6.473 -1.4736 -0.4007  1.5734
   73SLPC  C310 6495   1.763   1.374   6.330  0.0809  0.3080 -0.0627
   73SLPC  H10X 6496   1.658   1.390   6.295  1.5364  2.8771 -3.9201
   73SLPC  H10Y 6497   1.791   1.267   6.324 -0.4034  0.2108 -0.7809
   73SLPC  C311 6498   1.847   1.470   6.241 -0.0782  0.0519  0.7388
   73SLPC  H11X 6499   1.947   1.480   6.288 -0.1836  2.9865  0.5300
   73SLPC  H11Y 6500   1.796   1.569   6.245  0.0843  0.4061 -2.8658
   73SLPC  C312 6501   1.852   1.425   6.099 -0.6129 -0.0988  0.3229
   73SLPC  H12X 6502   1.750   1.414   6.057 -0.1656 -0.3706 -0.7209
   73SLPC  H12Y 6503   1.902   1.326   6.094  1.3783  0.7301  2.1853
   73SLPC  C313 6504   1.940   1.527   6.018 -0.0041  0.4733  0.0717
   73SLPC  H13X 6505   2.046   1.496   6.029 -0.1108  0.6050  1.7897
   73SLPC  H13Y 6506   1.907   1.626   6.055 -2.3299 -0.4761  0.7929
   73SLPC  C314 6507   1.909   1.506   5.870  0.2157 -0.0077  0.6332
   73SLPC  H14X 6508   1.798   1.499   5.863  0.2208 -0.3006  0.8038
   73SLPC  H14Y 6509   1.939   1.407   5.830 -1.8121 -0.2648 -0.3743
   73SLPC  C315 6510   1.978   1.622   5.797 -0.6490  0.1627 -0.7369
   73SLPC  H15X 6511   2.087   1.631   5.816 -0.8342  3.0458 -0.5820
   73SLPC  H15Y 6512   1.947   1.706   5.862  3.6005 -1.2526  3.7824
   73SLPC  C316 6513   1.953   1.651   5.651 -0.1048 -0.0943 -0.4708
   73SLPC  H16X 6514   1.977   1.562   5.589  2.8977  0.9440 -0.9957
   73SLPC  H16Y 6515   2.031   1.729   5.634  0.6232 -0.6435  0.2914
   73SLPC  C317 6516   1.811   1.705   5.629  0.5980  0.7724 -0.6229
   73SLPC  H17X 6517   1.796   1.785   5.704  0.0265  0.7746 -0.7319
   73SLPC  H17Y 6518   1.741   1.621   5.647  0.8654  0.0211 -2.7045
   73SLPC  C318 6519   1.783   1.761   5.483 -0.2681 -0.5074 -0.1374
   73SLPC  H18X 6520   1.856   1.844   5.470  0.0022 -0.9899 -1.9572
   73SLPC  H18Y 6521   1.683   1.806   5.464 -0.0568 -0.6941 -1.7766
   73SLPC  H18Z 6522   1.807   1.688   5.403  0.3210 -0.7669  0.2707
   74SLPC     N 6523   5.813   0.937   7.560  0.5403  0.1211  0.5608
   74SLPC   C13 6524   5.837   1.001   7.427  0.1813  0.0136 -0.4895
   74SLPC  H13A 6525   5.835   1.109   7.435 -1.3970  0.1995 -2.5759
   74SLPC  H13B 6526   5.926   0.965   7.378 -1.3632 -2.0150 -1.9444
   74SLPC  H13C 6527   5.755   0.965   7.367  0.1235 -0.7168  0.0177
   74SLPC   C14 6528   5.663   0.941   7.586  0.6358 -0.5078  0.0584
   74SLPC  H14A 6529   5.639   1.046   7.593 -0.6059 -0.6673 -1.3291
   74SLPC  H14B 6530   5.612   0.901   7.499  1.7499 -0.1479 -0.7829
   74SLPC  H14C 6531   5.641   0.900   7.683 -0.7246  2.0951  0.9477
   74SLPC   C15 6532   5.872   1.020   7.665 -0.1418  0.0757  0.3760
   74SLPC  H15A 6533   5.858   1.125   7.642  0.7252  0.1234  0.0187
   74SLPC  H15B 6534   5.826   1.015   7.762  2.1243 -1.8307  1.4575
   74SLPC  H15C 6535   5.979   1.008   7.672  0.0817  1.9063  0.4852
   74SLPC   C12 6536   5.865   0.800   7.567  0.4231  0.6490  0.6125
   74SLPC  H12A 6537   5.785   0.751   7.514  1.0909  1.0709 -0.8280
   74SLPC  H12B 6538   5.859   0.769   7.670  0.7662 -1.5665  0.0114
   74SLPC   C11 6539   5.999   0.761   7.504  0.0556 -0.2798 -0.4668
   74SLPC  H11A 6540   6.009   0.788   7.397  0.6760  0.4883 -0.2287
   74SLPC  H11B 6541   6.018   0.652   7.511  0.0633 -0.1852  1.4056
   74SLPC     P 6542   6.258   0.837   7.547 -0.0305 -0.1359  0.5370
   74SLPC   O13 6543   6.328   0.898   7.657  0.0520 -0.7772 -0.4734
   74SLPC   O14 6544   6.319   0.708   7.494 -0.1502 -0.1455 -0.0149
   74SLPC   O12 6545   6.102   0.822   7.580  0.7057  0.7517  0.0770
   74SLPC   O11 6546   6.268   0.940   7.430  0.3227  0.3123  0.9217
   74SLPC    C1 6547   6.189   1.053   7.405 -0.3165 -0.3667 -0.2891
   74SLPC    HA 6548   6.118   1.027   7.324 -0.2336 -0.9292 -0.1857
   74SLPC    HB 6549   6.135   1.080   7.498  0.4202  1.5837 -0.3649
   74SLPC    C2 6550   6.274   1.175   7.371 -0.1274 -0.7976 -0.3490
   74SLPC    HS 6551   6.203   1.261   7.378 -2.8936 -3.0450  2.0696
   74SLPC   O21 6552   6.335   1.157   7.241  0.2271 -0.2420 -0.3639
   74SLPC   C21 6553   6.245   1.179   7.140 -0.8720  0.6703  0.2832
   74SLPC   O22 6554   6.128   1.204   7.159 -0.0320 -0.0188 -0.4197
   74SLPC   C22 6555   6.309   1.158   7.005 -0.0070 -0.1118  0.7923
   74SLPC   H2R 6556   6.371   1.067   6.996 -1.8883 -1.2477 -2.5369
   74SLPC   H2S 6557   6.230   1.137   6.931  0.1132  2.9667 -0.3801
   74SLPC    C3 6558   6.402   1.200   7.471 -0.1995  0.1960  0.1071
   74SLPC    HX 6559   6.475   1.118   7.453 -2.1831 -1.2473 -1.9071
   74SLPC    HY 6560   6.361   1.190   7.574  0.3343  0.1140  0.3197
   74SLPC   O31 6561   6.463   1.328   7.464 -0.1923 -0.1465  0.3377
   74SLPC   C31 6562   6.549   1.348   7.363  0.2542  0.6444 -0.7948
   74SLPC   O32 6563   6.582   1.265   7.280  0.4901 -0.6092 -0.0906
   74SLPC   C32 6564   6.606   1.491   7.355  0.4086 -0.2405 -0.3917
   74SLPC   H2X 6565   6.697   1.483   7.419  0.9883 -0.2978 -1.1959
   74SLPC   H2Y 6566   6.534   1.560   7.403  2.2722  1.5209  0.0213
   74SLPC   C23 6567   6.385   1.277   6.948  0.3687 -0.4187  0.0008
   74SLPC   H3R 6568   6.486   1.278   6.994  1.9199  0.8428 -3.1400
   74SLPC   H3S 6569   6.338   1.374   6.974 -0.6579 -1.4195  2.0736
   74SLPC   C24 6570   6.418   1.273   6.799 -0.0725 -0.3138 -0.2906
   74SLPC   H4R 6571   6.322   1.299   6.750 -0.4584 -0.4378  0.3858
   74SLPC   H4S 6572   6.453   1.174   6.763 -1.9277 -1.5525  1.0949
   74SLPC   C25 6573   6.517   1.372   6.751  0.0429  0.4566  0.4409
   74SLPC   H5R 6574   6.596   1.384   6.829  0.6358  0.1519 -0.1089
   74SLPC   H5S 6575   6.464   1.469   6.737  1.3585  1.1019 -0.2515
   74SLPC   C26 6576   6.570   1.349   6.609 -0.1456  0.3752  0.1513
   74SLPC   H6R 6577   6.624   1.252   6.609 -0.2815  0.2000  2.9686
   74SLPC   H6S 6578   6.642   1.430   6.587  0.3186  0.0268  0.3772
   74SLPC   C27 6579   6.469   1.351   6.487  0.1059 -0.0545 -0.8535
   74SLPC   H7R 6580   6.399   1.433   6.513 -1.1321 -0.8639 -1.5053
   74SLPC   H7S 6581   6.408   1.259   6.473  0.3629 -0.2331 -0.8003
   74SLPC   C28 6582   6.545   1.370   6.354  0.2703 -0.4355  0.2154
   74SLPC   H8R 6583   6.589   1.272   6.325  0.6208 -1.2552  3.2432
   74SLPC   H8S 6584   6.633   1.437   6.367  0.6074 -0.8824  0.2355
   74SLPC   C29 6585   6.447   1.420   6.249 -0.2212 -0.0160 -0.2436
   74SLPC   H9R 6586   6.359   1.473   6.287 -0.9836  1.7712 -3.9850
   74SLPC  C210 6587   6.455   1.409   6.116 -0.3621 -0.1161 -0.0670
   74SLPC  H10R 6588   6.365   1.436   6.058 -0.4316 -0.5697 -0.1753
   74SLPC  C211 6589   6.565   1.338   6.038  0.6081  0.2729 -0.6154
   74SLPC  H11R 6590   6.631   1.281   6.107  0.6808 -0.5494 -1.3565
   74SLPC  H11S 6591   6.638   1.414   6.003 -1.5046  2.8360  0.1695
   74SLPC  C212 6592   6.510   1.245   5.925 -0.0104  0.0609 -0.8944
   74SLPC  H12R 6593   6.499   1.142   5.960 -2.6609  0.5759 -0.0083
   74SLPC  C213 6594   6.460   1.278   5.804  0.3176 -0.0134 -0.2611
   74SLPC  H13R 6595   6.438   1.202   5.728 -0.0897 -0.2241  0.0654
   74SLPC  C214 6596   6.443   1.421   5.741  0.9005  0.2455  0.4581
   74SLPC  H14R 6597   6.517   1.442   5.662 -0.4038 -0.2435 -0.9507
   74SLPC  H14S 6598   6.465   1.498   5.818 -2.1912  0.3128  1.4317
   74SLPC  C215 6599   6.299   1.452   5.709 -0.2519  0.4492  0.1255
   74SLPC  H15R 6600   6.256   1.382   5.635 -0.5358 -0.5878  1.2473
   74SLPC  H15S 6601   6.298   1.539   5.641 -1.7035  0.6175  0.3217
   74SLPC  C216 6602   6.215   1.465   5.830  0.4477 -0.0487  0.0381
   74SLPC  H16R 6603   6.255   1.558   5.876 -0.2985  1.1491 -1.6882
   74SLPC  H16S 6604   6.226   1.371   5.890 -1.2347 -0.3698 -0.1120
   74SLPC  C217 6605   6.060   1.487   5.804 -0.6574  0.1165  0.4797
   74SLPC  H17R 6606   6.011   1.399   5.758  2.2128 -0.1428 -2.5174
   74SLPC  H17S 6607   6.063   1.576   5.736 -0.5565 -0.2626 -0.0186
   74SLPC  C218 6608   5.989   1.514   5.938 -0.2914 -0.3166  0.1133
   74SLPC  H18R 6609   6.044   1.587   6.001  0.4447 -0.4245 -0.3937
   74SLPC  H18S 6610   5.988   1.424   6.003 -0.0131  1.2816  2.4745
   74SLPC  H18T 6611   5.884   1.549   5.929 -0.6452 -1.0073  1.2439
   74SLPC   C33 6612   6.642   1.521   7.213  0.1887 -0.3776  0.2010
   74SLPC   H3X 6613   6.554   1.512   7.146  1.1659 -0.0670 -1.1649
   74SLPC   H3Y 6614   6.718   1.458   7.161  0.0779 -0.8974  0.6644
   74SLPC   C34 6615   6.695   1.672   7.209  0.2359  0.2008 -1.1431
   74SLPC   H4X 6616   6.780   1.675   7.279 -1.3312 -3.6963  1.2528
   74SLPC   H4Y 6617   6.623   1.737   7.262 -0.5491 -1.7046  0.2663
   74SLPC   C35 6618   6.722   1.744   7.076 -0.9812 -0.4850 -0.3843
   74SLPC   H5X 6619   6.802   1.688   7.023 -0.3409  0.1936 -0.1495
   74SLPC   H5Y 6620   6.767   1.844   7.096 -0.9153 -0.6639  0.3955
   74SLPC   C36 6621   6.607   1.773   6.985  0.4794  0.1871  0.7993
   74SLPC   H6X 6622   6.538   1.834   7.046  0.3721  1.7569 -0.8208
   74SLPC   H6Y 6623   6.560   1.676   6.958  2.2232 -0.4129 -0.3210
   74SLPC   C37 6624   6.646   1.853   6.854 -0.2027  0.0829  0.0556
   74SLPC   H7X 6625   6.755   1.864   6.834  0.1163 -0.4959  1.3400
   74SLPC   H7Y 6626   6.603   1.955   6.851 -1.0230 -0.2535  0.1160
   74SLPC   C38 6627   6.593   1.774   6.730  0.2780  0.0541 -0.1750
   74SLPC   H8X 6628   6.482   1.784   6.727  0.2809  1.7308  2.7692
   74SLPC   H8Y 6629   6.628   1.669   6.724 -0.4316 -0.2193  0.3368
   74SLPC   C39 6630   6.640   1.838   6.598 -0.8515  0.4406 -0.8717
   74SLPC   H9X 6631   6.749   1.853   6.616 -0.7871 -1.7536  0.9973
   74SLPC   H9Y 6632   6.581   1.932   6.602 -0.8671  0.3807  1.8726
   74SLPC  C310 6633   6.617   1.759   6.462  0.7255  0.8822  0.0738
   74SLPC  H10X 6634   6.510   1.761   6.430 -0.0104  0.6318  2.3648
   74SLPC  H10Y 6635   6.653   1.654   6.467 -0.7466  0.3541  0.1648
   74SLPC  C311 6636   6.694   1.819   6.340 -0.4611  0.6098 -0.0285
   74SLPC  H11X 6637   6.802   1.792   6.348  0.0040  1.1449 -3.0889
   74SLPC  H11Y 6638   6.686   1.930   6.335 -1.3652  0.5847  0.7143
   74SLPC  C312 6639   6.651   1.755   6.204  0.0368 -0.2376  0.4194
   74SLPC  H12X 6640   6.554   1.798   6.170 -0.0840 -0.1869  0.8202
   74SLPC  H12Y 6641   6.628   1.647   6.216 -2.7545  0.2136 -0.0555
   74SLPC  C313 6642   6.754   1.792   6.094  0.3757 -0.2238 -0.7957
   74SLPC  H13X 6643   6.853   1.742   6.106  0.6918  0.5859  0.1382
   74SLPC  H13Y 6644   6.776   1.901   6.103  0.2049 -0.2064 -0.5817
   74SLPC  C314 6645   6.705   1.764   5.950 -0.6797 -0.0909  0.0886
   74SLPC  H14X 6646   6.611   1.823   5.941 -0.8467 -0.4344 -0.4583
   74SLPC  H14Y 6647   6.670   1.659   5.951 -2.9586  0.5522 -1.8985
   74SLPC  C315 6648   6.800   1.789   5.828 -0.7082 -0.3086 -0.1249
   74SLPC  H15X 6649   6.877   1.709   5.840  1.1980  1.5473  0.5960
   74SLPC  H15Y 6650   6.850   1.888   5.836  2.8407 -2.0819  3.0672
   74SLPC  C316 6651   6.734   1.762   5.697 -0.0672  0.5709  0.4749
   74SLPC  H16X 6652   6.640   1.821   5.684 -0.1459  0.1039 -1.3549
   74SLPC  H16Y 6653   6.705   1.655   5.684  2.4511  0.0522 -1.6599
   74SLPC  C317 6654   6.834   1.804   5.588  0.0109 -0.1259 -0.4454
   74SLPC  H17X 6655   6.929   1.748   5.599  0.8281  1.3903  0.6908
   74SLPC  H17Y 6656   6.854   1.913   5.597  1.8462 -0.5072  0.6494
   74SLPC  C318 6657   6.783   1.790   5.453  0.2610  0.0219  0.3483
   74SLPC  H18X 6658   6.689   1.846   5.436  0.8135  1.5059  1.9557
   74SLPC  H18Y 6659   6.743   1.690   5.425 -0.3682  0.4897 -0.4824
   74SLPC  H18Z 6660   6.861   1.825   5.381  0.0653 -1.1546 -0.4722
   75SLPC     N 6661   0.917   0.275   7.206 -0.3348  0.2693 -0.9475
   75SLPC   C13 6662   0.893   0.141   7.261 -0.3090 -0.4486  0.6292
   75SLPC  H13A 6663   0.835   0.148   7.352 -2.3905  1.7594 -0.7452
   75SLPC  H13B 6664   0.829   0.086   7.194 -1.3079 -1.3365  2.2445
   75SLPC  H13C 6665   0.981   0.080   7.274  0.4209  0.5060  0.2619
   75SLPC   C14 6666   0.998   0.353   7.304  0.1964  0.6230 -0.4195
   75SLPC  H14A 6667   1.013   0.455   7.272  1.8803  0.8250  0.8725
   75SLPC  H14B 6668   0.952   0.357   7.402 -2.0826 -1.0602 -1.3402
   75SLPC  H14C 6669   1.092   0.303   7.321  0.3362  0.1998 -2.2857
   75SLPC   C15 6670   0.788   0.347   7.182  0.5022 -0.2671 -0.7696
   75SLPC  H15A 6671   0.713   0.283   7.138 -2.5301 -1.0303  4.6754
   75SLPC  H15B 6672   0.740   0.374   7.274 -0.1109  0.5844 -1.3240
   75SLPC  H15C 6673   0.809   0.436   7.125  1.3906 -0.3776 -0.6253
   75SLPC   C12 6674   0.994   0.262   7.074  0.3949  0.2440  0.1107
   75SLPC  H12A 6675   0.945   0.194   7.005  1.1992  0.4198 -0.6518
   75SLPC  H12B 6676   1.090   0.214   7.085 -0.3227 -1.1439  0.6350
   75SLPC   C11 6677   1.026   0.394   7.000 -0.3427  0.9979  0.3470
   75SLPC  H11A 6678   1.086   0.369   6.910  0.0934 -1.0725  1.1575
   75SLPC  H11B 6679   1.095   0.442   7.073  1.3987  0.9775 -1.2248
   75SLPC     P 6680   0.909   0.636   6.975  0.2528 -0.3392 -0.4138
   75SLPC   O13 6681   0.779   0.678   6.927  0.1569  0.0536  0.1034
   75SLPC   O14 6682   0.951   0.679   7.111 -0.2374 -0.1700  0.2161
   75SLPC   O12 6683   0.911   0.478   6.972  0.2339  0.1079 -0.1325
   75SLPC   O11 6684   1.021   0.680   6.871 -0.1619  0.3382 -0.0753
   75SLPC    C1 6685   1.014   0.634   6.731  1.0093  0.5936  0.5371
   75SLPC    HA 6686   1.099   0.567   6.704 -1.4823 -1.4454 -3.1348
   75SLPC    HB 6687   0.933   0.560   6.715  0.8305  0.8363  0.3170
   75SLPC    C2 6688   1.011   0.752   6.632 -0.1693 -0.8149 -0.5427
   75SLPC    HS 6689   1.019   0.721   6.526 -0.3029  0.9265 -1.0879
   75SLPC   O21 6690   1.120   0.844   6.666  0.0149  0.1189 -0.0899
   75SLPC   C21 6691   1.235   0.832   6.593  0.7283  0.2138  0.1853
   75SLPC   O22 6692   1.253   0.747   6.514 -0.1362  0.4742  0.4986
   75SLPC   C22 6693   1.334   0.943   6.627 -0.4696 -0.1029 -0.1656
   75SLPC   H2R 6694   1.276   1.036   6.612 -2.0979 -1.1745 -0.8840
   75SLPC   H2S 6695   1.362   0.936   6.734 -2.8337  1.6906  0.6607
   75SLPC    C3 6696   0.882   0.835   6.647  0.1011 -0.5342  0.3117
   75SLPC    HX 6697   0.874   0.870   6.752 -1.2246 -2.5599  0.9348
   75SLPC    HY 6698   0.792   0.771   6.633  0.2717 -1.1428  1.8029
   75SLPC   O31 6699   0.872   0.936   6.548 -0.5310  0.1972 -0.4922
   75SLPC   C31 6700   0.907   1.057   6.587  0.0388 -0.0922 -0.2299
   75SLPC   O32 6701   0.948   1.093   6.696  0.2766 -0.4125  0.2112
   75SLPC   C32 6702   0.901   1.142   6.462 -0.0184 -1.1076 -0.2332
   75SLPC   H2X 6703   0.812   1.208   6.471  0.2237 -1.0345  2.1501
   75SLPC   H2Y 6704   0.888   1.078   6.372  2.4270  0.6049 -1.9239
   75SLPC   C23 6705   1.446   0.937   6.525 -0.6499  0.1831 -0.3717
   75SLPC   H3R 6706   1.501   0.843   6.503  0.5371  0.2556  1.9592
   75SLPC   H3S 6707   1.529   0.996   6.571 -0.2000 -0.7282  0.0272
   75SLPC   C24 6708   1.408   1.009   6.398 -0.5916  0.3891 -0.5867
   75SLPC   H4R 6709   1.348   1.101   6.412 -0.1169  1.1763 -3.2673
   75SLPC   H4S 6710   1.343   0.936   6.345  0.7901 -1.8911  0.6732
   75SLPC   C25 6711   1.527   1.033   6.299  0.1188  1.1434 -0.2526
   75SLPC   H5R 6712   1.567   0.932   6.275  1.7874  1.7681 -0.2856
   75SLPC   H5S 6713   1.610   1.080   6.357 -1.3323  1.2690  1.8417
   75SLPC   C26 6714   1.489   1.118   6.177  0.3833  0.1658  0.3657
   75SLPC   H6R 6715   1.468   1.222   6.209 -0.0066  0.2759 -0.2356
   75SLPC   H6S 6716   1.401   1.072   6.127  0.9472  2.4350 -2.9671
   75SLPC   C27 6717   1.594   1.138   6.065  0.1586 -0.0331  0.5838
   75SLPC   H7R 6718   1.605   1.042   6.011  1.1567  0.2227  0.3140
   75SLPC   H7S 6719   1.695   1.157   6.106  1.5768  0.0408 -2.6617
   75SLPC   C28 6720   1.546   1.233   5.955 -0.2066 -0.9161  0.4427
   75SLPC   H8R 6721   1.550   1.331   6.007  1.6420 -0.8066  0.1870
   75SLPC   H8S 6722   1.447   1.209   5.911 -0.5494  1.4275 -0.1977
   75SLPC   C29 6723   1.644   1.241   5.836 -0.1021 -0.0002 -0.2597
   75SLPC   H9R 6724   1.749   1.238   5.868  0.5503  0.8656 -2.1445
   75SLPC  C210 6725   1.615   1.269   5.710 -0.3162 -0.3013  0.3075
   75SLPC  H10R 6726   1.695   1.279   5.634  0.2316  0.3318  0.9533
   75SLPC  C211 6727   1.488   1.314   5.655  0.3296 -0.0526 -0.4006
   75SLPC  H11R 6728   1.419   1.334   5.740 -0.9721 -0.6211 -1.2992
   75SLPC  H11S 6729   1.428   1.230   5.615  1.8190  0.3764 -3.8407
   75SLPC  C212 6730   1.484   1.417   5.548  0.6077 -0.1902  0.8643
   75SLPC  H12R 6731   1.437   1.507   5.591  2.2179  1.0914  0.0694
   75SLPC  C213 6732   1.513   1.398   5.414 -0.0827  0.0953  1.0763
   75SLPC  H13R 6733   1.481   1.483   5.352  1.0707  0.2255  0.6369
   75SLPC  C214 6734   1.560   1.272   5.337 -1.2196  0.4781  0.0096
   75SLPC  H14R 6735   1.471   1.231   5.286 -2.8736  0.4923  2.6814
   75SLPC  H14S 6736   1.600   1.193   5.404 -1.0174  0.4777 -0.1114
   75SLPC  C215 6737   1.673   1.309   5.238 -0.3401  0.2827 -0.0811
   75SLPC  H15R 6738   1.628   1.376   5.162 -0.7226  1.0227  0.7838
   75SLPC  H15S 6739   1.705   1.219   5.182 -0.4775  0.5323 -0.5636
   75SLPC  C216 6740   1.791   1.378   5.307 -0.6038  0.0636  0.2751
   75SLPC  H16R 6741   1.840   1.314   5.384  0.8377 -2.7905 -2.7770
   75SLPC  H16S 6742   1.767   1.472   5.361  1.6893  0.3325  0.9225
   75SLPC  C217 6743   1.901   1.409   5.200  0.4347 -0.0145 -0.1790
   75SLPC  H17R 6744   1.855   1.483   5.131 -0.5995  1.1492  1.6685
   75SLPC  H17S 6745   1.921   1.317   5.141 -2.6193 -1.1978  0.4258
   75SLPC  C218 6746   2.029   1.476   5.247  0.0618 -0.8154 -0.2747
   75SLPC  H18R 6747   2.087   1.521   5.164 -1.5753  1.4905 -0.2897
   75SLPC  H18S 6748   2.097   1.401   5.291 -0.7891 -0.4213  1.8263
   75SLPC  H18T 6749   2.012   1.556   5.322  1.0480 -0.3154 -0.5683
   75SLPC   C33 6750   1.027   1.223   6.436  1.0201 -0.0497  0.1127
   75SLPC   H3X 6751   1.120   1.166   6.456 -0.7006 -2.2128  2.5543
   75SLPC   H3Y 6752   1.025   1.303   6.513 -1.2705 -2.0892  2.3876
   75SLPC   C34 6753   1.022   1.292   6.298 -0.1952 -0.0457  0.9293
   75SLPC   H4X 6754   1.102   1.368   6.303 -0.0894 -0.1267  0.5100
   75SLPC   H4Y 6755   0.919   1.335   6.295  0.1660  0.8032  0.2892
   75SLPC   C35 6756   1.048   1.212   6.168  0.2948  0.6036 -0.7325
   75SLPC   H5X 6757   0.977   1.126   6.173  3.9883 -2.7947  4.4356
   75SLPC   H5Y 6758   1.148   1.168   6.186  0.0499  0.2338 -0.2574
   75SLPC   C36 6759   1.057   1.303   6.042 -0.1438  0.0854 -0.0060
   75SLPC   H6X 6760   1.126   1.387   6.062 -0.3896  0.8428 -2.1474
   75SLPC   H6Y 6761   0.960   1.352   6.019 -0.2629  0.3141  0.9391
   75SLPC   C37 6762   1.108   1.217   5.914  0.0957  0.2403  0.1928
   75SLPC   H7X 6763   1.039   1.130   5.908  2.0396 -1.2960 -0.9237
   75SLPC   H7Y 6764   1.212   1.183   5.933  0.7246  1.6189 -0.6556
   75SLPC   C38 6765   1.096   1.294   5.780  0.5019  0.3535 -0.2787
   75SLPC   H8X 6766   1.168   1.378   5.777 -0.5134  1.2214 -0.7058
   75SLPC   H8Y 6767   0.995   1.339   5.776  1.1207  1.7484 -0.7787
   75SLPC   C39 6768   1.122   1.228   5.644 -0.1226  0.0141  0.1944
   75SLPC   H9X 6769   1.062   1.142   5.605 -0.6339  1.0678 -1.4642
   75SLPC   H9Y 6770   1.229   1.200   5.646  1.0397  3.8248 -0.6311
   75SLPC  C310 6771   1.113   1.328   5.525  0.3669  0.6533 -0.0871
   75SLPC  H10X 6772   1.167   1.294   5.434 -1.8623  1.5440 -1.8301
   75SLPC  H10Y 6773   1.167   1.419   5.560  2.8403 -1.2537  1.4071
   75SLPC  C311 6774   0.962   1.360   5.494 -0.0015 -0.2508  0.4803
   75SLPC  H11X 6775   0.931   1.423   5.581  0.9868 -1.2867  1.6203
   75SLPC  H11Y 6776   0.903   1.266   5.486 -0.6784  0.2537 -0.7617
   75SLPC  C312 6777   0.946   1.429   5.356  0.4584  0.2554  0.1867
   75SLPC  H12X 6778   0.974   1.354   5.279 -0.6539 -0.5858  0.5764
   75SLPC  H12Y 6779   1.018   1.511   5.335 -0.1510  0.9466  0.7639
   75SLPC  C313 6780   0.806   1.492   5.335  0.1794  0.5644 -0.2161
   75SLPC  H13X 6781   0.740   1.403   5.347  2.8304 -1.6274 -0.9873
   75SLPC  H13Y 6782   0.812   1.529   5.230 -0.6633  0.5957 -0.2628
   75SLPC  C314 6783   0.779   1.616   5.423 -0.1832 -0.9029  0.5918
   75SLPC  H14X 6784   0.785   1.584   5.529 -1.7051 -0.7455  0.7469
   75SLPC  H14Y 6785   0.673   1.646   5.406  0.5263  0.5795 -1.6208
   75SLPC  C315 6786   0.874   1.734   5.405 -0.6099 -0.1389  0.1823
   75SLPC  H15X 6787   0.851   1.787   5.310 -0.4796 -0.9557 -0.3145
   75SLPC  H15Y 6788   0.982   1.706   5.408 -0.4401  0.5797  1.4271
   75SLPC  C316 6789   0.864   1.845   5.517  0.6639  0.3131  0.4044
   75SLPC  H16X 6790   0.857   1.792   5.615 -0.9187  0.0923  0.1942
   75SLPC  H16Y 6791   0.773   1.901   5.487  0.4943 -0.5322 -0.7062
   75SLPC  C317 6792   0.997   1.927   5.527 -0.6915  0.5095 -0.3118
   75SLPC  H17X 6793   1.021   1.954   5.422 -0.8701  2.8511  0.2042
   75SLPC  H17Y 6794   1.070   1.855   5.570 -0.3883  0.7400 -0.4354
   75SLPC  C318 6795   0.980   2.057   5.614 -0.5181  0.0473  0.7634
   75SLPC  H18X 6796   0.923   2.139   5.566  0.1806  0.7674  1.1335
   75SLPC  H18Y 6797   1.067   2.102   5.666 -1.0362  3.1202 -0.7868
   75SLPC  H18Z 6798   0.912   2.032   5.698 -0.0953 -2.7214  0.3735
   76SLPC     N 6799   2.855   0.057   7.760 -0.0241 -0.8355 -0.1572
   76SLPC   C13 6800   2.911  -0.079   7.773 -0.2400  0.3229 -0.0601
   76SLPC  H13A 6801   2.908  -0.131   7.679 -1.1946  1.8184 -0.8992
   76SLPC  H13B 6802   3.016  -0.066   7.796 -0.2449  1.8810 -0.8142
   76SLPC  H13C 6803   2.852  -0.137   7.843 -1.0372  2.1172  0.8213
   76SLPC   C14 6804   2.855   0.127   7.893 -0.1858  0.2647 -0.0354
   76SLPC  H14A 6805   2.785   0.078   7.959 -0.2783 -2.4222 -1.9620
   76SLPC  H14B 6806   2.950   0.114   7.944  0.0897 -0.1406 -0.6436
   76SLPC  H14C 6807   2.835   0.233   7.895 -2.5446 -0.1366  0.7808
   76SLPC   C15 6808   2.714   0.041   7.715  0.4314 -0.0998 -0.0838
   76SLPC  H15A 6809   2.705  -0.032   7.636  0.9545 -0.3798  0.1156
   76SLPC  H15B 6810   2.649   0.008   7.794  0.8701  0.2683  0.4379
   76SLPC  H15C 6811   2.671   0.133   7.676 -0.0713 -0.6734 -0.9110
   76SLPC   C12 6812   2.927   0.144   7.659 -0.0841 -0.2471 -0.6061
   76SLPC  H12A 6813   2.884   0.243   7.652 -1.0386 -0.6313 -0.2923
   76SLPC  H12B 6814   2.912   0.105   7.560 -2.1493  0.1147 -0.4725
   76SLPC   C11 6815   3.083   0.162   7.681  0.6709  0.0769 -0.7892
   76SLPC  H11A 6816   3.131   0.222   7.601  3.8085 -0.1354  0.7875
   76SLPC  H11B 6817   3.128   0.061   7.682  1.3429  0.3694  0.8290
   76SLPC     P 6818   3.139   0.373   7.833  0.0122  0.1679 -0.1300
   76SLPC   O13 6819   3.008   0.439   7.843  0.0339  0.3065 -0.1365
   76SLPC   O14 6820   3.229   0.377   7.954  0.6013  0.1570 -0.8728
   76SLPC   O12 6821   3.100   0.224   7.809 -0.1878  0.0370 -0.5960
   76SLPC   O11 6822   3.220   0.409   7.703  0.7599 -0.2250 -0.0190
   76SLPC    C1 6823   3.345   0.350   7.676  0.0074  0.1307 -0.0039
   76SLPC    HA 6824   3.381   0.278   7.753 -0.3592 -1.0326 -0.8843
   76SLPC    HB 6825   3.338   0.293   7.581 -0.3200  0.2531 -0.0555
   76SLPC    C2 6826   3.446   0.470   7.668 -0.3303  0.6481  0.7411
   76SLPC    HS 6827   3.437   0.509   7.771 -2.4958 -1.0571  1.2743
   76SLPC   O21 6828   3.408   0.563   7.560 -0.2497  0.5428  0.2371
   76SLPC   C21 6829   3.416   0.689   7.593 -0.7598 -0.4326  0.6460
   76SLPC   O22 6830   3.453   0.728   7.702 -0.0355 -0.4944  0.6904
   76SLPC   C22 6831   3.372   0.774   7.475  0.0182 -0.8341  0.3621
   76SLPC   H2R 6832   3.284   0.729   7.423 -0.5747  1.7520 -1.0630
   76SLPC   H2S 6833   3.345   0.873   7.518 -0.9116 -0.8936 -0.0473
   76SLPC    C3 6834   3.590   0.422   7.639  0.7520 -0.1605 -0.0797
   76SLPC    HX 6835   3.608   0.339   7.712 -0.4975 -0.9018 -0.5927
   76SLPC    HY 6836   3.656   0.509   7.659 -1.6962  1.5723  0.8039
   76SLPC   O31 6837   3.594   0.364   7.501  0.1975  0.1256 -0.2978
   76SLPC   C31 6838   3.721   0.339   7.464 -0.2552  0.3038  0.9487
   76SLPC   O32 6839   3.818   0.384   7.523  0.2461 -0.5512 -0.3367
   76SLPC   C32 6840   3.710   0.251   7.332 -0.1418  0.1955 -0.2150
   76SLPC   H2X 6841   3.603   0.235   7.306  0.3192  0.3777 -2.3392
   76SLPC   H2Y 6842   3.750   0.154   7.369  0.8107  1.8892  3.8480
   76SLPC   C23 6843   3.479   0.797   7.369 -0.3207 -0.3647 -0.0926
   76SLPC   H3R 6844   3.495   0.716   7.294  3.1824 -0.4789  0.6235
   76SLPC   H3S 6845   3.579   0.801   7.417 -1.4899 -0.1311  2.5393
   76SLPC   C24 6846   3.447   0.926   7.290  0.1555  0.2465  0.3950
   76SLPC   H4R 6847   3.440   1.019   7.350  1.4824 -1.0320  2.6684
   76SLPC   H4S 6848   3.344   0.920   7.250  0.6831  0.7222 -1.0992
   76SLPC   C25 6849   3.550   0.959   7.177  1.0354  0.1356  0.1250
   76SLPC   H5R 6850   3.647   0.991   7.221  0.3366  1.1764  0.9332
   76SLPC   H5S 6851   3.507   1.046   7.123 -2.9555 -0.1537  2.4815
   76SLPC   C26 6852   3.570   0.839   7.075 -0.0016  0.6353 -0.0478
   76SLPC   H6R 6853   3.478   0.778   7.089  0.6352 -0.8758 -2.0661
   76SLPC   H6S 6854   3.653   0.787   7.126 -0.7363  0.4726  1.0118
   76SLPC   C27 6855   3.604   0.887   6.933 -0.7724 -0.0779  0.5996
   76SLPC   H7R 6856   3.512   0.940   6.904 -0.8642  1.3667  3.2342
   76SLPC   H7S 6857   3.613   0.799   6.866 -1.4305  0.0247  0.3776
   76SLPC   C28 6858   3.734   0.969   6.904 -0.2185  0.1753 -0.0220
   76SLPC   H8R 6859   3.808   0.907   6.849 -0.6165 -0.8024  0.5183
   76SLPC   H8S 6860   3.784   0.962   7.003 -0.4464  0.6259  0.1308
   76SLPC   C29 6861   3.730   1.110   6.853 -0.3741  0.2750  0.0722
   76SLPC   H9R 6862   3.737   1.191   6.927 -1.3090 -0.4265  0.9495
   76SLPC  C210 6863   3.688   1.150   6.732  0.6799 -0.2292  0.0355
   76SLPC  H10R 6864   3.685   1.257   6.704 -0.3493 -0.1868  0.2667
   76SLPC  C211 6865   3.646   1.070   6.611 -0.0587  0.7294  0.5868
   76SLPC  H11R 6866   3.637   1.141   6.526 -0.4783  0.7088  0.6135
   76SLPC  H11S 6867   3.548   1.021   6.630 -0.4097  0.6075 -1.3098
   76SLPC  C212 6868   3.758   0.983   6.559 -0.3046  0.0099  0.0585
   76SLPC  H12R 6869   3.841   0.955   6.626  0.9369  0.3046 -1.2989
   76SLPC  C213 6870   3.769   0.935   6.433  1.3342  0.7056  1.0269
   76SLPC  H13R 6871   3.850   0.864   6.410  2.7404  2.2736  0.9192
   76SLPC  C214 6872   3.676   0.944   6.314 -0.3391 -0.8563  0.3309
   76SLPC  H14R 6873   3.574   0.953   6.358 -0.4112  0.9001 -0.1480
   76SLPC  H14S 6874   3.668   0.845   6.264  2.0710 -1.5185  1.1079
   76SLPC  C215 6875   3.704   1.056   6.205 -0.7426  0.4548  0.1433
   76SLPC  H15R 6876   3.737   1.146   6.260  1.0537  1.2130 -2.0432
   76SLPC  H15S 6877   3.611   1.076   6.147 -0.7299 -1.3547 -0.5824
   76SLPC  C216 6878   3.821   1.028   6.114  0.3368 -0.0804 -0.3328
   76SLPC  H16R 6879   3.836   0.918   6.099 -0.6590 -0.8535  3.3285
   76SLPC  H16S 6880   3.918   1.069   6.150  0.5189  0.4524 -1.3971
   76SLPC  C217 6881   3.800   1.092   5.977 -0.1520 -0.2184  0.9087
   76SLPC  H17R 6882   3.793   1.203   5.968 -0.3533 -0.3839 -1.8841
   76SLPC  H17S 6883   3.698   1.059   5.945  0.4095 -0.6530 -0.4931
   76SLPC  C218 6884   3.906   1.055   5.875  0.4618  0.2019  0.6447
   76SLPC  H18R 6885   3.925   0.945   5.878  1.8733  0.4041  0.1096
   76SLPC  H18S 6886   4.007   1.097   5.895 -0.2432  1.3365  1.9558
   76SLPC  H18T 6887   3.872   1.089   5.775  0.3018  1.3150  1.0670
   76SLPC   C33 6888   3.794   0.304   7.217  0.0421 -0.3715 -0.0883
   76SLPC   H3X 6889   3.900   0.310   7.250  0.5567 -0.1010 -1.7203
   76SLPC   H3Y 6890   3.762   0.402   7.178  2.6859 -0.6257 -3.3349
   76SLPC   C34 6891   3.784   0.210   7.102 -0.0742  0.2712  0.7185
   76SLPC   H4X 6892   3.678   0.182   7.087  0.4429 -0.8572 -1.1018
   76SLPC   H4Y 6893   3.848   0.120   7.120 -2.9023 -2.4183 -1.5272
   76SLPC   C35 6894   3.836   0.265   6.966  0.2077  0.4805  0.0776
   76SLPC   H5X 6895   3.947   0.267   6.969  0.2173  0.4614 -0.2626
   76SLPC   H5Y 6896   3.795   0.368   6.952  1.7314  0.7789 -3.2139
   76SLPC   C36 6897   3.798   0.172   6.849 -0.1155  1.1730 -0.1765
   76SLPC   H6X 6898   3.690   0.145   6.844  0.6254 -2.1030 -0.9604
   76SLPC   H6Y 6899   3.855   0.076   6.852  1.4173  2.0652  2.1949
   76SLPC   C37 6900   3.836   0.227   6.710 -0.4015  0.0646  0.4477
   76SLPC   H7X 6901   3.947   0.220   6.711 -0.3443  0.8255  1.7766
   76SLPC   H7Y 6902   3.803   0.333   6.718  0.0945  0.1608  1.4116
   76SLPC   C38 6903   3.779   0.142   6.594 -0.4660 -0.2534 -0.2295
   76SLPC   H8X 6904   3.682   0.101   6.628  0.9212 -1.3531  2.7559
   76SLPC   H8Y 6905   3.830   0.045   6.574 -0.6757 -0.0151 -2.1288
   76SLPC   C39 6906   3.809   0.215   6.464  0.5538 -0.1937  0.0119
   76SLPC   H9X 6907   3.915   0.243   6.445  1.0889 -1.8338  0.3492
   76SLPC   H9Y 6908   3.752   0.310   6.460 -0.7802 -1.0061 -2.3076
   76SLPC  C310 6909   3.778   0.124   6.350  0.0946  0.1782  0.3322
   76SLPC  H10X 6910   3.669   0.102   6.356 -0.2360  1.3288 -0.9930
   76SLPC  H10Y 6911   3.831   0.027   6.362 -0.8682 -0.3067  0.8049
   76SLPC  C311 6912   3.812   0.191   6.219  0.6035 -0.8124  0.6890
   76SLPC  H11X 6913   3.920   0.214   6.209  0.6527  0.6095  3.5042
   76SLPC  H11Y 6914   3.755   0.285   6.205  2.7590  0.3863 -0.6073
   76SLPC  C312 6915   3.779   0.112   6.101  0.7179  0.0588  0.2122
   76SLPC  H12X 6916   3.669   0.096   6.099  0.3893  2.0570 -0.2359
   76SLPC  H12Y 6917   3.826   0.012   6.111  0.8374 -0.1470 -1.9617
   76SLPC  C313 6918   3.812   0.181   5.974  0.0225 -0.0175  0.3195
   76SLPC  H13X 6919   3.920   0.203   5.961 -0.3928  1.0643 -1.6961
   76SLPC  H13Y 6920   3.776   0.285   5.978 -1.0983 -0.4187  1.0024
   76SLPC  C314 6921   3.753   0.106   5.854 -0.6654 -0.1162 -0.0730
   76SLPC  H14X 6922   3.645   0.129   5.849 -0.4296  0.9421 -0.6881
   76SLPC  H14Y 6923   3.771  -0.002   5.873 -0.3674 -0.2746 -1.1758
   76SLPC  C315 6924   3.820   0.149   5.725 -0.2515  0.2395 -0.0704
   76SLPC  H15X 6925   3.931   0.144   5.729 -0.1257  0.5598 -1.9710
   76SLPC  H15Y 6926   3.794   0.252   5.695 -0.3215  0.3826  0.4749
   76SLPC  C316 6927   3.782   0.071   5.592  0.0487  0.7725 -0.4662
   76SLPC  H16X 6928   3.671   0.074   5.593  0.0525  0.6989  0.0527
   76SLPC  H16Y 6929   3.819  -0.033   5.601 -0.5906  0.7383  4.0635
   76SLPC  C317 6930   3.823   0.150   5.464  0.3136  0.1844 -0.2131
   76SLPC  H17X 6931   3.933   0.167   5.459  0.5598 -1.5034 -2.1218
   76SLPC  H17Y 6932   3.765   0.244   5.462  0.5670  0.3330 -0.6695
   76SLPC  C318 6933   3.804   0.086   5.331 -0.3292  0.3990  0.1575
   76SLPC  H18X 6934   3.884   0.125   5.265 -0.1647 -0.3346 -0.0876
   76SLPC  H18Y 6935   3.703   0.099   5.286 -1.1579 -1.7025  1.2493
   76SLPC  H18Z 6936   3.802  -0.025   5.343 -2.0772  0.2601 -1.0109
   77SLPC     N 6937   5.789   4.994   8.920  0.0458 -0.4026  0.0721
   77SLPC   C13 6938   5.775   4.860   8.849 -0.4296 -0.1303 -0.6989
   77SLPC  H13A 6939   5.852   4.789   8.876  1.6999  1.6991 -1.6335
   77SLPC  H13B 6940   5.680   4.812   8.868  0.0424 -0.6890  0.3483
   77SLPC  H13C 6941   5.782   4.877   8.743  3.6323  0.8697 -0.4362
   77SLPC   C14 6942   5.779   4.958   9.063  0.1169 -0.0185 -0.1923
   77SLPC  H14A 6943   5.864   4.899   9.093  0.1886  1.0383  1.8003
   77SLPC  H14B 6944   5.787   5.050   9.118  1.5603 -1.0012  1.2959
   77SLPC  H14C 6945   5.685   4.907   9.076  0.2199  0.1822  1.4642
   77SLPC   C15 6946   5.674   5.085   8.881  0.3295  0.0959  0.3379
   77SLPC  H15A 6947   5.672   5.168   8.950 -1.5482 -0.9568  1.6538
   77SLPC  H15B 6948   5.669   5.112   8.776  1.0422 -3.3725 -0.7222
   77SLPC  H15C 6949   5.585   5.025   8.894 -0.0412  0.6902  0.6092
   77SLPC   C12 6950   5.923   5.063   8.887  1.3213  0.4385 -0.0264
   77SLPC  H12A 6951   5.996   5.043   8.964 -0.7062  1.2854  2.2599
   77SLPC  H12B 6952   5.904   5.170   8.890  3.2527  0.8792 -1.6192
   77SLPC   C11 6953   5.987   5.038   8.748  0.3752 -0.3005 -0.2816
   77SLPC  H11A 6954   6.034   4.938   8.760 -1.5442 -0.9821  2.3032
   77SLPC  H11B 6955   6.072   5.109   8.734  1.4308 -1.4957 -0.1744
   77SLPC     P 6956   5.886   5.156   8.534 -0.2609  0.2411 -0.0773
   77SLPC   O13 6957   5.783   5.252   8.582 -0.3972 -0.0925 -0.3159
   77SLPC   O14 6958   6.017   5.209   8.510 -0.3421 -0.9299  0.0524
   77SLPC   O12 6959   5.899   5.039   8.643  0.2769  0.3473 -0.2423
   77SLPC   O11 6960   5.826   5.081   8.410  0.1096  0.1733 -0.0262
   77SLPC    C1 6961   5.731   4.972   8.432  0.0161 -0.1172  0.2018
   77SLPC    HA 6962   5.774   4.876   8.396  1.8270  0.9643 -0.6390
   77SLPC    HB 6963   5.707   4.960   8.540 -1.8176  1.0890 -0.0296
   77SLPC    C2 6964   5.601   4.992   8.350 -0.3204  0.1036 -0.6046
   77SLPC    HS 6965   5.530   5.042   8.418 -2.9906 -2.8209 -1.0010
   77SLPC   O21 6966   5.556   4.855   8.316 -0.1949  0.3927  0.5073
   77SLPC   C21 6967   5.428   4.846   8.297 -0.8362 -0.0528 -0.7272
   77SLPC   O22 6968   5.339   4.927   8.316 -0.0322  0.1573 -0.5937
   77SLPC   C22 6969   5.402   4.707   8.249 -0.6115  0.5537 -0.0499
   77SLPC   H2R 6970   5.499   4.654   8.238 -1.4809 -1.3644  0.9222
   77SLPC   H2S 6971   5.353   4.649   8.330  0.7769 -2.2905 -1.0966
   77SLPC    C3 6972   5.625   5.067   8.217  0.1170  0.3749  0.5518
   77SLPC    HX 6973   5.703   5.004   8.168 -1.0438 -2.5838  2.2172
   77SLPC    HY 6974   5.655   5.172   8.241 -0.2909  0.7147 -0.4186
   77SLPC   O31 6975   5.507   5.075   8.140  0.6159 -0.1541 -0.3069
   77SLPC   C31 6976   5.515   5.151   8.031 -0.1012 -0.2073  0.0548
   77SLPC   O32 6977   5.610   5.221   8.005 -0.3084  0.1188 -0.4130
   77SLPC   C32 6978   5.376   5.148   7.973  0.5887  0.2845  0.2956
   77SLPC   H2X 6979   5.307   5.219   8.022  0.4780  0.7316 -0.4863
   77SLPC   H2Y 6980   5.343   5.043   7.990  0.2514  0.7541  2.8117
   77SLPC   C23 6981   5.313   4.704   8.125 -0.0765  0.1046 -0.3028
   77SLPC   H3R 6982   5.237   4.785   8.132 -1.3470 -0.7038 -3.1946
   77SLPC   H3S 6983   5.248   4.613   8.126 -1.3913  1.0110  0.6479
   77SLPC   C24 6984   5.387   4.715   7.992 -0.3841 -0.2414 -0.1328
   77SLPC   H4R 6985   5.462   4.635   8.008 -0.7080 -0.5563 -0.1742
   77SLPC   H4S 6986   5.444   4.810   7.983 -0.9574  0.0656 -0.6004
   77SLPC   C25 6987   5.286   4.688   7.882 -0.0855  0.4460 -0.2475
   77SLPC   H5R 6988   5.220   4.778   7.876  0.0620  0.6423  0.8931
   77SLPC   H5S 6989   5.221   4.603   7.910 -1.0929  1.1088 -0.4969
   77SLPC   C26 6990   5.365   4.658   7.755  1.0242  0.9429 -0.3608
   77SLPC   H6R 6991   5.449   4.587   7.774 -1.3604 -2.5073 -1.7922
   77SLPC   H6S 6992   5.415   4.750   7.718  0.0667  1.8743  0.5708
   77SLPC   C27 6993   5.269   4.615   7.643 -0.1037 -0.3227  0.4916
   77SLPC   H7R 6994   5.196   4.697   7.632 -1.1339 -1.2072  0.5496
   77SLPC   H7S 6995   5.228   4.517   7.676  1.5758 -1.6779 -1.2327
   77SLPC   C28 6996   5.342   4.604   7.505 -0.1768 -0.0742  0.0767
   77SLPC   H8R 6997   5.430   4.537   7.506  0.4515  0.7004  2.3001
   77SLPC   H8S 6998   5.379   4.706   7.479 -0.0638  0.2027  1.2512
   77SLPC   C29 6999   5.230   4.547   7.413 -0.7774  0.1226  0.2387
   77SLPC   H9R 7000   5.192   4.449   7.445  0.4576 -0.3617  0.2570
   77SLPC  C210 7001   5.182   4.600   7.302 -0.1743  0.1226  0.8864
   77SLPC  H10R 7002   5.102   4.547   7.246 -0.6488  2.1344 -0.4321
   77SLPC  C211 7003   5.225   4.742   7.242  0.2853  0.1119 -0.0600
   77SLPC  H11R 7004   5.234   4.808   7.331  1.8931 -1.5590  1.1058
   77SLPC  H11S 7005   5.145   4.786   7.179  0.5592 -1.0015 -1.2234
   77SLPC  C212 7006   5.363   4.745   7.186  0.4830 -0.0341 -0.8505
   77SLPC  H12R 7007   5.433   4.703   7.261  1.5859  2.7678 -0.1931
   77SLPC  C213 7008   5.406   4.794   7.071  0.6532 -0.4547  0.4513
   77SLPC  H13R 7009   5.511   4.777   7.044  1.0146  1.2614  0.6834
   77SLPC  C214 7010   5.322   4.866   6.965  0.9756 -0.2240 -0.2539
   77SLPC  H14R 7011   5.354   4.971   6.950 -1.0654  0.3291 -1.0152
   77SLPC  H14S 7012   5.216   4.885   6.993  1.1703  2.4071 -1.0292
   77SLPC  C215 7013   5.339   4.802   6.825 -0.1633 -0.3721 -0.2274
   77SLPC  H15R 7014   5.300   4.699   6.838 -2.1331  0.4141  0.6860
   77SLPC  H15S 7015   5.442   4.792   6.785  0.4268  0.6730  0.9344
   77SLPC  C216 7016   5.265   4.879   6.712 -0.3287 -0.7420 -0.6153
   77SLPC  H16R 7017   5.315   4.977   6.700  1.5768 -1.5507  0.2149
   77SLPC  H16S 7018   5.159   4.896   6.740 -0.1845 -0.8390  0.0194
   77SLPC  C217 7019   5.267   4.814   6.567  0.5584 -0.5405  1.0192
   77SLPC  H17R 7020   5.201   4.725   6.566 -0.5119  0.1817  2.7879
   77SLPC  H17S 7021   5.368   4.773   6.549 -0.0086 -1.4926 -0.1556
   77SLPC  C218 7022   5.245   4.916   6.452 -0.2420 -0.4755  0.0933
   77SLPC  H18R 7023   5.295   5.012   6.479  0.5294 -1.7185  3.5087
   77SLPC  H18S 7024   5.140   4.947   6.434  0.7742  3.2277 -0.2807
   77SLPC  H18T 7025   5.299   4.886   6.360  0.0580  1.1491 -0.2993
   77SLPC   C33 7026   5.380   5.178   7.822  0.1548 -0.2360 -0.0899
   77SLPC   H3X 7027   5.471   5.132   7.779  0.8295  1.8826 -1.0223
   77SLPC   H3Y 7028   5.381   5.287   7.806 -0.2214 -0.4322 -1.6382
   77SLPC   C34 7029   5.256   5.120   7.753  0.6355  0.1895 -0.7714
   77SLPC   H4X 7030   5.170   5.186   7.775  1.3004  0.2424  1.9479
   77SLPC   H4Y 7031   5.228   5.020   7.793  1.2927  0.4369  0.3351
   77SLPC   C35 7032   5.275   5.129   7.601 -0.0887  0.0900  0.2574
   77SLPC   H5X 7033   5.366   5.067   7.581  0.4884  1.2498 -0.8287
   77SLPC   H5Y 7034   5.297   5.235   7.578 -0.9375  0.6189  1.7867
   77SLPC   C36 7035   5.155   5.075   7.531 -0.1907  0.4257  0.7200
   77SLPC   H6X 7036   5.064   5.132   7.559 -1.0591 -0.1275 -0.8503
   77SLPC   H6Y 7037   5.143   4.966   7.552 -1.1251  0.7653  2.0256
   77SLPC   C37 7038   5.163   5.093   7.377  0.6542 -0.4914  0.1576
   77SLPC   H7X 7039   5.105   5.014   7.325  1.3141 -0.7175 -0.2348
   77SLPC   H7Y 7040   5.268   5.079   7.346  0.9348  0.6859  0.5314
   77SLPC   C38 7041   5.110   5.229   7.340  0.0045 -0.0323  0.4731
   77SLPC   H8X 7042   5.142   5.298   7.421  0.2926  0.1916  0.1728
   77SLPC   H8Y 7043   4.999   5.233   7.332 -0.0057  0.4421  0.8234
   77SLPC   C39 7044   5.185   5.275   7.209  0.0460 -0.1514 -0.0881
   77SLPC   H9X 7045   5.295   5.258   7.219 -0.2296 -0.5659  3.1212
   77SLPC   H9Y 7046   5.173   5.381   7.179  1.8515  0.0549 -0.1984
   77SLPC  C310 7047   5.121   5.197   7.094 -0.3998  0.0763  0.9147
   77SLPC  H10X 7048   5.010   5.196   7.088 -0.4167 -2.6602 -0.0676
   77SLPC  H10Y 7049   5.151   5.090   7.097 -0.3384 -0.0152 -1.3137
   77SLPC  C311 7050   5.182   5.250   6.961 -0.2084 -0.9669  0.2012
   77SLPC  H11X 7051   5.284   5.206   6.954  1.2841  1.7518  2.6545
   77SLPC  H11Y 7052   5.186   5.360   6.977 -0.9898 -0.9963  0.6751
   77SLPC  C312 7053   5.106   5.221   6.830  0.0152 -0.6026  0.1781
   77SLPC  H12X 7054   5.000   5.254   6.841 -0.0130 -1.3206  2.7001
   77SLPC  H12Y 7055   5.106   5.110   6.830 -2.5380 -0.7390  2.9057
   77SLPC  C313 7056   5.174   5.272   6.703 -0.4594 -0.1650 -0.0350
   77SLPC  H13X 7057   5.269   5.225   6.669 -0.6654  0.5877 -1.7196
   77SLPC  H13Y 7058   5.195   5.381   6.709 -1.9050  0.0629  2.3271
   77SLPC  C314 7059   5.065   5.263   6.588  0.3926  0.3310  0.1105
   77SLPC  H14X 7060   4.972   5.317   6.613 -1.1473 -2.1452  0.0667
   77SLPC  H14Y 7061   5.048   5.154   6.575 -1.5903  0.6716 -0.3765
   77SLPC  C315 7062   5.129   5.299   6.451 -0.7547 -0.3768  0.6460
   77SLPC  H15X 7063   5.227   5.248   6.456  0.0728  0.9338 -1.3222
   77SLPC  H15Y 7064   5.150   5.407   6.438  0.5922 -0.4753  1.7142
   77SLPC  C316 7065   5.066   5.243   6.323 -0.3008  0.0044  0.6991
   77SLPC  H16X 7066   4.975   5.300   6.294 -1.3802 -2.2616 -0.7415
   77SLPC  H16Y 7067   5.038   5.142   6.358  1.7215 -0.0469  2.3886
   77SLPC  C317 7068   5.159   5.239   6.204  0.5436  0.5405  0.1980
   77SLPC  H17X 7069   5.255   5.206   6.248 -0.4651 -0.2726  1.9250
   77SLPC  H17Y 7070   5.184   5.339   6.164  0.8118  0.5109  0.2892
   77SLPC  C318 7071   5.123   5.139   6.095  0.0459 -0.2604  0.1968
   77SLPC  H18X 7072   5.190   5.165   6.010 -0.3240 -0.9204 -0.3063
   77SLPC  H18Y 7073   5.014   5.142   6.075  0.2529 -3.1610 -2.1224
   77SLPC  H18Z 7074   5.138   5.038   6.137  0.3763 -0.8833 -1.3431
   78SLPC     N 7075   1.113   5.450   7.937  0.0879 -0.5805 -0.7890
   78SLPC   C13 7076   1.218   5.355   7.990 -0.8484 -0.1194 -0.6977
   78SLPC  H13A 7077   1.241   5.385   8.092  0.9653  0.6858 -1.3025
   78SLPC  H13B 7078   1.174   5.257   8.001 -0.0813 -0.2794  1.5593
   78SLPC  H13C 7079   1.305   5.337   7.928  1.1322  0.3154  1.7634
   78SLPC   C14 7080   1.168   5.598   7.952  0.0606  0.7806  0.6454
   78SLPC  H14A 7081   1.085   5.666   7.936 -0.1151  0.5229  0.4667
   78SLPC  H14B 7082   1.208   5.603   8.053  0.5695  1.9347  0.4060
   78SLPC  H14C 7083   1.253   5.614   7.889 -0.1000  0.3502  0.3188
   78SLPC   C15 7084   0.986   5.446   8.023 -0.2314 -0.2251 -0.3732
   78SLPC  H15A 7085   1.008   5.463   8.128 -2.1823  1.1537 -0.1413
   78SLPC  H15B 7086   0.913   5.507   7.973  0.4252 -1.3830 -2.9313
   78SLPC  H15C 7087   0.939   5.349   8.029  1.8513 -1.2324  1.3452
   78SLPC   C12 7088   1.084   5.429   7.790  0.0867 -0.7239 -0.0764
   78SLPC  H12A 7089   1.181   5.456   7.749 -0.0026  0.9150  0.6872
   78SLPC  H12B 7090   1.012   5.502   7.757  1.4581  1.5081  1.5714
   78SLPC   C11 7091   1.045   5.291   7.733 -0.3235 -0.1496  0.7049
   78SLPC  H11A 7092   1.114   5.210   7.765 -1.5461 -0.8654  1.6216
   78SLPC  H11B 7093   1.042   5.296   7.622 -1.4854  2.8335  0.7608
   78SLPC     P 7094   0.775   5.337   7.741  0.4307 -0.3699 -0.3529
   78SLPC   O13 7095   0.682   5.288   7.843  0.5689 -0.8309 -0.3213
   78SLPC   O14 7096   0.787   5.478   7.709  0.1725 -0.2182  1.2110
   78SLPC   O12 7097   0.916   5.284   7.789  0.0247  1.2611  0.6322
   78SLPC   O11 7098   0.753   5.263   7.606  0.1096  0.4685 -0.9174
   78SLPC    C1 7099   0.677   5.314   7.498 -0.1596  0.2787 -0.8989
   78SLPC    HA 7100   0.576   5.271   7.510  0.4519 -0.8835  0.2690
   78SLPC    HB 7101   0.661   5.424   7.506  0.8180  0.3865 -0.2100
   78SLPC    C2 7102   0.734   5.279   7.360 -0.4080 -0.4361 -0.4631
   78SLPC    HS 7103   0.662   5.317   7.285 -0.9141  0.1442  0.3029
   78SLPC   O21 7104   0.742   5.139   7.336  0.0671 -0.7632  0.0104
   78SLPC   C21 7105   0.628   5.074   7.307  0.2066 -0.0945 -0.5570
   78SLPC   O22 7106   0.512   5.123   7.318 -0.6446  0.3672  0.7080
   78SLPC   C22 7107   0.655   4.937   7.249 -0.0211  0.0515  0.2752
   78SLPC   H2R 7108   0.766   4.938   7.242 -0.0805  0.6350 -0.8518
   78SLPC   H2S 7109   0.625   4.859   7.322  0.7034 -0.6090 -0.1104
   78SLPC    C3 7110   0.868   5.345   7.347  0.5909 -0.4046 -0.0545
   78SLPC    HX 7111   0.941   5.289   7.409  1.1163 -0.4004 -0.6624
   78SLPC    HY 7112   0.869   5.448   7.388 -1.2132 -0.0722 -0.7741
   78SLPC   O31 7113   0.912   5.351   7.212 -0.6629  0.1908 -0.0674
   78SLPC   C31 7114   1.030   5.401   7.187 -0.0927  0.2605  0.1540
   78SLPC   O32 7115   1.118   5.425   7.274  0.8414  0.3717 -0.1488
   78SLPC   C32 7116   1.055   5.410   7.039 -0.0483 -0.3293 -0.0699
   78SLPC   H2X 7117   0.992   5.495   7.005 -0.2715 -0.3581  0.2601
   78SLPC   H2Y 7118   1.012   5.318   6.993  1.4503 -2.0242  1.6908
   78SLPC   C23 7119   0.581   4.921   7.115 -1.0829 -0.0883 -0.0407
   78SLPC   H3R 7120   0.607   5.016   7.064 -0.3452 -1.4307 -2.2914
   78SLPC   H3S 7121   0.471   4.913   7.129 -0.9751  0.9756  1.7235
   78SLPC   C24 7122   0.639   4.811   7.023 -0.8413  0.2728  0.0674
   78SLPC   H4R 7123   0.617   4.718   7.080 -0.5897  0.0204 -0.2439
   78SLPC   H4S 7124   0.746   4.815   6.993 -1.2642 -0.0569 -1.5423
   78SLPC   C25 7125   0.560   4.810   6.899  0.0955  0.4125  0.0784
   78SLPC   H5R 7126   0.585   4.909   6.855  2.7809 -0.5894 -0.7924
   78SLPC   H5S 7127   0.449   4.807   6.910  0.0013 -1.3744 -1.1501
   78SLPC   C26 7128   0.609   4.701   6.802 -0.0788 -0.0978  0.3957
   78SLPC   H6R 7129   0.607   4.602   6.852  0.4480  1.2696  3.3436
   78SLPC   H6S 7130   0.714   4.732   6.782  0.7072  0.1475  4.0965
   78SLPC   C27 7131   0.528   4.707   6.675  0.1053  0.1464  0.0087
   78SLPC   H7R 7132   0.529   4.813   6.643  1.5531  0.3337  0.5771
   78SLPC   H7S 7133   0.428   4.670   6.705  0.3575 -0.4041  0.1918
   78SLPC   C28 7134   0.583   4.624   6.556  0.6316  0.2761  0.5312
   78SLPC   H8R 7135   0.578   4.521   6.598  0.6167  0.3538  0.7205
   78SLPC   H8S 7136   0.692   4.646   6.546  0.1627  1.9699 -1.2786
   78SLPC   C29 7137   0.508   4.640   6.422 -0.5188 -0.0288 -0.1291
   78SLPC   H9R 7138   0.518   4.741   6.379 -0.0483 -0.3871 -0.8769
   78SLPC  C210 7139   0.452   4.545   6.353  0.0365  0.8572  0.1255
   78SLPC  H10R 7140   0.391   4.586   6.271  2.2772 -0.4455 -2.3283
   78SLPC  C211 7141   0.424   4.397   6.389  0.2196 -0.7897  0.6723
   78SLPC  H11R 7142   0.329   4.365   6.340  1.6042 -0.5339 -2.3613
   78SLPC  H11S 7143   0.412   4.388   6.499  1.8318 -0.8885  0.8506
   78SLPC  C212 7144   0.537   4.305   6.357 -0.4109 -0.0840 -0.6031
   78SLPC  H12R 7145   0.639   4.340   6.380 -0.7487  0.3396  0.2586
   78SLPC  C213 7146   0.538   4.190   6.296 -0.3880  0.6444 -0.0398
   78SLPC  H13R 7147   0.634   4.142   6.275 -1.2052 -0.2595 -1.9701
   78SLPC  C214 7148   0.424   4.110   6.251  0.3003 -0.4869  0.9447
   78SLPC  H14R 7149   0.326   4.161   6.259 -0.8510 -2.3080 -0.6716
   78SLPC  H14S 7150   0.412   4.043   6.339 -3.3013  1.2375  1.9468
   78SLPC  C215 7151   0.448   4.047   6.111 -0.3143 -0.6345  0.4391
   78SLPC  H15R 7152   0.380   3.960   6.095 -1.0269  0.0552 -0.4382
   78SLPC  H15S 7153   0.544   3.992   6.118  0.1244  0.0470 -0.1349
   78SLPC  C216 7154   0.448   4.144   5.996  0.1503  0.1465  0.1484
   78SLPC  H16R 7155   0.476   4.074   5.915  0.7784  0.3018  0.2294
   78SLPC  H16S 7156   0.524   4.224   5.988  0.7342 -0.5648 -2.1873
   78SLPC  C217 7157   0.315   4.207   5.959  0.7735  0.2693 -0.0014
   78SLPC  H17R 7158   0.326   4.266   5.866  1.0694  0.0009 -0.1378
   78SLPC  H17S 7159   0.290   4.273   6.044 -0.5732 -1.2367  0.8346
   78SLPC  C218 7160   0.204   4.104   5.938  0.2514  1.1427  0.5340
   78SLPC  H18R 7161   0.234   4.025   5.866  1.4928  0.3822  1.8209
   78SLPC  H18S 7162   0.120   4.156   5.887 -0.3561  1.2353  1.5986
   78SLPC  H18T 7163   0.166   4.053   6.029 -0.0760  1.8265  0.7905
   78SLPC   C33 7164   1.208   5.433   7.005  0.1652  0.2490  0.5298
   78SLPC   H3X 7165   1.248   5.336   7.042 -0.3008  0.2645  1.1014
   78SLPC   H3Y 7166   1.258   5.515   7.062 -1.3809  0.1357  2.1669
   78SLPC   C34 7167   1.232   5.451   6.855 -0.1499  0.0355  0.2432
   78SLPC   H4X 7168   1.342   5.437   6.844 -0.1565  1.0234 -1.6346
   78SLPC   H4Y 7169   1.210   5.557   6.828  0.8189  0.1264 -0.2434
   78SLPC   C35 7170   1.162   5.346   6.767  0.3861 -0.2040  1.2427
   78SLPC   H5X 7171   1.051   5.345   6.777  0.1336 -2.8458 -0.6266
   78SLPC   H5Y 7172   1.198   5.242   6.787 -0.5636 -0.5206  1.3629
   78SLPC   C36 7173   1.197   5.374   6.622  0.1062 -0.4929  0.2238
   78SLPC   H6X 7174   1.301   5.337   6.615  0.3832 -0.1192  1.9205
   78SLPC   H6Y 7175   1.184   5.481   6.599  0.8408 -0.7012 -1.2628
   78SLPC   C37 7176   1.122   5.277   6.530 -0.3522 -0.3923 -0.1337
   78SLPC   H7X 7177   1.014   5.284   6.554 -0.0422 -1.2809  1.6816
   78SLPC   H7Y 7178   1.155   5.179   6.570 -1.2463 -0.9758 -0.7712
   78SLPC   C38 7179   1.147   5.286   6.382 -0.4288 -0.0377 -0.4321
   78SLPC   H8X 7180   1.078   5.366   6.346 -0.4232 -0.5944 -1.6966
   78SLPC   H8Y 7181   1.121   5.190   6.334 -1.1676  1.0201 -2.2783
   78SLPC   C39 7182   1.294   5.318   6.349 -0.7873 -0.0180  0.2673
   78SLPC   H9X 7183   1.348   5.242   6.410 -1.6086  1.3882  2.8802
   78SLPC   H9Y 7184   1.316   5.420   6.387  2.4003 -0.3031 -0.5327
   78SLPC  C310 7185   1.321   5.311   6.196 -0.1871 -0.5092 -0.7343
   78SLPC  H10X 7186   1.431   5.320   6.183 -0.0019  1.3477  1.5692
   78SLPC  H10Y 7187   1.266   5.394   6.148  2.0709  1.3383 -0.3322
   78SLPC  C311 7188   1.295   5.178   6.127  0.3135 -0.2280  0.2223
   78SLPC  H11X 7189   1.192   5.145   6.152 -0.0775  1.3144  0.7792
   78SLPC  H11Y 7190   1.360   5.092   6.153 -0.0092 -0.2102  1.1169
   78SLPC  C312 7191   1.302   5.204   5.975 -0.0937 -0.0855 -0.7146
   78SLPC  H12X 7192   1.403   5.244   5.956  0.5360 -2.0517 -1.7944
   78SLPC  H12Y 7193   1.236   5.288   5.944  2.2557  1.8369 -0.7256
   78SLPC  C313 7194   1.282   5.074   5.890  1.1113  0.2019 -0.0370
   78SLPC  H13X 7195   1.183   5.027   5.904  0.5650  1.9108  2.8281
   78SLPC  H13Y 7196   1.356   4.998   5.922  0.1379  0.3297  2.8739
   78SLPC  C314 7197   1.299   5.101   5.739  0.4806  0.7477  0.7596
   78SLPC  H14X 7198   1.378   5.177   5.722 -0.1179  0.9088 -1.6081
   78SLPC  H14Y 7199   1.207   5.142   5.693  1.4422 -1.4634 -3.6934
   78SLPC  C315 7200   1.315   4.965   5.662 -0.5171  0.3794  0.3930
   78SLPC  H15X 7201   1.239   4.900   5.710 -1.6867  1.2921 -0.1702
   78SLPC  H15Y 7202   1.417   4.937   5.696 -0.8870 -1.0079  0.4202
   78SLPC  C316 7203   1.306   4.976   5.511 -0.0466  1.0569  0.2090
   78SLPC  H16X 7204   1.360   5.068   5.478  0.0809 -0.3072 -3.9628
   78SLPC  H16Y 7205   1.201   4.991   5.476  0.2335  0.0226 -1.1733
   78SLPC  C317 7206   1.361   4.843   5.442  0.5702 -0.4510  0.5666
   78SLPC  H17X 7207   1.314   4.751   5.484  0.1415  0.0176  1.1210
   78SLPC  H17Y 7208   1.471   4.838   5.459  0.5818 -1.5772  0.2522
   78SLPC  C318 7209   1.343   4.846   5.289  0.1993  0.1222 -0.0011
   78SLPC  H18X 7210   1.364   4.747   5.242  1.0918  0.7823 -1.0539
   78SLPC  H18Y 7211   1.410   4.927   5.254  1.1588 -1.0841 -1.1040
   78SLPC  H18Z 7212   1.239   4.871   5.259  0.1600 -0.3373 -0.2656
   79SLPC     N 7213   5.074   0.963   8.165  0.7114  0.2112  0.4687
   79SLPC   C13 7214   5.203   0.882   8.166  0.3401 -0.3790  0.2786
   79SLPC  H13A 7215   5.203   0.824   8.075 -0.5943 -0.0753  0.0732
   79SLPC  H13B 7216   5.291   0.944   8.167 -0.7933  1.2988  0.6955
   79SLPC  H13C 7217   5.215   0.808   8.243  1.8837 -1.1911 -0.6968
   79SLPC   C14 7218   5.078   1.062   8.274  0.6746  0.5020  0.5392
   79SLPC  H14A 7219   4.982   1.110   8.286  0.9161  1.2600 -0.4348
   79SLPC  H14B 7220   5.089   1.020   8.373 -2.0601 -1.5246  0.0908
   79SLPC  H14C 7221   5.152   1.140   8.261 -0.4143  1.2923 -1.3530
   79SLPC   C15 7222   4.973   0.860   8.171 -0.0544 -0.1410 -0.0718
   79SLPC  H15A 7223   4.998   0.787   8.246 -1.8457 -0.2295  0.4863
   79SLPC  H15B 7224   4.873   0.898   8.186  0.1638  0.3890  0.0666
   79SLPC  H15C 7225   4.974   0.797   8.083 -1.7503  0.1496 -0.3337
   79SLPC   C12 7226   5.060   1.042   8.031  0.2631  0.0877  0.3134
   79SLPC  H12A 7227   5.157   1.090   8.029  0.7180 -0.8392 -0.4818
   79SLPC  H12B 7228   4.988   1.123   8.037  0.0104 -0.1036 -0.1162
   79SLPC   C11 7229   5.033   0.966   7.904 -0.0391  0.2396  0.1646
   79SLPC  H11A 7230   5.027   1.031   7.814  0.9837 -0.5061 -0.4695
   79SLPC  H11B 7231   4.936   0.913   7.906  0.5930 -1.1071 -1.9602
   79SLPC     P 7232   5.122   0.764   7.771  0.0899  0.2715 -0.3066
   79SLPC   O13 7233   5.245   0.676   7.792  0.5133  0.2720 -0.5548
   79SLPC   O14 7234   4.992   0.694   7.780  0.0099 -0.3823 -0.4204
   79SLPC   O12 7235   5.137   0.870   7.888 -0.1115 -0.2797 -0.4018
   79SLPC   O11 7236   5.138   0.845   7.636  0.2164  0.4012  0.3773
   79SLPC    C1 7237   5.258   0.914   7.605  0.4648  0.1254  0.0380
   79SLPC    HA 7238   5.233   1.014   7.647  0.2332  0.3674 -0.6690
   79SLPC    HB 7239   5.347   0.868   7.652 -0.1933 -0.3309  0.8832
   79SLPC    C2 7240   5.275   0.932   7.454  0.2905  0.2847 -0.6778
   79SLPC    HS 7241   5.379   0.971   7.448  1.0623 -1.1591  1.8679
   79SLPC   O21 7242   5.163   1.003   7.411 -0.0634  0.1240  0.3416
   79SLPC   C21 7243   5.189   1.114   7.353  0.1700  0.1735 -0.2431
   79SLPC   O22 7244   5.300   1.169   7.339  0.5158 -0.9252 -0.2138
   79SLPC   C22 7245   5.056   1.182   7.314  0.0535 -0.9942 -0.0218
   79SLPC   H2R 7246   5.009   1.180   7.415  2.4572 -1.9666  1.1275
   79SLPC   H2S 7247   5.062   1.290   7.286  1.4617 -0.9995  0.1828
   79SLPC    C3 7248   5.261   0.795   7.380  0.2626  0.5137  0.2411
   79SLPC    HX 7249   5.167   0.745   7.412 -0.3684  1.3405 -0.2735
   79SLPC    HY 7250   5.343   0.729   7.415 -0.3290  0.0370  0.7640
   79SLPC   O31 7251   5.268   0.807   7.237 -0.1606 -0.4900  0.5114
   79SLPC   C31 7252   5.387   0.819   7.177 -0.0988  0.7026 -0.2256
   79SLPC   O32 7253   5.494   0.802   7.232  0.2342 -0.3639  0.3434
   79SLPC   C32 7254   5.367   0.857   7.028 -0.2575 -0.7819 -0.3609
   79SLPC   H2X 7255   5.356   0.967   7.019 -1.0353 -0.8165  0.0724
   79SLPC   H2Y 7256   5.276   0.799   7.000 -0.0323 -0.9408 -0.7816
   79SLPC   C23 7257   4.983   1.099   7.202 -0.4680 -0.5422  0.0242
   79SLPC   H3R 7258   4.889   1.145   7.165 -0.1224 -0.6940 -1.0819
   79SLPC   H3S 7259   4.955   0.996   7.235  1.1462 -1.1369 -0.3416
   79SLPC   C24 7260   5.075   1.092   7.081  0.0697  0.6180 -0.2803
   79SLPC   H4R 7261   5.157   1.018   7.098 -0.2606  0.4132  0.4573
   79SLPC   H4S 7262   5.116   1.193   7.061  1.8475  0.3323  1.6166
   79SLPC   C25 7263   4.998   1.044   6.958  0.3792  0.0062 -0.1013
   79SLPC   H5R 7264   4.889   1.042   6.977  0.3480  1.0042 -0.1662
   79SLPC   H5S 7265   5.029   0.939   6.936  0.2724 -0.0665  0.0856
   79SLPC   C26 7266   5.019   1.129   6.834  0.1784  0.1111  0.0860
   79SLPC   H6R 7267   5.129   1.130   6.815  0.1634 -0.0731 -0.0088
   79SLPC   H6S 7268   4.998   1.238   6.843  0.8002  0.2225  0.2349
   79SLPC   C27 7269   4.928   1.072   6.718 -0.4862  0.1472 -0.3639
   79SLPC   H7R 7270   4.826   1.068   6.764  0.7951  0.4110  2.7091
   79SLPC   H7S 7271   4.950   0.965   6.699  0.4956 -0.0017  1.4076
   79SLPC   C28 7272   4.952   1.157   6.595  0.1849  0.3838  0.5487
   79SLPC   H8R 7273   5.059   1.176   6.571  0.6999 -0.5658  1.9514
   79SLPC   H8S 7274   4.932   1.265   6.613  2.1179  1.1219 -1.3368
   79SLPC   C29 7275   4.875   1.110   6.478  0.7557  0.3880 -0.4443
   79SLPC   H9R 7276   4.832   1.009   6.486  0.2107  0.6383 -0.2074
   79SLPC  C210 7277   4.860   1.176   6.363  0.9641  0.3184 -0.6583
   79SLPC  H10R 7278   4.793   1.136   6.286 -0.3720  0.1858  0.5205
   79SLPC  C211 7279   4.916   1.312   6.324 -0.4862  0.1058 -0.4818
   79SLPC  H11R 7280   4.966   1.307   6.224 -2.8639  0.7629 -1.7692
   79SLPC  H11S 7281   4.983   1.358   6.400 -0.7481 -0.4093  0.0663
   79SLPC  C212 7282   4.802   1.412   6.316 -0.3005 -0.1191 -0.2842
   79SLPC  H12R 7283   4.786   1.480   6.400 -0.9217 -0.4567 -0.1253
   79SLPC  C213 7284   4.723   1.428   6.214  0.3180 -0.4983 -0.6526
   79SLPC  H13R 7285   4.658   1.517   6.211 -0.8755 -1.1255  2.4539
   79SLPC  C214 7286   4.735   1.353   6.086 -0.4096 -0.4511 -0.1765
   79SLPC  H14R 7287   4.644   1.290   6.075 -0.9163  0.1309  0.5799
   79SLPC  H14S 7288   4.822   1.284   6.090  1.5023  1.6828 -2.1545
   79SLPC  C215 7289   4.747   1.440   5.957  0.5347 -0.5262 -0.0156
   79SLPC  H15R 7290   4.837   1.505   5.951 -1.1232  1.8075 -1.4198
   79SLPC  H15S 7291   4.664   1.513   5.970  0.4594 -0.3869 -1.2239
   79SLPC  C216 7292   4.735   1.368   5.827  0.2926  0.0947  0.1647
   79SLPC  H16R 7293   4.647   1.300   5.822 -0.5526  1.1137  0.7673
   79SLPC  H16S 7294   4.821   1.297   5.823 -0.7181 -1.1411 -1.1502
   79SLPC  C217 7295   4.771   1.448   5.701  0.0031  0.0955 -0.5896
   79SLPC  H17R 7296   4.875   1.488   5.705 -0.6805  1.8716  0.7524
   79SLPC  H17S 7297   4.701   1.535   5.704  1.3842  1.2332 -0.0422
   79SLPC  C218 7298   4.756   1.370   5.575  0.7102  0.4518  0.7330
   79SLPC  H18R 7299   4.655   1.324   5.577  1.2974 -1.0170 -1.0952
   79SLPC  H18S 7300   4.825   1.283   5.562  0.0440 -0.0329  0.3960
   79SLPC  H18T 7301   4.767   1.424   5.479 -3.9753 -1.2728 -1.0578
   79SLPC   C33 7302   5.467   0.801   6.928 -0.0469 -0.0669  0.3583
   79SLPC   H3X 7303   5.496   0.702   6.969  0.2669  0.0154  0.3340
   79SLPC   H3Y 7304   5.556   0.867   6.929 -1.2717  1.7074  2.5128
   79SLPC   C34 7305   5.418   0.754   6.791 -0.1793 -0.2384  0.4167
   79SLPC   H4X 7306   5.358   0.661   6.802 -0.0925 -0.5614 -1.5046
   79SLPC   H4Y 7307   5.509   0.720   6.736 -0.1047 -2.2624  1.6829
   79SLPC   C35 7308   5.329   0.855   6.714 -0.6286 -0.4103 -0.9584
   79SLPC   H5X 7309   5.378   0.954   6.713 -1.3976 -0.0271 -1.2994
   79SLPC   H5Y 7310   5.233   0.851   6.771  0.7950  0.5900  1.6866
   79SLPC   C36 7311   5.308   0.806   6.569  0.2617 -0.2536 -0.0048
   79SLPC   H6X 7312   5.247   0.713   6.570  1.7369 -1.2565  0.7710
   79SLPC   H6Y 7313   5.408   0.779   6.529  0.4967  0.1677  0.2918
   79SLPC   C37 7314   5.252   0.915   6.477  0.1796 -0.3969  1.1833
   79SLPC   H7X 7315   5.297   1.015   6.499 -2.3314  1.4672 -1.3168
   79SLPC   H7Y 7316   5.143   0.914   6.496  0.1716  1.8438  1.5998
   79SLPC   C38 7317   5.266   0.898   6.322 -0.1806 -0.2659  0.7548
   79SLPC   H8X 7318   5.245   0.790   6.309  2.1036 -0.9278  2.0388
   79SLPC   H8Y 7319   5.366   0.932   6.289 -0.1373 -2.0088 -1.0633
   79SLPC   C39 7320   5.162   0.967   6.238  0.0612 -0.1866 -0.4590
   79SLPC   H9X 7321   5.155   1.076   6.262  0.2756 -0.1651 -0.4921
   79SLPC   H9Y 7322   5.065   0.925   6.272 -1.3397  2.4515 -0.9332
   79SLPC  C310 7323   5.170   0.945   6.081  0.5304  0.1623  0.3958
   79SLPC  H10X 7324   5.279   0.935   6.058  0.9537  0.5102  2.0852
   79SLPC  H10Y 7325   5.123   1.036   6.037 -1.8737 -1.4758 -0.6178
   79SLPC  C311 7326   5.083   0.827   6.032  0.4009  0.2831  0.7472
   79SLPC  H11X 7327   4.977   0.850   6.055 -0.4044  0.7633 -2.7738
   79SLPC  H11Y 7328   5.133   0.743   6.084  2.2753  0.2197 -1.0401
   79SLPC  C312 7329   5.102   0.795   5.884 -0.0483 -0.5880  0.1613
   79SLPC  H12X 7330   5.208   0.786   5.852  0.3304 -0.6591  1.4065
   79SLPC  H12Y 7331   5.054   0.868   5.815  0.9337  0.3554  0.4485
   79SLPC  C313 7332   5.034   0.663   5.850 -0.7138  0.2218 -0.0251
   79SLPC  H13X 7333   5.081   0.574   5.897  2.2127  2.7736  2.3856
   79SLPC  H13Y 7334   5.042   0.639   5.742  0.5425 -0.0397  0.1109
   79SLPC  C314 7335   4.885   0.672   5.881  0.1082  0.5389 -0.4182
   79SLPC  H14X 7336   4.845   0.769   5.845 -0.9485  0.1042 -0.4487
   79SLPC  H14Y 7337   4.869   0.664   5.991 -0.1017 -2.6851 -0.5694
   79SLPC  C315 7338   4.794   0.566   5.813  0.5984 -0.5790 -0.6201
   79SLPC  H15X 7339   4.835   0.465   5.836  1.7997  0.3324  1.5728
   79SLPC  H15Y 7340   4.805   0.571   5.703  3.2568 -0.3591 -0.4171
   79SLPC  C316 7341   4.646   0.592   5.851 -0.5831 -0.2646 -0.8508
   79SLPC  H16X 7342   4.624   0.696   5.819  0.1605 -0.2479 -1.3577
   79SLPC  H16Y 7343   4.634   0.594   5.961 -0.5500 -0.5456 -0.8414
   79SLPC  C317 7344   4.543   0.496   5.789 -0.6151  0.5772  0.3143
   79SLPC  H17X 7345   4.557   0.485   5.680  0.7203  0.0072  0.5241
   79SLPC  H17Y 7346   4.442   0.537   5.812 -0.9424 -0.0555  0.0304
   79SLPC  C318 7347   4.547   0.363   5.857  0.0398  0.3285  0.6180
   79SLPC  H18X 7348   4.503   0.375   5.958  0.3432  0.6785  0.7131
   79SLPC  H18Y 7349   4.650   0.321   5.866 -0.5297 -1.7549 -1.5581
   79SLPC  H18Z 7350   4.486   0.295   5.794  0.6567  0.6531 -0.3682
   80SLPC     N 7351   0.244   4.703   8.288  0.0671 -0.4026 -0.4261
   80SLPC   C13 7352   0.219   4.844   8.338  0.0520  0.3560  1.0283
   80SLPC  H13A 7353   0.275   4.863   8.428  2.0810  0.7184 -0.2308
   80SLPC  H13B 7354   0.221   4.919   8.260  0.7909 -2.0676 -1.4433
   80SLPC  H13C 7355   0.115   4.844   8.368 -0.1884 -1.1376  0.3010
   80SLPC   C14 7356   0.178   4.607   8.380 -0.8506 -0.7069 -0.1573
   80SLPC  H14A 7357   0.071   4.626   8.378 -0.7073  0.1224 -0.6063
   80SLPC  H14B 7358   0.191   4.505   8.347 -0.6110 -0.5232 -0.6394
   80SLPC  H14C 7359   0.203   4.615   8.485  0.4359 -2.0078 -0.3301
   80SLPC   C15 7360   0.390   4.681   8.287  0.1594  0.9077 -0.0450
   80SLPC  H15A 7361   0.421   4.578   8.284 -1.0655  0.4194  2.1533
   80SLPC  H15B 7362   0.436   4.728   8.201 -0.7110 -1.0444 -1.6763
   80SLPC  H15C 7363   0.448   4.730   8.364  1.4790 -0.1253 -0.3494
   80SLPC   C12 7364   0.192   4.694   8.144 -0.2735 -0.1083  0.3565
   80SLPC  H12A 7365   0.222   4.597   8.107  0.2197 -0.4138  1.5068
   80SLPC  H12B 7366   0.235   4.771   8.081 -0.2086 -0.4666 -0.0397
   80SLPC   C11 7367   0.034   4.704   8.117 -0.5958  0.1198  0.0334
   80SLPC  H11A 7368  -0.006   4.638   8.197 -0.5494 -0.7113 -0.6199
   80SLPC  H11B 7369   0.011   4.653   8.020  0.1047 -2.6207  1.2233
   80SLPC     P 7370   0.010   4.949   8.021 -0.0447 -0.0562 -0.5582
   80SLPC   O13 7371  -0.075   5.061   8.054  0.0126  0.0425 -0.5123
   80SLPC   O14 7372   0.156   4.977   8.021 -0.0424 -0.0492 -0.2189
   80SLPC   O12 7373  -0.027   4.829   8.130  0.4444  0.0435  0.1109
   80SLPC   O11 7374  -0.045   4.899   7.885 -0.2618  0.3656 -0.0117
   80SLPC    C1 7375  -0.173   4.838   7.889  0.3417 -0.2889 -0.2373
   80SLPC    HA 7376  -0.178   4.757   7.964  0.3143 -1.1737 -1.1798
   80SLPC    HB 7377  -0.258   4.906   7.910 -0.9714 -1.7092 -0.7909
   80SLPC    C2 7378  -0.208   4.769   7.753 -0.3041  0.3441 -0.5842
   80SLPC    HS 7379  -0.312   4.730   7.756  0.1990 -0.9538  0.7959
   80SLPC   O21 7380  -0.126   4.660   7.724  0.1586  0.4203  0.4708
   80SLPC   C21 7381  -0.158   4.542   7.768 -0.8141  0.8538 -0.1386
   80SLPC   O22 7382  -0.241   4.520   7.857 -0.5911 -0.0803  0.1748
   80SLPC   C22 7383  -0.092   4.419   7.690 -0.5330 -0.2635  0.1107
   80SLPC   H2R 7384  -0.065   4.452   7.587  1.6163  2.0169  1.2959
   80SLPC   H2S 7385   0.003   4.389   7.737 -1.2754 -2.4167  0.3425
   80SLPC    C3 7386  -0.220   4.873   7.641 -0.2367 -0.1469  0.4546
   80SLPC    HX 7387  -0.122   4.925   7.631  0.3225 -1.5445 -2.6920
   80SLPC    HY 7388  -0.303   4.944   7.661  0.0049 -0.1021  1.3543
   80SLPC   O31 7389  -0.262   4.802   7.522 -0.1646  0.1087  0.1050
   80SLPC   C31 7390  -0.161   4.750   7.448 -0.8112 -0.5312 -0.2383
   80SLPC   O32 7391  -0.043   4.774   7.473  0.1587 -0.2758  0.3620
   80SLPC   C32 7392  -0.208   4.655   7.346 -0.4503  0.3656  0.1438
   80SLPC   H2X 7393  -0.285   4.718   7.296 -1.2191 -0.3039  0.4652
   80SLPC   H2Y 7394  -0.261   4.569   7.391  0.6356  0.4835  1.7437
   80SLPC   C23 7395  -0.177   4.296   7.688  0.2798  0.7533 -0.2828
   80SLPC   H3R 7396  -0.209   4.280   7.793  2.5700  1.4014  0.5808
   80SLPC   H3S 7397  -0.114   4.206   7.669 -0.9528  0.2494 -2.3074
   80SLPC   C24 7398  -0.298   4.300   7.592  0.4586 -0.3600  0.2392
   80SLPC   H4R 7399  -0.340   4.403   7.583 -0.6704 -0.6677  1.5780
   80SLPC   H4S 7400  -0.376   4.229   7.628  2.9188 -3.8713 -0.8721
   80SLPC   C25 7401  -0.261   4.246   7.458  0.6972  0.5106 -0.3163
   80SLPC   H5R 7402  -0.214   4.147   7.474  0.0051  0.0443 -1.0741
   80SLPC   H5S 7403  -0.184   4.315   7.417  0.2459  1.0993 -0.1938
   80SLPC   C26 7404  -0.380   4.224   7.365  0.6245 -0.1868 -0.5823
   80SLPC   H6R 7405  -0.410   4.325   7.330 -0.8294 -0.1226  0.7292
   80SLPC   H6S 7406  -0.467   4.183   7.421 -0.8925  2.1145 -1.1046
   80SLPC   C27 7407  -0.345   4.149   7.244 -0.4521 -0.7606  0.5563
   80SLPC   H7R 7408  -0.306   4.047   7.267  0.4569 -0.2891  1.1220
   80SLPC   H7S 7409  -0.268   4.212   7.195 -1.4198  0.6674  0.8123
   80SLPC   C28 7410  -0.459   4.141   7.140 -0.0219  1.1086  0.2437
   80SLPC   H8R 7411  -0.479   4.240   7.094 -0.7779 -0.1949 -2.4455
   80SLPC   H8S 7412  -0.545   4.100   7.196 -0.7832 -0.0721 -1.6966
   80SLPC   C29 7413  -0.434   4.049   7.022 -0.5455 -0.1635  0.2514
   80SLPC   H9R 7414  -0.339   4.067   6.970 -0.1913  1.7465  1.4591
   80SLPC  C210 7415  -0.513   3.946   6.993 -0.1753  0.4844 -0.2647
   80SLPC  H10R 7416  -0.492   3.877   6.910  1.2266 -1.2436  1.4101
   80SLPC  C211 7417  -0.642   3.902   7.059 -0.0779 -0.2967  0.2391
   80SLPC  H11R 7418  -0.716   3.879   6.979 -1.3363 -0.6146  1.4586
   80SLPC  H11S 7419  -0.694   3.985   7.110 -0.6908  1.1590 -2.5409
   80SLPC  C212 7420  -0.625   3.781   7.144 -0.2309 -0.6617 -1.1803
   80SLPC  H12R 7421  -0.577   3.807   7.239 -0.0357 -0.0187 -1.4456
   80SLPC  C213 7422  -0.657   3.652   7.115 -0.4417  1.3935  0.2844
   80SLPC  H13R 7423  -0.632   3.583   7.197 -1.1865  3.0167  1.9483
   80SLPC  C214 7424  -0.730   3.582   7.001 -0.3865 -0.5332 -0.2597
   80SLPC  H14R 7425  -0.696   3.640   6.912  1.0182 -0.5205  0.2628
   80SLPC  H14S 7426  -0.841   3.577   7.005 -0.3914 -0.5563 -0.4136
   80SLPC  C215 7427  -0.698   3.430   6.999 -0.1109  0.6624  0.6533
   80SLPC  H15R 7428  -0.774   3.383   7.066  0.1280  0.0745  0.5149
   80SLPC  H15S 7429  -0.591   3.409   7.019  0.8214  2.9166 -1.4425
   80SLPC  C216 7430  -0.717   3.362   6.860  0.3039 -0.1412 -0.0608
   80SLPC  H16R 7431  -0.692   3.256   6.881 -0.8577  0.0767  2.9114
   80SLPC  H16S 7432  -0.644   3.412   6.793 -1.3240  1.6451 -0.5871
   80SLPC  C217 7433  -0.859   3.381   6.800 -0.0816 -0.2046 -0.4048
   80SLPC  H17R 7434  -0.855   3.487   6.768 -0.6729  0.8605  2.6936
   80SLPC  H17S 7435  -0.932   3.390   6.883  0.9252  2.4948  0.2848
   80SLPC  C218 7436  -0.884   3.280   6.695  0.4251  0.1374  0.3302
   80SLPC  H18R 7437  -0.983   3.295   6.647  0.5263 -0.1710  0.0188
   80SLPC  H18S 7438  -0.872   3.174   6.726 -0.6678 -0.3660 -0.8713
   80SLPC  H18T 7439  -0.813   3.304   6.612  0.5872  1.1921  0.7606
   80SLPC   C33 7440  -0.097   4.602   7.251  0.1813 -0.3002 -0.0886
   80SLPC   H3X 7441  -0.021   4.543   7.306 -0.1811  0.9051  1.7972
   80SLPC   H3Y 7442  -0.040   4.675   7.190 -1.3615  0.3738 -0.7914
   80SLPC   C34 7443  -0.150   4.513   7.137  0.2222  0.3191  0.1990
   80SLPC   H4X 7444  -0.200   4.420   7.171  0.1966 -0.0997 -0.9456
   80SLPC   H4Y 7445  -0.068   4.480   7.070  0.6582 -1.4339  1.5009
   80SLPC   C35 7446  -0.252   4.588   7.040 -0.3636 -0.2171  0.2061
   80SLPC   H5X 7447  -0.199   4.665   6.981  0.3599 -1.2807 -0.5526
   80SLPC   H5Y 7448  -0.338   4.641   7.087 -0.4856  1.4680 -1.7916
   80SLPC   C36 7449  -0.304   4.484   6.942  0.3504  0.2637  0.2520
   80SLPC   H6X 7450  -0.397   4.448   6.991 -0.0868  3.3226  1.8972
   80SLPC   H6Y 7451  -0.239   4.394   6.932 -1.2339 -0.8501 -0.5553
   80SLPC   C37 7452  -0.331   4.536   6.802 -0.4210 -0.1225 -1.1150
   80SLPC   H7X 7453  -0.236   4.585   6.773 -0.0881 -1.1211 -1.7429
   80SLPC   H7Y 7454  -0.399   4.624   6.799 -0.6321 -0.1757  0.9196
   80SLPC   C38 7455  -0.365   4.431   6.692 -1.5618  0.1543 -0.4350
   80SLPC   H8X 7456  -0.286   4.353   6.694 -2.1768 -0.6200 -2.7754
   80SLPC   H8Y 7457  -0.351   4.484   6.595  0.9531  0.7882  0.2197
   80SLPC   C39 7458  -0.507   4.384   6.704 -0.6017 -0.3704  0.1247
   80SLPC   H9X 7459  -0.576   4.471   6.707  1.7659  1.6232 -0.0341
   80SLPC   H9Y 7460  -0.519   4.342   6.807  2.3556 -4.2522 -0.8613
   80SLPC  C310 7461  -0.546   4.273   6.609  0.8964 -0.5260 -0.5825
   80SLPC  H10X 7462  -0.542   4.321   6.509  2.2726  0.2756 -0.1680
   80SLPC  H10Y 7463  -0.653   4.245   6.622  0.9206 -0.8250 -1.0087
   80SLPC  C311 7464  -0.467   4.144   6.621  0.3757  0.1219  0.0026
   80SLPC  H11X 7465  -0.431   4.133   6.725  0.4999  0.7014  0.0241
   80SLPC  H11Y 7466  -0.384   4.145   6.546 -0.6641 -0.4620 -1.2018
   80SLPC  C312 7467  -0.568   4.027   6.588 -0.7355 -0.0930 -0.2276
   80SLPC  H12X 7468  -0.654   4.019   6.657 -0.2120 -0.7076  0.3745
   80SLPC  H12Y 7469  -0.509   3.934   6.606 -0.8377 -0.0561  0.2993
   80SLPC  C313 7470  -0.610   4.013   6.437 -0.0406 -0.4186  0.1067
   80SLPC  H13X 7471  -0.514   4.009   6.383  0.7178 -3.1270  1.4686
   80SLPC  H13Y 7472  -0.666   4.105   6.410  0.6298  0.2450  0.9460
   80SLPC  C314 7473  -0.690   3.897   6.400 -0.2520 -0.5334 -0.5339
   80SLPC  H14X 7474  -0.792   3.908   6.443  0.5285  0.6040  1.1583
   80SLPC  H14Y 7475  -0.646   3.805   6.444  2.1394 -1.1846 -3.9106
   80SLPC  C315 7476  -0.689   3.883   6.245 -0.3343 -0.8060  0.0092
   80SLPC  H15X 7477  -0.584   3.901   6.211 -0.7152  1.4889 -0.0997
   80SLPC  H15Y 7478  -0.751   3.963   6.198  1.6013  0.5895 -0.3009
   80SLPC  C316 7479  -0.746   3.749   6.200  0.7100 -0.0397  0.0958
   80SLPC  H16X 7480  -0.691   3.663   6.244 -0.2111 -0.9604 -0.5107
   80SLPC  H16Y 7481  -0.726   3.752   6.091  2.9531 -1.8436  0.3821
   80SLPC  C317 7482  -0.891   3.726   6.225  0.1516 -0.5381 -0.3768
   80SLPC  H17X 7483  -0.939   3.817   6.183  1.7893  0.8892  0.7001
   80SLPC  H17Y 7484  -0.914   3.711   6.333  1.1091 -0.3491 -0.1419
   80SLPC  C318 7485  -0.938   3.596   6.162  0.1701 -0.7184  0.6965
   80SLPC  H18X 7486  -1.043   3.595   6.127  0.7394  0.1425 -1.1549
   80SLPC  H18Y 7487  -0.910   3.509   6.226  0.1551 -0.7742  0.6271
   80SLPC  H18Z 7488  -0.890   3.579   6.063 -1.5823  2.8074 -0.9233
   81SLPC     N 7489   1.400   6.123   1.809 -0.3990  0.3631  0.2605
   81SLPC   C13 7490   1.511   6.019   1.802 -0.4660 -0.0697 -0.6822
   81SLPC  H13A 7491   1.544   6.001   1.701  1.9728  2.3614 -0.4462
   81SLPC  H13B 7492   1.604   6.043   1.851 -0.0566 -0.6554 -1.1609
   81SLPC  H13C 7493   1.476   5.925   1.842 -1.4579  1.4406  2.3230
   81SLPC   C14 7494   1.365   6.146   1.952  0.3602  0.3487  0.8250
   81SLPC  H14A 7495   1.453   6.180   2.005  1.5563 -1.1868 -0.0784
   81SLPC  H14B 7496   1.291   6.224   1.960 -0.7994 -0.6998  0.5890
   81SLPC  H14C 7497   1.317   6.066   2.006  0.4255 -0.0904  0.2431
   81SLPC   C15 7498   1.280   6.075   1.728  0.4830 -0.7175 -1.0817
   81SLPC  H15A 7499   1.205   6.153   1.734  0.4023 -0.8951  0.4915
   81SLPC  H15B 7500   1.301   6.056   1.624  0.2547 -1.6621 -0.9661
   81SLPC  H15C 7501   1.238   5.980   1.757  2.9200 -1.9162 -1.2009
   81SLPC   C12 7502   1.446   6.245   1.736 -0.2014 -0.6069  0.2124
   81SLPC  H12A 7503   1.482   6.215   1.639  0.8823 -0.1773  0.4670
   81SLPC  H12B 7504   1.538   6.275   1.783  0.1682 -1.9068  0.3538
   81SLPC   C11 7505   1.360   6.376   1.725 -0.2718  0.8793 -0.0887
   81SLPC  H11A 7506   1.263   6.342   1.681 -0.7682  1.5224  0.4959
   81SLPC  H11B 7507   1.385   6.441   1.639 -2.4857  0.8697 -0.8129
   81SLPC     P 7508   1.439   6.542   1.915 -0.1324  0.2080 -0.1182
   81SLPC   O13 7509   1.572   6.531   1.848 -0.2296 -0.3147  0.0715
   81SLPC   O14 7510   1.381   6.678   1.931  0.3621  0.2435  0.3237
   81SLPC   O12 7511   1.327   6.450   1.840 -0.9819 -0.7052  0.0858
   81SLPC   O11 7512   1.437   6.470   2.053  0.2891  0.2418 -0.3668
   81SLPC    C1 7513   1.345   6.495   2.162 -0.8808 -0.3424  0.2490
   81SLPC    HA 7514   1.240   6.492   2.125 -0.5559  1.9306 -0.9892
   81SLPC    HB 7515   1.361   6.410   2.233  0.6536 -0.7614 -0.5588
   81SLPC    C2 7516   1.381   6.634   2.232  0.2004  0.1542  0.5237
   81SLPC    HS 7517   1.403   6.707   2.152  0.2549 -0.8380 -0.3852
   81SLPC   O21 7518   1.499   6.620   2.312  0.5386 -0.0184 -0.5522
   81SLPC   C21 7519   1.553   6.734   2.350 -0.0375 -0.1643 -0.0743
   81SLPC   O22 7520   1.516   6.847   2.320 -0.0804 -0.1441 -0.2662
   81SLPC   C22 7521   1.659   6.706   2.453 -0.1828 -0.0306 -0.2321
   81SLPC   H2R 7522   1.609   6.662   2.542 -1.5828 -1.2008 -1.5490
   81SLPC   H2S 7523   1.739   6.636   2.422  0.9220  0.4761  1.3690
   81SLPC    C3 7524   1.254   6.675   2.314  0.0074  0.0098  0.0744
   81SLPC    HX 7525   1.176   6.709   2.242 -0.1141 -0.8678 -0.2230
   81SLPC    HY 7526   1.286   6.756   2.383 -1.0628  0.9388 -0.4843
   81SLPC   O31 7527   1.192   6.569   2.394 -0.2077 -0.5189 -0.5872
   81SLPC   C31 7528   1.098   6.617   2.474  0.6054  0.6115  0.2767
   81SLPC   O32 7529   1.071   6.734   2.497  0.1885 -0.4342 -0.1374
   81SLPC   C32 7530   1.016   6.504   2.528  0.0705  0.6953 -0.0232
   81SLPC   H2X 7531   1.079   6.413   2.519 -0.0305  0.5349  0.8506
   81SLPC   H2Y 7532   0.920   6.500   2.473 -0.7961 -1.0431  1.4996
   81SLPC   C23 7533   1.719   6.844   2.495 -0.6228  0.3420 -0.7990
   81SLPC   H3R 7534   1.634   6.905   2.531 -0.5798  0.6201 -1.1646
   81SLPC   H3S 7535   1.767   6.907   2.417 -2.0610  1.2672 -0.9629
   81SLPC   C24 7536   1.811   6.834   2.617  0.3596  0.6595  0.4450
   81SLPC   H4R 7537   1.903   6.774   2.599 -2.3630 -3.1760 -2.2260
   81SLPC   H4S 7538   1.751   6.787   2.697 -0.3446  2.5967  1.1104
   81SLPC   C25 7539   1.855   6.976   2.659  0.0279  0.4584  0.7225
   81SLPC   H5R 7540   1.766   7.038   2.685  1.8630  2.7611  1.8409
   81SLPC   H5S 7541   1.899   7.005   2.562 -0.2120  0.2902  0.5616
   81SLPC   C26 7542   1.957   6.974   2.776 -0.3135 -0.2171  0.0675
   81SLPC   H6R 7543   2.004   7.074   2.786  0.8070 -0.3620 -2.7458
   81SLPC   H6S 7544   2.038   6.903   2.750 -1.1592 -1.1531 -0.0682
   81SLPC   C27 7545   1.893   6.942   2.909  0.5415 -0.8607 -0.3986
   81SLPC   H7R 7546   1.834   6.848   2.906 -1.2505  0.1514  1.0803
   81SLPC   H7S 7547   1.815   7.018   2.932  1.5196 -0.2663  1.0877
   81SLPC   C28 7548   2.006   6.941   3.018 -0.1075 -0.4452  0.4302
   81SLPC   H8R 7549   2.093   7.001   2.983  0.9135 -1.4582  1.1638
   81SLPC   H8S 7550   2.063   6.845   3.016  0.4626 -0.1073  0.4806
   81SLPC   C29 7551   1.956   6.991   3.150 -0.2285 -0.0556  0.0189
   81SLPC   H9R 7552   1.882   7.070   3.132 -1.9655 -1.9183 -1.6667
   81SLPC  C210 7553   1.982   6.929   3.268 -0.2198  0.0649 -0.6352
   81SLPC  H10R 7554   1.948   6.984   3.357  0.8591  1.6788 -1.1789
   81SLPC  C211 7555   2.074   6.817   3.302 -0.4292  0.4158 -0.1595
   81SLPC  H11R 7556   2.138   6.858   3.383 -3.9917  4.0988  1.1447
   81SLPC  H11S 7557   2.145   6.800   3.219 -0.5396 -1.1900  0.0443
   81SLPC  C212 7558   2.007   6.690   3.338  0.1884 -0.3054  1.3793
   81SLPC  H12R 7559   1.945   6.658   3.253  1.3139 -0.1804  0.4855
   81SLPC  C213 7560   2.007   6.617   3.447 -0.6452  0.2688  0.4103
   81SLPC  H13R 7561   1.955   6.520   3.456  1.7439 -1.3336 -1.6458
   81SLPC  C214 7562   2.066   6.654   3.584  0.9900  0.0495  0.3730
   81SLPC  H14R 7563   1.980   6.657   3.654 -1.1083 -0.2919 -2.0633
   81SLPC  H14S 7564   2.111   6.756   3.581  0.0393  0.5707 -4.1895
   81SLPC  C215 7565   2.172   6.551   3.644  0.1852  0.3134 -0.5307
   81SLPC  H15R 7566   2.266   6.543   3.585 -0.2706  0.0635 -1.2274
   81SLPC  H15S 7567   2.125   6.451   3.635  2.3817 -1.0153  1.4939
   81SLPC  C216 7568   2.196   6.588   3.788 -0.1636 -0.4916 -0.3697
   81SLPC  H16R 7569   2.099   6.616   3.835 -0.2609 -1.5529  0.0836
   81SLPC  H16S 7570   2.259   6.679   3.799  0.7179 -1.0046 -1.0254
   81SLPC  C217 7571   2.256   6.472   3.871 -0.5492 -0.3001  0.6095
   81SLPC  H17R 7572   2.352   6.441   3.825 -1.3832 -0.8515 -0.8314
   81SLPC  H17S 7573   2.203   6.374   3.863  1.0059 -1.1664  0.5484
   81SLPC  C218 7574   2.283   6.513   4.011  0.1285 -0.0876 -0.0663
   81SLPC  H18R 7575   2.326   6.424   4.062 -1.5420 -0.7002  0.3204
   81SLPC  H18S 7576   2.183   6.528   4.057 -0.7573 -2.9174 -0.8492
   81SLPC  H18T 7577   2.342   6.607   4.006 -0.9884  0.5983 -0.7519
   81SLPC   C33 7578   0.978   6.526   2.681  0.0028 -0.1822 -0.3223
   81SLPC   H3X 7579   0.917   6.435   2.702 -0.3847  0.1353 -0.0683
   81SLPC   H3Y 7580   0.921   6.619   2.700 -0.1496 -0.2070 -0.6609
   81SLPC   C34 7581   1.101   6.519   2.776 -0.8834  0.2455  0.8993
   81SLPC   H4X 7582   1.170   6.605   2.764  0.0063 -0.6216 -0.4315
   81SLPC   H4Y 7583   1.157   6.423   2.772  0.3103  0.7880  2.9745
   81SLPC   C35 7584   1.065   6.523   2.925 -0.3371 -0.2520  0.7674
   81SLPC   H5X 7585   0.988   6.447   2.948  0.7153 -1.1224  1.4925
   81SLPC   H5Y 7586   1.022   6.625   2.935  1.0952  0.6366 -1.4466
   81SLPC   C36 7587   1.184   6.531   3.026 -0.2365  0.1030 -0.0345
   81SLPC   H6X 7588   1.266   6.591   2.981  0.2610  1.2888  2.3392
   81SLPC   H6Y 7589   1.203   6.423   3.044  2.4446  0.5183 -0.0465
   81SLPC   C37 7590   1.151   6.598   3.154  0.0859 -0.8876 -0.7572
   81SLPC   H7X 7591   1.059   6.549   3.191 -0.6058  1.0742  0.2947
   81SLPC   H7Y 7592   1.122   6.702   3.129  0.5421 -0.7130 -0.5800
   81SLPC   C38 7593   1.265   6.587   3.258 -0.1985 -0.2802 -0.0319
   81SLPC   H8X 7594   1.361   6.628   3.220  1.5585 -2.9250  1.1747
   81SLPC   H8Y 7595   1.288   6.482   3.287 -0.5182 -0.4530 -0.3987
   81SLPC   C39 7596   1.231   6.664   3.388  0.1711  0.1493  0.0937
   81SLPC   H9X 7597   1.122   6.645   3.401  0.1116 -0.7972 -1.4742
   81SLPC   H9Y 7598   1.234   6.773   3.369 -2.8472  0.4882  1.1129
   81SLPC  C310 7599   1.324   6.615   3.502 -0.4467 -0.1896 -0.2361
   81SLPC  H10X 7600   1.432   6.619   3.478 -0.5866  0.5243 -0.7554
   81SLPC  H10Y 7601   1.296   6.508   3.515 -1.7972  0.1925  0.1975
   81SLPC  C311 7602   1.310   6.692   3.628  0.1503 -0.1968 -0.7466
   81SLPC  H11X 7603   1.209   6.701   3.672  0.6860  2.6026  0.1210
   81SLPC  H11Y 7604   1.336   6.799   3.612 -0.6755 -0.0727 -1.3074
   81SLPC  C312 7605   1.412   6.641   3.736  0.7820 -0.2306 -0.1036
   81SLPC  H12X 7606   1.512   6.630   3.689 -0.0725  0.1614 -2.1667
   81SLPC  H12Y 7607   1.389   6.539   3.774 -1.3673  0.5916  0.9971
   81SLPC  C313 7608   1.426   6.740   3.856 -0.1948 -0.3150  0.1373
   81SLPC  H13X 7609   1.328   6.793   3.865 -0.2317  0.0032 -1.7891
   81SLPC  H13Y 7610   1.489   6.827   3.827 -1.8873  0.6980 -0.6830
   81SLPC  C314 7611   1.474   6.675   3.991  0.6180  0.6176  0.2324
   81SLPC  H14X 7612   1.574   6.626   3.988 -0.3492 -1.4452 -0.7946
   81SLPC  H14Y 7613   1.395   6.600   4.011 -1.0495  0.8262 -4.2941
   81SLPC  C315 7614   1.481   6.770   4.117  0.4360  0.1869  0.1492
   81SLPC  H15X 7615   1.380   6.795   4.157  0.0032  1.1156 -1.4302
   81SLPC  H15Y 7616   1.513   6.868   4.074 -3.9026  1.4168 -0.7239
   81SLPC  C316 7617   1.546   6.716   4.243 -0.5308  0.5010 -0.5044
   81SLPC  H16X 7618   1.580   6.803   4.304  0.4201 -1.0030  1.2527
   81SLPC  H16Y 7619   1.644   6.664   4.232 -0.6972 -0.3428  1.5632
   81SLPC  C317 7620   1.455   6.640   4.330 -0.0729  0.2977  0.4723
   81SLPC  H17X 7621   1.428   6.539   4.291  2.4357  0.2935 -1.4911
   81SLPC  H17Y 7622   1.361   6.700   4.330 -1.5418 -1.8804  0.8101
   81SLPC  C318 7623   1.487   6.629   4.481  0.4576 -0.3226 -0.0244
   81SLPC  H18X 7624   1.579   6.569   4.499  2.0071  1.9753  0.0092
   81SLPC  H18Y 7625   1.403   6.585   4.540  0.7011  0.7196  1.1443
   81SLPC  H18Z 7626   1.516   6.729   4.519 -1.8443  0.2666  0.3323
   82SLPC     N 7627   5.189   1.813   3.016  0.2197 -1.1174 -0.4733
   82SLPC   C13 7628   5.331   1.795   2.990 -0.2376 -0.0891  0.8573
   82SLPC  H13A 7629   5.386   1.887   2.978 -0.3340  0.0470  1.4351
   82SLPC  H13B 7630   5.375   1.735   3.069  1.9373  0.8834  0.4433
   82SLPC  H13C 7631   5.354   1.740   2.899 -0.6652  1.8761 -0.4904
   82SLPC   C14 7632   5.173   1.877   3.153  0.3436 -0.1321  1.0428
   82SLPC  H14A 7633   5.221   1.974   3.157  1.7397 -0.7186 -0.4705
   82SLPC  H14B 7634   5.070   1.869   3.185 -0.0282 -3.8114 -0.6073
   82SLPC  H14C 7635   5.210   1.797   3.216  0.4311 -0.8237  0.1271
   82SLPC   C15 7636   5.132   1.674   3.017  0.8517 -0.4386 -0.6473
   82SLPC  H15A 7637   5.144   1.633   2.917 -0.8913 -1.1082 -0.6150
   82SLPC  H15B 7638   5.193   1.628   3.094 -0.2571 -1.5303 -0.3894
   82SLPC  H15C 7639   5.026   1.679   3.038  0.9171 -1.5270  0.0569
   82SLPC   C12 7640   5.113   1.899   2.921  0.1405 -0.2745 -0.5748
   82SLPC  H12A 7641   5.120   1.865   2.818  0.6660 -1.8205 -0.0446
   82SLPC  H12B 7642   5.161   1.996   2.922  1.1001 -0.7405  0.8350
   82SLPC   C11 7643   4.961   1.910   2.943  0.1449  0.1898 -0.4622
   82SLPC  H11A 7644   4.913   1.816   2.906  0.6299  0.5399 -2.0927
   82SLPC  H11B 7645   4.930   1.988   2.870 -1.3231  1.2146  1.1781
   82SLPC     P 7646   4.785   1.893   3.143  0.5577  0.0473 -0.2477
   82SLPC   O13 7647   4.773   1.946   3.285  0.1142 -0.0050  0.1121
   82SLPC   O14 7648   4.668   1.922   3.047  0.3073 -0.2054  0.7167
   82SLPC   O12 7649   4.921   1.941   3.074 -0.3583  0.0268  0.3266
   82SLPC   O11 7650   4.807   1.731   3.139  0.1263 -0.0447 -0.8851
   82SLPC    C1 7651   4.701   1.633   3.120  0.3023  0.8407 -0.0648
   82SLPC    HA 7652   4.601   1.677   3.136 -0.4717 -1.6187  2.6208
   82SLPC    HB 7653   4.703   1.606   3.012 -1.4406  1.4931 -0.2801
   82SLPC    C2 7654   4.724   1.517   3.220 -0.1769 -0.1676  0.0380
   82SLPC    HS 7655   4.637   1.454   3.191  0.8815 -1.4909 -0.3621
   82SLPC   O21 7656   4.719   1.558   3.359 -0.3765 -0.4089 -0.0330
   82SLPC   C21 7657   4.595   1.576   3.411 -0.2196  0.4764 -0.2362
   82SLPC   O22 7658   4.493   1.560   3.346 -0.0320 -0.6000  0.4652
   82SLPC   C22 7659   4.608   1.615   3.561 -0.7939  0.2247 -0.0790
   82SLPC   H2R 7660   4.715   1.626   3.589 -0.5764 -2.1332  0.2826
   82SLPC   H2S 7661   4.557   1.713   3.565 -0.8534  0.1589  1.7334
   82SLPC    C3 7662   4.856   1.433   3.186 -0.2826 -0.4513  0.3092
   82SLPC    HX 7663   4.933   1.513   3.182 -2.5460  1.8916  0.8472
   82SLPC    HY 7664   4.854   1.388   3.085 -0.0920 -0.5034  0.3290
   82SLPC   O31 7665   4.877   1.331   3.291  0.1432 -0.1031  0.3830
   82SLPC   C31 7666   4.987   1.358   3.366  0.3956 -0.3805 -0.6353
   82SLPC   O32 7667   5.068   1.448   3.351  0.1161 -0.0213  0.2426
   82SLPC   C32 7668   5.000   1.268   3.482 -0.1218  0.6181  0.0656
   82SLPC   H2X 7669   5.106   1.267   3.515  0.3993  0.6375 -1.5406
   82SLPC   H2Y 7670   4.983   1.162   3.453  1.0286 -0.0364  1.6005
   82SLPC   C23 7671   4.527   1.523   3.650  0.0926 -0.1947 -0.2935
   82SLPC   H3R 7672   4.572   1.422   3.666 -0.1166  0.0026  1.7512
   82SLPC   H3S 7673   4.428   1.517   3.600  0.1553 -1.4603 -0.2904
   82SLPC   C24 7674   4.501   1.576   3.795  0.2621  0.4337 -0.8010
   82SLPC   H4R 7675   4.474   1.683   3.785 -3.0267 -0.3551 -1.3851
   82SLPC   H4S 7676   4.603   1.574   3.839  0.1104 -0.1888 -0.4610
   82SLPC   C25 7677   4.394   1.502   3.867 -0.0018 -0.0459 -0.7141
   82SLPC   H5R 7678   4.418   1.393   3.874 -1.5932 -0.3916 -0.2111
   82SLPC   H5S 7679   4.293   1.525   3.827  0.2536  2.3612 -0.0963
   82SLPC   C26 7680   4.384   1.537   4.021  0.2135  0.1421 -0.4948
   82SLPC   H6R 7681   4.372   1.643   4.051  0.7717 -0.1075  0.6925
   82SLPC   H6S 7682   4.483   1.513   4.067 -0.1003 -1.6812 -0.6773
   82SLPC   C27 7683   4.271   1.456   4.090  0.0611  0.4067 -0.3442
   82SLPC   H7R 7684   4.298   1.349   4.090  1.5991  0.7675 -0.0829
   82SLPC   H7S 7685   4.175   1.482   4.041 -0.1059 -1.4728 -1.0902
   82SLPC   C28 7686   4.268   1.497   4.238 -0.1358 -0.0278 -0.4069
   82SLPC   H8R 7687   4.276   1.608   4.244  1.8059 -0.0519 -1.6254
   82SLPC   H8S 7688   4.361   1.462   4.289  0.1032  1.2010  0.0479
   82SLPC   C29 7689   4.140   1.444   4.309  0.0959 -0.5354 -0.0664
   82SLPC   H9R 7690   4.051   1.498   4.276  1.0627  1.4154  0.3570
   82SLPC  C210 7691   4.142   1.354   4.411  0.3080 -0.8678 -0.8803
   82SLPC  H10R 7692   4.047   1.316   4.452  0.2264  0.9025  0.7167
   82SLPC  C211 7693   4.267   1.284   4.472  0.1579  0.3580 -0.0651
   82SLPC  H11R 7694   4.332   1.251   4.389  0.8189  1.0161  0.1748
   82SLPC  H11S 7695   4.232   1.190   4.519 -0.1908 -0.6073 -2.1516
   82SLPC  C212 7696   4.346   1.369   4.568 -0.0692 -0.2586  0.2435
   82SLPC  H12R 7697   4.352   1.473   4.533  2.1834  0.1487  1.6487
   82SLPC  C213 7698   4.406   1.338   4.686 -1.2516 -0.0839 -0.4416
   82SLPC  H13R 7699   4.461   1.423   4.731 -1.4634 -0.3484  0.3437
   82SLPC  C214 7700   4.401   1.211   4.766 -0.1479  0.0100  0.6992
   82SLPC  H14R 7701   4.500   1.170   4.792 -0.0039 -1.5965 -2.0233
   82SLPC  H14S 7702   4.338   1.135   4.716 -1.1961  1.9901 -1.1881
   82SLPC  C215 7703   4.335   1.232   4.903  0.3019 -0.6512 -0.0330
   82SLPC  H15R 7704   4.312   1.128   4.937 -0.4067  0.0966  1.8825
   82SLPC  H15S 7705   4.235   1.274   4.884  0.6006 -1.0200 -3.0008
   82SLPC  C216 7706   4.408   1.308   5.014  0.5378 -0.3005  0.7284
   82SLPC  H16R 7707   4.432   1.411   4.980  0.4158 -0.7698 -0.8338
   82SLPC  H16S 7708   4.503   1.256   5.041  0.6916 -0.1477  0.4867
   82SLPC  C217 7709   4.311   1.310   5.137 -0.2743 -0.0071 -0.0104
   82SLPC  H17R 7710   4.331   1.209   5.180 -0.3025  0.2886  0.7158
   82SLPC  H17S 7711   4.207   1.318   5.099  0.2497 -0.8508 -1.6953
   82SLPC  C218 7712   4.344   1.418   5.233  0.5275  0.3546  0.1750
   82SLPC  H18R 7713   4.451   1.416   5.262  0.7589  2.3746 -0.3959
   82SLPC  H18S 7714   4.297   1.401   5.332 -0.4211  2.7142  0.1913
   82SLPC  H18T 7715   4.321   1.520   5.196 -0.5569  0.6130  1.4771
   82SLPC   C33 7716   4.902   1.315   3.592 -0.3871  0.3051 -0.1756
   82SLPC   H3X 7717   4.801   1.331   3.549 -0.8867 -1.4556  0.2987
   82SLPC   H3Y 7718   4.944   1.412   3.628 -0.8943  0.0962  1.0050
   82SLPC   C34 7719   4.890   1.216   3.708 -0.5788 -0.1179  0.4313
   82SLPC   H4X 7720   4.850   1.118   3.676 -0.3478  0.0813 -0.4775
   82SLPC   H4Y 7721   4.818   1.254   3.784  0.8240  0.8933  1.2927
   82SLPC   C35 7722   5.029   1.189   3.775 -0.1666  0.4463  0.3357
   82SLPC   H5X 7723   5.092   1.280   3.764 -0.1014  0.3284 -0.2513
   82SLPC   H5Y 7724   5.083   1.102   3.733 -3.6594 -1.4382 -0.6397
   82SLPC   C36 7725   5.012   1.158   3.924  0.4650 -0.3037  0.1537
   82SLPC   H6X 7726   4.979   1.054   3.948  0.4733 -0.1437  0.8985
   82SLPC   H6Y 7727   4.940   1.234   3.962  0.8890  0.0062  0.3541
   82SLPC   C37 7728   5.149   1.169   4.000 -0.0959  0.2330 -0.5904
   82SLPC   H7X 7729   5.192   1.270   3.981  1.3282  0.0750  1.4169
   82SLPC   H7Y 7730   5.211   1.081   3.973 -1.8763 -1.1118 -0.4746
   82SLPC   C38 7731   5.128   1.141   4.150  0.0957 -0.9798 -1.1555
   82SLPC   H8X 7732   5.115   1.031   4.156 -1.6030 -0.7905 -1.0016
   82SLPC   H8Y 7733   5.044   1.202   4.191  1.4650 -0.3209  0.8756
   82SLPC   C39 7734   5.244   1.166   4.251  0.2302 -0.1666  0.2359
   82SLPC   H9X 7735   5.269   1.274   4.243  3.9726 -0.8390  1.0396
   82SLPC   H9Y 7736   5.329   1.095   4.236  0.3358  0.4118 -2.6152
   82SLPC  C310 7737   5.187   1.144   4.396  0.1711  0.4591 -0.2478
   82SLPC  H10X 7738   5.133   1.048   4.402 -1.8397  1.3483 -2.3839
   82SLPC  H10Y 7739   5.119   1.229   4.420  1.9412  1.4542  1.5321
   82SLPC  C311 7740   5.297   1.134   4.502  0.3426  0.0698  0.0131
   82SLPC  H11X 7741   5.347   1.232   4.521 -0.7099  1.0887 -2.0773
   82SLPC  H11Y 7742   5.376   1.063   4.472 -0.4827  0.0736 -2.3846
   82SLPC  C312 7743   5.226   1.096   4.634 -0.1723 -0.8746  0.3440
   82SLPC  H12X 7744   5.179   0.995   4.624  1.0006 -1.4405  0.3405
   82SLPC  H12Y 7745   5.145   1.170   4.651 -0.1998 -1.0199  0.8431
   82SLPC  C313 7746   5.328   1.090   4.751  0.0000  0.5681  0.1463
   82SLPC  H13X 7747   5.416   1.025   4.733 -0.2553 -0.5798  2.5466
   82SLPC  H13Y 7748   5.277   1.032   4.831  1.3462 -0.0989  0.5579
   82SLPC  C314 7749   5.350   1.221   4.826 -0.2009 -0.3238 -0.6210
   82SLPC  H14X 7750   5.254   1.253   4.873  0.1513  0.8130 -0.6423
   82SLPC  H14Y 7751   5.381   1.298   4.753 -0.2218  0.1680 -0.1188
   82SLPC  C315 7752   5.457   1.204   4.938  0.8861  0.8043  0.4981
   82SLPC  H15X 7753   5.465   1.306   4.980  0.9650  0.6875  0.7693
   82SLPC  H15Y 7754   5.554   1.186   4.888 -0.3570  1.3856 -2.2893
   82SLPC  C316 7755   5.435   1.105   5.048  0.8741 -0.1523  0.3332
   82SLPC  H16X 7756   5.435   1.001   5.011 -0.9603 -0.7690  1.9213
   82SLPC  H16Y 7757   5.330   1.114   5.083  0.4058 -2.8924 -0.1971
   82SLPC  C317 7758   5.529   1.115   5.164 -0.9220  0.5177 -0.4127
   82SLPC  H17X 7759   5.519   1.209   5.223  2.1089  0.9987 -0.5158
   82SLPC  H17Y 7760   5.634   1.111   5.128 -0.3684  1.6552  0.9668
   82SLPC  C318 7761   5.518   0.992   5.248  0.2895 -0.2483 -1.2605
   82SLPC  H18X 7762   5.598   0.979   5.324  0.0242  0.6861 -0.8010
   82SLPC  H18Y 7763   5.521   0.902   5.183  0.8168 -0.5027 -0.8941
   82SLPC  H18Z 7764   5.415   0.996   5.290  0.3778 -2.5416 -0.7203
   83SLPC     N 7765   6.224   1.544   2.643  0.1447 -0.1519  0.4619
   83SLPC   C13 7766   6.095   1.495   2.577 -0.4702  0.2996 -0.6773
   83SLPC  H13A 7767   6.021   1.455   2.645  1.1607 -1.3977  0.1711
   83SLPC  H13B 7768   6.045   1.574   2.523 -1.8273 -0.0985 -0.0510
   83SLPC  H13C 7769   6.116   1.418   2.504  1.1053  0.3205 -0.2750
   83SLPC   C14 7770   6.176   1.640   2.751  0.2067  0.1557  0.1486
   83SLPC  H14A 7771   6.264   1.684   2.796  1.8172 -2.5578 -0.0805
   83SLPC  H14B 7772   6.121   1.726   2.717 -0.1405 -0.1415 -0.0574
   83SLPC  H14C 7773   6.109   1.590   2.819  0.0615  1.3678  0.9233
   83SLPC   C15 7774   6.311   1.611   2.546  0.5099 -1.1838  0.2273
   83SLPC  H15A 7775   6.257   1.683   2.487  4.2628 -0.6928 -3.0282
   83SLPC  H15B 7776   6.402   1.659   2.580  1.3381 -1.2499 -1.7538
   83SLPC  H15C 7777   6.330   1.540   2.466  1.5513  0.1420 -0.7537
   83SLPC   C12 7778   6.284   1.420   2.704 -0.3936 -0.0207 -0.1085
   83SLPC  H12A 7779   6.321   1.362   2.621  4.2374  3.3099 -0.7838
   83SLPC  H12B 7780   6.208   1.376   2.767  0.2867  1.8247  2.1577
   83SLPC   C11 7781   6.406   1.435   2.800 -0.4812 -0.1267 -0.2158
   83SLPC  H11A 7782   6.427   1.345   2.862  1.9757  0.5761  0.0464
   83SLPC  H11B 7783   6.373   1.512   2.872 -0.4437 -0.4631  0.1651
   83SLPC     P 7784   6.616   1.372   2.660 -0.0652 -0.0564  0.3539
   83SLPC   O13 7785   6.526   1.271   2.595 -0.2114 -0.0248  0.2962
   83SLPC   O14 7786   6.718   1.441   2.579 -0.4350 -0.7645 -0.2320
   83SLPC   O12 7787   6.524   1.472   2.728 -0.7027  0.2953  0.2057
   83SLPC   O11 7788   6.686   1.295   2.775  0.1586  0.4862 -0.4263
   83SLPC    C1 7789   6.757   1.353   2.883 -0.6242  0.1964  0.2780
   83SLPC    HA 7790   6.862   1.371   2.853 -0.5086  0.1426  0.6385
   83SLPC    HB 7791   6.710   1.448   2.916 -0.2900  0.2142  0.7148
   83SLPC    C2 7792   6.767   1.260   3.009  0.1629  0.0335 -0.0097
   83SLPC    HS 7793   6.835   1.176   2.982 -0.4669 -1.3082  2.3061
   83SLPC   O21 7794   6.638   1.204   3.044  0.0205  0.2715 -0.0460
   83SLPC   C21 7795   6.580   1.109   2.984  0.0039 -1.1998  0.1768
   83SLPC   O22 7796   6.630   1.037   2.895 -0.1156  0.4462  0.6205
   83SLPC   C22 7797   6.438   1.076   3.041 -0.5708 -0.2259  0.1278
   83SLPC   H2R 7798   6.366   1.135   2.980  0.1160  2.3568  1.6356
   83SLPC   H2S 7799   6.425   0.967   3.026 -0.1350 -0.2294 -0.2450
   83SLPC    C3 7800   6.828   1.331   3.136 -0.4134 -0.4532 -0.0122
   83SLPC    HX 7801   6.758   1.416   3.149 -0.1568  0.1926 -2.3315
   83SLPC    HY 7802   6.924   1.375   3.101  0.3997 -2.1941 -0.0784
   83SLPC   O31 7803   6.848   1.243   3.253  0.1654 -0.2642  0.1585
   83SLPC   C31 7804   6.823   1.303   3.369 -0.3467  0.3938  0.7147
   83SLPC   O32 7805   6.774   1.416   3.379  0.5883 -0.0154 -0.0621
   83SLPC   C32 7806   6.889   1.230   3.479  0.8001  0.0146 -0.0636
   83SLPC   H2X 7807   6.994   1.210   3.445  1.0329  0.6556  0.2731
   83SLPC   H2Y 7808   6.842   1.129   3.482  0.9859 -0.0549  1.9037
   83SLPC   C23 7809   6.420   1.114   3.194  0.3126  0.7132  0.0499
   83SLPC   H3R 7810   6.316   1.082   3.217  0.7080  0.2890  1.3431
   83SLPC   H3S 7811   6.419   1.224   3.204 -2.1791  0.9012 -1.3684
   83SLPC   C24 7812   6.522   1.040   3.282  0.0106  0.2381 -0.5916
   83SLPC   H4R 7813   6.627   1.075   3.269  0.2995 -0.4557 -0.2310
   83SLPC   H4S 7814   6.529   0.935   3.245  0.4405  0.4275 -1.0559
   83SLPC   C25 7815   6.502   1.041   3.435  0.1478 -0.5702 -0.0941
   83SLPC   H5R 7816   6.514   1.146   3.469 -0.4104 -0.6132  0.2548
   83SLPC   H5S 7817   6.588   0.986   3.480  1.3785  1.3675  0.0317
   83SLPC   C26 7818   6.364   0.993   3.484  0.3980  0.2229 -0.2034
   83SLPC   H6R 7819   6.355   0.886   3.454 -3.0625  0.2234  0.4698
   83SLPC   H6S 7820   6.276   1.042   3.436  0.4335 -1.3941 -2.0290
   83SLPC   C27 7821   6.332   0.994   3.638 -0.9035  0.1416  0.4385
   83SLPC   H7R 7822   6.226   0.963   3.650 -1.6316  1.5129 -1.8890
   83SLPC   H7S 7823   6.343   1.096   3.682 -0.9145  0.7522 -0.9240
   83SLPC   C28 7824   6.411   0.891   3.724 -0.0223  0.1508 -0.6770
   83SLPC   H8R 7825   6.515   0.898   3.688 -0.1165 -0.7159 -1.1501
   83SLPC   H8S 7826   6.378   0.795   3.678  0.3776  1.0641 -2.9555
   83SLPC   C29 7827   6.371   0.889   3.873  0.4375  0.0826  0.2723
   83SLPC   H9R 7828   6.262   0.897   3.887  0.4323 -0.9422  0.9473
   83SLPC  C210 7829   6.452   0.863   3.975 -0.4069 -0.0672 -0.0520
   83SLPC  H10R 7830   6.413   0.859   4.078 -0.2290 -2.1870 -0.0279
   83SLPC  C211 7831   6.596   0.833   3.975 -0.1246 -0.2891 -0.2123
   83SLPC  H11R 7832   6.641   0.827   3.873  1.1284  0.7465  0.2567
   83SLPC  H11S 7833   6.596   0.726   4.007 -0.9369 -0.4145 -0.6157
   83SLPC  C212 7834   6.681   0.936   4.048 -0.0569 -0.0653 -0.2343
   83SLPC  H12R 7835   6.696   1.035   4.003  0.9174 -0.6084 -1.1357
   83SLPC  C213 7836   6.736   0.917   4.171  0.2305  0.6365  0.3471
   83SLPC  H13R 7837   6.793   0.995   4.224  1.8186 -0.3817  0.1950
   83SLPC  C214 7838   6.716   0.792   4.255  0.5723  0.6726 -0.4583
   83SLPC  H14R 7839   6.799   0.719   4.260  0.1686  0.2787  0.8327
   83SLPC  H14S 7840   6.628   0.741   4.211  2.0352 -1.1117 -1.4572
   83SLPC  C215 7841   6.688   0.834   4.406 -0.3238  0.2823 -0.8593
   83SLPC  H15R 7842   6.603   0.905   4.414  0.9850  1.8348 -0.0716
   83SLPC  H15S 7843   6.773   0.883   4.459 -0.1228 -3.0382  2.2529
   83SLPC  C216 7844   6.651   0.727   4.513 -0.7012 -0.4967 -0.0727
   83SLPC  H16R 7845   6.661   0.770   4.615 -0.7685  1.3042 -0.7896
   83SLPC  H16S 7846   6.715   0.636   4.503  1.3733  0.5560  2.4193
   83SLPC  C217 7847   6.508   0.675   4.492 -0.3549  0.6195  0.2874
   83SLPC  H17R 7848   6.498   0.663   4.382  1.6681 -1.0687  0.2329
   83SLPC  H17S 7849   6.424   0.747   4.510 -1.2946  0.2930 -2.3932
   83SLPC  C218 7850   6.487   0.536   4.559 -0.0563  0.1850  0.6324
   83SLPC  H18R 7851   6.495   0.540   4.670  1.2342 -1.6114  0.6464
   83SLPC  H18S 7852   6.553   0.455   4.519 -0.3510 -0.9481  2.3007
   83SLPC  H18T 7853   6.384   0.502   4.537  0.7353 -1.4397 -0.8954
   83SLPC   C33 7854   6.882   1.301   3.619  0.2365 -0.2682  0.4728
   83SLPC   H3X 7855   6.775   1.324   3.638 -0.1929 -0.9759 -0.9779
   83SLPC   H3Y 7856   6.944   1.391   3.602  0.2972 -0.3409  0.3161
   83SLPC   C34 7857   6.950   1.207   3.728  0.7544 -0.1211  0.9114
   83SLPC   H4X 7858   7.053   1.180   3.697  1.3684  0.0606  2.6726
   83SLPC   H4Y 7859   6.877   1.123   3.733 -0.5418  0.7457 -1.9261
   83SLPC   C35 7860   6.947   1.274   3.862  0.1097 -0.5293 -0.7293
   83SLPC   H5X 7861   6.848   1.305   3.900  0.2637  1.1923 -1.6161
   83SLPC   H5Y 7862   6.996   1.374   3.855 -1.6820  0.6112  1.6374
   83SLPC   C36 7863   7.018   1.187   3.970 -0.1534 -0.7075 -0.4099
   83SLPC   H6X 7864   7.118   1.158   3.930  2.2206  3.8488  1.4250
   83SLPC   H6Y 7865   6.962   1.092   3.984 -0.8868  0.0570  2.5558
   83SLPC   C37 7866   7.027   1.253   4.106  0.6214  0.5529  0.3936
   83SLPC   H7X 7867   6.927   1.294   4.133  0.9039  0.9880  0.8047
   83SLPC   H7Y 7868   7.110   1.327   4.110  1.8433 -0.7427 -0.1123
   83SLPC   C38 7869   7.073   1.159   4.216 -0.3235 -0.5709 -0.0211
   83SLPC   H8X 7870   7.184   1.154   4.217 -0.3429 -1.9597  2.0078
   83SLPC   H8Y 7871   7.040   1.055   4.191  1.0234 -0.8744 -0.6386
   83SLPC   C39 7872   7.018   1.204   4.354  0.5889 -0.5194 -0.0386
   83SLPC   H9X 7873   6.909   1.222   4.350  0.7682  0.7387  0.5923
   83SLPC   H9Y 7874   7.076   1.294   4.383 -0.0683 -0.5945  1.6022
   83SLPC  C310 7875   7.056   1.102   4.459  0.4814  0.7082 -0.7681
   83SLPC  H10X 7876   7.166   1.086   4.464  1.1253  4.3169 -0.6602
   83SLPC  H10Y 7877   7.006   1.005   4.442  1.1626  0.1732  0.1946
   83SLPC  C311 7878   7.015   1.147   4.600 -0.5129  0.9337 -0.7034
   83SLPC  H11X 7879   6.989   1.061   4.665 -2.8916  2.1434  0.0439
   83SLPC  H11Y 7880   6.932   1.220   4.598 -1.0175  0.4928  1.5225
   83SLPC  C312 7881   7.139   1.198   4.679 -0.6840  0.0424  0.1370
   83SLPC  H12X 7882   7.182   1.289   4.630  0.2411  0.4856  1.6937
   83SLPC  H12Y 7883   7.222   1.126   4.669 -1.1344 -0.3176 -1.1660
   83SLPC  C313 7884   7.106   1.209   4.832  0.8948  0.4484 -0.2351
   83SLPC  H13X 7885   7.073   1.109   4.868 -0.9547  0.9206 -0.5024
   83SLPC  H13Y 7886   7.015   1.272   4.840  1.4857  1.5558 -1.8120
   83SLPC  C314 7887   7.220   1.253   4.921 -0.3759 -0.0035 -0.4072
   83SLPC  H14X 7888   7.182   1.254   5.025  0.8911  0.8725  0.0671
   83SLPC  H14Y 7889   7.262   1.351   4.893 -0.7825  0.8952  1.9042
   83SLPC  C315 7890   7.339   1.153   4.919  0.1248  0.2099  0.7041
   83SLPC  H15X 7891   7.398   1.169   4.826 -0.6482  0.8061  0.3071
   83SLPC  H15Y 7892   7.310   1.046   4.917  3.8044 -0.9434  1.5921
   83SLPC  C316 7893   7.437   1.179   5.037 -0.1229 -0.1040 -0.5830
   83SLPC  H16X 7894   7.377   1.188   5.130 -1.0353 -1.7267 -0.9612
   83SLPC  H16Y 7895   7.501   1.269   5.024 -0.7187  0.2444 -1.1691
   83SLPC  C317 7896   7.528   1.062   5.072 -0.0739  0.2919 -0.6461
   83SLPC  H17X 7897   7.594   1.042   4.985 -0.5348  2.2944 -1.5156
   83SLPC  H17Y 7898   7.469   0.968   5.083  2.5313 -1.9933 -4.0693
   83SLPC  C318 7899   7.625   1.085   5.187  0.6907  0.6498  0.2899
   83SLPC  H18X 7900   7.576   1.099   5.286 -0.9668  1.6046 -0.6192
   83SLPC  H18Y 7901   7.684   1.179   5.180  0.4014  1.0530  2.5891
   83SLPC  H18Z 7902   7.687   0.993   5.186 -2.2465 -1.4767 -1.1924
   84SLPC     N 7903   5.878   5.200   2.978  0.1711  0.5233 -0.7897
   84SLPC   C13 7904   5.836   5.292   3.089  0.7943  0.4233 -0.6880
   84SLPC  H13A 7905   5.749   5.352   3.069 -1.1698 -2.7787 -2.4287
   84SLPC  H13B 7906   5.805   5.229   3.172 -1.6726  0.6735 -1.3508
   84SLPC  H13C 7907   5.924   5.343   3.125  1.1489 -0.7241  0.1308
   84SLPC   C14 7908   5.926   5.285   2.860 -0.4176 -0.3514 -0.0191
   84SLPC  H14A 7909   5.969   5.223   2.783  3.2867 -0.9428  2.2672
   84SLPC  H14B 7910   5.843   5.333   2.811 -0.0972  0.3136  0.0713
   84SLPC  H14C 7911   5.996   5.359   2.895  0.1208 -1.7766  2.1560
   84SLPC   C15 7912   5.765   5.110   2.938  0.1823  0.1037  0.1636
   84SLPC  H15A 7913   5.802   5.024   2.884 -0.2096 -0.0285  0.0955
   84SLPC  H15B 7914   5.716   5.070   3.026  2.6463 -2.6773  0.4268
   84SLPC  H15C 7915   5.694   5.167   2.880 -0.3859 -0.5846  0.1590
   84SLPC   C12 7916   5.999   5.112   3.024  0.5908  0.7478  0.2430
   84SLPC  H12A 7917   5.976   5.054   3.112 -0.2416 -0.9736 -1.0506
   84SLPC  H12B 7918   6.081   5.175   3.057 -0.0917  2.0075 -0.4223
   84SLPC   C11 7919   6.060   5.012   2.925 -0.2253 -0.0577  0.1092
   84SLPC  H11A 7920   6.136   5.075   2.873 -2.6239  1.0163 -2.3397
   84SLPC  H11B 7921   5.991   4.975   2.846 -0.2130 -0.2273  0.1792
   84SLPC     P 7922   6.092   4.814   3.101 -0.2192  0.4019  0.0385
   84SLPC   O13 7923   5.963   4.746   3.058 -0.1000  0.0840  0.0617
   84SLPC   O14 7924   6.205   4.720   3.128 -0.0095 -0.4412  0.0215
   84SLPC   O12 7925   6.137   4.910   2.992 -0.3525  0.0389  0.4493
   84SLPC   O11 7926   6.065   4.920   3.219 -0.1139  0.4274  0.0349
   84SLPC    C1 7927   6.178   5.016   3.245 -0.3983 -0.1341 -0.3381
   84SLPC    HA 7928   6.254   5.016   3.164  0.0049 -0.7897  0.0291
   84SLPC    HB 7929   6.129   5.115   3.252 -0.0113  0.1153 -1.1073
   84SLPC    C2 7930   6.243   4.974   3.378 -0.9576  0.0751  0.0354
   84SLPC    HS 7931   6.284   4.875   3.349 -1.4110 -0.6290  1.7172
   84SLPC   O21 7932   6.142   4.967   3.478  0.3978 -0.0135  0.6053
   84SLPC   C21 7933   6.166   4.881   3.582  0.6379 -0.2828 -0.0703
   84SLPC   O22 7934   6.265   4.814   3.591  0.1410 -0.4065  0.6782
   84SLPC   C22 7935   6.058   4.881   3.683  0.4185  0.0012  0.0360
   84SLPC   H2R 7936   5.964   4.848   3.633  0.2410 -2.9529  2.0809
   84SLPC   H2S 7937   6.068   4.806   3.764  0.4604  2.3770  2.4043
   84SLPC    C3 7938   6.357   5.077   3.404 -0.6947  0.4797 -0.8057
   84SLPC    HX 7939   6.296   5.163   3.439  0.4825  0.3234  1.8564
   84SLPC    HY 7940   6.402   5.093   3.304 -1.5384 -4.5211 -2.2501
   84SLPC   O31 7941   6.445   5.039   3.513 -0.1244  0.2319  0.0653
   84SLPC   C31 7942   6.523   4.931   3.479 -0.2452  0.3174  0.6449
   84SLPC   O32 7943   6.540   4.895   3.361 -0.6140  0.6676 -0.2720
   84SLPC   C32 7944   6.582   4.868   3.603  0.5183 -0.1257 -0.2833
   84SLPC   H2X 7945   6.497   4.839   3.668  1.0748 -0.4523  0.3101
   84SLPC   H2Y 7946   6.650   4.945   3.645  0.4944 -0.9903  1.4643
   84SLPC   C23 7947   6.055   5.025   3.739  0.3991 -0.2231  0.1778
   84SLPC   H3R 7948   5.977   5.033   3.817 -0.3408  1.1498 -0.6663
   84SLPC   H3S 7949   6.012   5.099   3.668  1.2600  0.8675  0.7446
   84SLPC   C24 7950   6.189   5.066   3.798  0.3104  0.2347 -0.3169
   84SLPC   H4R 7951   6.183   5.166   3.847  0.6860  0.3383 -0.4824
   84SLPC   H4S 7952   6.269   5.062   3.721 -0.6077 -1.8641 -1.2417
   84SLPC   C25 7953   6.234   4.975   3.913 -1.1843  0.2820 -0.1195
   84SLPC   H5R 7954   6.269   4.883   3.862  0.2415  0.7055  0.0402
   84SLPC   H5S 7955   6.147   4.948   3.977  0.3425 -1.5591  1.2839
   84SLPC   C26 7956   6.354   5.031   3.997  0.3092  0.7565 -0.4370
   84SLPC   H6R 7957   6.339   5.141   4.004  0.9495  0.8629 -0.6022
   84SLPC   H6S 7958   6.457   5.018   3.955  1.2376 -0.4615  2.0396
   84SLPC   C27 7959   6.362   4.972   4.141  0.2195  0.2400  0.9485
   84SLPC   H7R 7960   6.382   4.863   4.132 -0.3323  0.3525 -3.3348
   84SLPC   H7S 7961   6.262   4.994   4.184  0.3370 -0.6517  1.7130
   84SLPC   C28 7962   6.463   5.024   4.245  0.3912 -0.1424  0.1142
   84SLPC   H8R 7963   6.456   5.134   4.256 -0.3160  0.1556 -2.6588
   84SLPC   H8S 7964   6.559   5.014   4.189  0.3079  1.5426 -0.3611
   84SLPC   C29 7965   6.463   4.964   4.379 -0.2115  0.3673 -0.3934
   84SLPC   H9R 7966   6.362   4.945   4.416 -0.1719  0.9345  0.0239
   84SLPC  C210 7967   6.561   4.935   4.461  0.4854  0.1259  0.2455
   84SLPC  H10R 7968   6.538   4.892   4.559 -2.5812  2.8979  0.9278
   84SLPC  C211 7969   6.704   4.952   4.428 -0.9952  0.0224 -0.0263
   84SLPC  H11R 7970   6.734   5.052   4.466 -1.2659  0.6234 -1.3478
   84SLPC  H11S 7971   6.723   4.945   4.319 -2.4513  1.3028 -0.3849
   84SLPC  C212 7972   6.798   4.847   4.477  0.1382  0.4308 -0.3897
   84SLPC  H12R 7973   6.827   4.762   4.414  2.1167 -0.2922  1.3491
   84SLPC  C213 7974   6.859   4.855   4.597 -0.2750  0.3881  0.0997
   84SLPC  H13R 7975   6.933   4.779   4.625 -0.6452 -0.1687 -0.4068
   84SLPC  C214 7976   6.842   4.962   4.701  0.1737 -0.3310 -0.1717
   84SLPC  H14R 7977   6.733   4.974   4.718 -0.1390 -2.3334 -0.5447
   84SLPC  H14S 7978   6.886   5.060   4.670  2.2219 -0.0807  3.0192
   84SLPC  C215 7979   6.894   4.919   4.835 -0.1551  0.0387  0.5625
   84SLPC  H15R 7980   6.890   5.009   4.899 -1.0526  1.2178 -1.0837
   84SLPC  H15S 7981   7.001   4.890   4.824 -0.5065 -0.8088 -1.0422
   84SLPC  C216 7982   6.803   4.815   4.891  0.2764 -0.4219  0.0032
   84SLPC  H16R 7983   6.798   4.718   4.837 -1.7216  0.3185 -1.2397
   84SLPC  H16S 7984   6.700   4.856   4.892  0.2226 -0.5657  0.6923
   84SLPC  C217 7985   6.841   4.784   5.035 -0.4052 -0.4851 -0.4696
   84SLPC  H17R 7986   6.840   4.885   5.083  0.7682 -0.6379 -0.1040
   84SLPC  H17S 7987   6.946   4.754   5.055 -0.4963  0.7896  2.5965
   84SLPC  C218 7988   6.732   4.693   5.107 -0.0348 -0.3958  0.6753
   84SLPC  H18R 7989   6.757   4.691   5.216  2.5506 -1.1177  0.1547
   84SLPC  H18S 7990   6.734   4.591   5.065 -1.6950  0.1190 -0.7807
   84SLPC  H18T 7991   6.633   4.740   5.088  0.3961  1.0578  1.8439
   84SLPC   C33 7992   6.657   4.734   3.573 -0.0271 -0.5503 -0.6536
   84SLPC   H3X 7993   6.722   4.740   3.483  1.3091 -1.1641  0.2328
   84SLPC   H3Y 7994   6.576   4.659   3.559 -2.1188  0.8711  2.7439
   84SLPC   C34 7995   6.733   4.673   3.693  0.2756 -0.2828  0.1478
   84SLPC   H4X 7996   6.788   4.761   3.730  1.0861 -0.1993 -1.2002
   84SLPC   H4Y 7997   6.806   4.592   3.672  2.1191  1.0158  1.3102
   84SLPC   C35 7998   6.637   4.630   3.806  0.7294  0.4644 -0.6477
   84SLPC   H5X 7999   6.565   4.551   3.776  0.6197 -0.7170  2.3504
   84SLPC   H5Y 8000   6.575   4.717   3.837 -0.3167 -0.8931  1.2699
   84SLPC   C36 8001   6.711   4.569   3.927 -0.7399 -0.1139  0.0555
   84SLPC   H6X 8002   6.805   4.629   3.934 -0.7237 -0.1563  0.2179
   84SLPC   H6Y 8003   6.762   4.476   3.893  0.1467 -0.1673  1.4455
   84SLPC   C37 8004   6.631   4.542   4.052  0.5777 -0.4288  1.1110
   84SLPC   H7X 8005   6.567   4.453   4.035  1.9435 -1.4008  0.8760
   84SLPC   H7Y 8006   6.560   4.619   4.089  1.5851 -0.6753  3.7387
   84SLPC   C38 8007   6.716   4.506   4.172  0.3017 -0.1462 -0.4639
   84SLPC   H8X 8008   6.762   4.596   4.218  0.9420 -0.2510 -0.8922
   84SLPC   H8Y 8009   6.796   4.434   4.146 -1.8020 -3.8183  2.3467
   84SLPC   C39 8010   6.630   4.448   4.284  0.1740 -0.3039 -0.9339
   84SLPC   H9X 8011   6.692   4.395   4.360  0.4503  1.9122  0.4875
   84SLPC   H9Y 8012   6.554   4.376   4.248  0.8980 -1.2394 -0.6428
   84SLPC  C310 8013   6.558   4.568   4.358 -0.6078  0.2636 -0.0192
   84SLPC  H10X 8014   6.521   4.643   4.286 -0.9602 -1.8714 -2.1869
   84SLPC  H10Y 8015   6.634   4.620   4.420 -0.5999 -0.6692  0.7759
   84SLPC  C311 8016   6.463   4.531   4.460 -0.2272  0.3182  0.3297
   84SLPC  H11X 8017   6.408   4.450   4.408 -0.4472  0.3669  0.4887
   84SLPC  H11Y 8018   6.387   4.608   4.484  0.2436  1.1246 -0.6990
   84SLPC  C312 8019   6.527   4.472   4.586  0.2164  0.6930 -0.4690
   84SLPC  H12X 8020   6.590   4.538   4.650 -1.0693 -0.0044  1.6410
   84SLPC  H12Y 8021   6.602   4.399   4.548 -1.0749 -1.3814  0.7500
   84SLPC  C313 8022   6.429   4.392   4.666 -0.0659  0.2332  0.4734
   84SLPC  H13X 8023   6.378   4.321   4.597 -1.4679 -0.1548  1.8444
   84SLPC  H13Y 8024   6.350   4.464   4.698 -0.7111 -0.5270  0.6092
   84SLPC  C314 8025   6.487   4.333   4.794 -0.2305 -0.0595 -0.2073
   84SLPC  H14X 8026   6.517   4.411   4.866 -1.1924 -0.1514  0.3133
   84SLPC  H14Y 8027   6.572   4.271   4.759  0.7374  2.0162 -1.7381
   84SLPC  C315 8028   6.367   4.246   4.859 -0.4632 -0.5967 -0.3463
   84SLPC  H15X 8029   6.320   4.176   4.787 -1.1439 -0.0908 -0.4061
   84SLPC  H15Y 8030   6.285   4.315   4.887 -1.7022 -1.1891 -2.3055
   84SLPC  C316 8031   6.414   4.149   4.974 -0.2459 -0.4870 -0.1422
   84SLPC  H16X 8032   6.477   4.067   4.936  1.5725 -0.0582  1.7686
   84SLPC  H16Y 8033   6.319   4.097   5.001  0.4545 -1.1486  1.1405
   84SLPC  C317 8034   6.471   4.222   5.093 -0.7715 -0.0783 -0.1994
   84SLPC  H17X 8035   6.410   4.312   5.113 -0.1369  0.0022  1.5692
   84SLPC  H17Y 8036   6.571   4.254   5.055 -0.9083  1.9258  0.9962
   84SLPC  C318 8037   6.495   4.137   5.217  0.2272  0.3351  0.1990
   84SLPC  H18X 8038   6.552   4.187   5.297 -2.7076  1.8824  1.4996
   84SLPC  H18Y 8039   6.544   4.043   5.185 -1.5567 -1.0811  1.3971
   84SLPC  H18Z 8040   6.393   4.112   5.254  0.8948 -2.8718  0.1956
   85SLPC     N 8041   3.112   4.903   2.707 -0.7324 -0.8062  0.3838
   85SLPC   C13 8042   3.036   4.822   2.812 -0.1989  0.2782  0.4631
   85SLPC  H13A 8043   2.932   4.852   2.811  0.1161  1.3991  0.1881
   85SLPC  H13B 8044   3.068   4.719   2.810 -0.1449  0.3044 -0.0152
   85SLPC  H13C 8045   3.071   4.852   2.910 -2.4935  0.4079  1.3265
   85SLPC   C14 8046   3.064   4.854   2.576 -0.3813 -0.0253 -0.2005
   85SLPC  H14A 8047   3.108   4.907   2.493  0.2169 -0.1651  0.0204
   85SLPC  H14B 8048   3.085   4.750   2.555  0.9177  0.4385 -1.3586
   85SLPC  H14C 8049   2.958   4.862   2.557 -0.6078 -0.9395  0.5601
   85SLPC   C15 8050   3.261   4.882   2.721 -0.1511 -0.1779 -0.1658
   85SLPC  H15A 8051   3.293   4.931   2.812 -0.0387  1.8222 -1.2243
   85SLPC  H15B 8052   3.296   4.780   2.730  1.1851  0.3754  1.5229
   85SLPC  H15C 8053   3.316   4.930   2.640 -1.7306 -0.6060 -1.5416
   85SLPC   C12 8054   3.077   5.047   2.719  0.3250  0.1436  0.1705
   85SLPC  H12A 8055   2.969   5.054   2.727  0.1342 -1.0340 -0.9390
   85SLPC  H12B 8056   3.098   5.082   2.619  2.7834 -2.7547 -0.4760
   85SLPC   C11 8057   3.144   5.135   2.823 -0.4567  0.7227 -0.7431
   85SLPC  H11A 8058   3.100   5.237   2.820 -0.7759  0.6672  0.9949
   85SLPC  H11B 8059   3.253   5.151   2.807  0.0859 -0.5330  1.2722
   85SLPC     P 8060   3.000   5.117   3.032  0.1563  0.1491 -0.2264
   85SLPC   O13 8061   2.887   5.094   2.939  0.5117  0.4497  0.1998
   85SLPC   O14 8062   3.015   5.036   3.157 -0.1093 -0.8910 -0.8698
   85SLPC   O12 8063   3.132   5.080   2.956 -0.3796 -0.1258  0.0176
   85SLPC   O11 8064   3.012   5.267   3.071 -0.1684 -0.7424  0.8966
   85SLPC    C1 8065   3.133   5.323   3.124  0.8233 -0.7894  0.2821
   85SLPC    HA 8066   3.219   5.253   3.120  0.9455 -0.7138  1.3453
   85SLPC    HB 8067   3.155   5.410   3.059  1.5032 -2.2813 -1.5615
   85SLPC    C2 8068   3.135   5.373   3.271  0.0278  0.6517  0.6090
   85SLPC    HS 8069   3.121   5.289   3.343 -1.3736  0.6419  0.3401
   85SLPC   O21 8070   3.031   5.466   3.287 -0.1070 -0.3736 -0.8712
   85SLPC   C21 8071   2.980   5.472   3.406  1.2675  0.0951 -0.4722
   85SLPC   O22 8072   2.981   5.384   3.491 -0.7004 -0.0570  0.1883
   85SLPC   C22 8073   2.888   5.594   3.422  0.0628 -0.0136 -0.0185
   85SLPC   H2R 8074   2.944   5.670   3.362  0.8119 -0.9290 -0.5219
   85SLPC   H2S 8075   2.788   5.569   3.381 -0.4097  1.9450 -0.1559
   85SLPC    C3 8076   3.274   5.429   3.305  0.7191  0.2241  0.6022
   85SLPC    HX 8077   3.306   5.503   3.229 -0.6800  0.4777  0.2237
   85SLPC    HY 8078   3.344   5.343   3.298 -0.8814 -1.2318  1.6426
   85SLPC   O31 8079   3.274   5.479   3.442  0.5197  0.2324  0.2566
   85SLPC   C31 8080   3.385   5.544   3.467  0.4478  0.1563 -0.2543
   85SLPC   O32 8081   3.475   5.569   3.388  0.2849  0.8178  0.2535
   85SLPC   C32 8082   3.383   5.582   3.612  0.1472 -0.2579  0.5094
   85SLPC   H2X 8083   3.393   5.486   3.667  0.2057  0.9585  2.7804
   85SLPC   H2Y 8084   3.284   5.626   3.639  0.5320  1.8100 -1.1852
   85SLPC   C23 8085   2.898   5.651   3.563  0.1110 -0.4980  0.7374
   85SLPC   H3R 8086   3.001   5.641   3.602 -0.3297  1.2823  2.4766
   85SLPC   H3S 8087   2.842   5.584   3.632  0.3341 -0.2916  1.1230
   85SLPC   C24 8088   2.871   5.803   3.565  0.2984 -0.5586 -0.2775
   85SLPC   H4R 8089   2.777   5.818   3.509 -0.5605 -1.2083  0.9303
   85SLPC   H4S 8090   2.956   5.856   3.518  1.0961 -0.2042  1.4659
   85SLPC   C25 8091   2.860   5.851   3.707 -0.6129  0.1710  0.5271
   85SLPC   H5R 8092   2.774   5.801   3.756 -0.0001  0.6816  2.1920
   85SLPC   H5S 8093   2.955   5.818   3.754  0.3734  1.4568 -0.4554
   85SLPC   C26 8094   2.838   6.001   3.724  0.1344  0.0606  0.7022
   85SLPC   H6R 8095   2.751   6.022   3.658  0.0836 -1.0114  0.4146
   85SLPC   H6S 8096   2.922   6.059   3.680 -0.5737  0.1107 -0.6443
   85SLPC   C27 8097   2.803   6.032   3.869  0.6674 -0.2285 -0.0596
   85SLPC   H7R 8098   2.875   5.974   3.931  0.0403 -0.7101  0.2359
   85SLPC   H7S 8099   2.700   5.998   3.895  0.2536  1.0973  0.1117
   85SLPC   C28 8100   2.820   6.177   3.896 -0.4220 -0.4978  0.0398
   85SLPC   H8R 8101   2.899   6.217   3.828  0.4714 -2.0629  0.0889
   85SLPC   H8S 8102   2.846   6.189   4.003 -2.1158 -1.2826  0.5756
   85SLPC   C29 8103   2.682   6.238   3.877 -0.2757 -0.0619 -0.5051
   85SLPC   H9R 8104   2.643   6.240   3.775 -1.8250  0.4459  0.0758
   85SLPC  C210 8105   2.614   6.307   3.967  0.4177  0.0688 -0.0972
   85SLPC  H10R 8106   2.512   6.339   3.943  0.7185 -0.4704 -2.2472
   85SLPC  C211 8107   2.665   6.351   4.106 -0.1852  0.3935 -0.3679
   85SLPC  H11R 8108   2.773   6.374   4.104  0.1202 -0.9365 -2.1117
   85SLPC  H11S 8109   2.637   6.273   4.179  0.5246  0.8279  0.3827
   85SLPC  C212 8110   2.593   6.486   4.138  0.2302 -0.6307 -0.5377
   85SLPC  H12R 8111   2.592   6.565   4.061  1.6983  0.9620  0.9740
   85SLPC  C213 8112   2.528   6.525   4.249  0.5776  0.2891  1.0436
   85SLPC  H13R 8113   2.481   6.624   4.256  2.0127  1.0325  0.4685
   85SLPC  C214 8114   2.500   6.439   4.370  0.0013  0.1859 -1.0565
   85SLPC  H14R 8115   2.511   6.331   4.346 -0.2824 -0.2646  0.7169
   85SLPC  H14S 8116   2.396   6.449   4.408  0.5184  0.5963  0.2861
   85SLPC  C215 8117   2.603   6.469   4.486  0.0223 -0.4420  0.2766
   85SLPC  H15R 8118   2.707   6.491   4.454  0.5066 -1.8611  0.8137
   85SLPC  H15S 8119   2.610   6.380   4.551  1.3834 -0.8966 -0.4506
   85SLPC  C216 8120   2.557   6.592   4.562 -0.2607 -0.0799 -0.3940
   85SLPC  H16R 8121   2.464   6.583   4.623  0.7920  0.5565  1.3482
   85SLPC  H16S 8122   2.535   6.668   4.484  0.6039 -1.5446 -2.1620
   85SLPC  C217 8123   2.665   6.645   4.659 -0.3189  0.2024  0.1395
   85SLPC  H17R 8124   2.757   6.646   4.596 -0.5611  0.6354 -0.2150
   85SLPC  H17S 8125   2.688   6.568   4.736  2.4067  0.2327 -0.5144
   85SLPC  C218 8126   2.639   6.780   4.721  0.5013 -0.2410  0.0864
   85SLPC  H18R 8127   2.543   6.785   4.777  1.1663  1.3778  1.1389
   85SLPC  H18S 8128   2.623   6.856   4.642  0.1001  0.5324  0.8993
   85SLPC  H18T 8129   2.728   6.813   4.778  1.0379 -0.8106 -0.4074
   85SLPC   C33 8130   3.496   5.673   3.651 -0.1212 -0.0485 -0.1481
   85SLPC   H3X 8131   3.579   5.636   3.587 -1.9138 -1.8181 -1.6108
   85SLPC   H3Y 8132   3.538   5.656   3.752  0.1627 -0.7252 -0.3722
   85SLPC   C34 8133   3.467   5.816   3.608  0.0175  0.6494  0.0162
   85SLPC   H4X 8134   3.406   5.805   3.516 -1.0146 -1.4279  0.8596
   85SLPC   H4Y 8135   3.561   5.870   3.586 -1.2763  2.5888 -0.9820
   85SLPC   C35 8136   3.383   5.900   3.711  0.1948  0.1715 -0.1511
   85SLPC   H5X 8137   3.453   5.960   3.772 -1.4880  0.6804  1.3907
   85SLPC   H5Y 8138   3.323   5.822   3.764 -2.0184  0.9142 -1.4499
   85SLPC   C36 8139   3.284   6.004   3.657  0.4262 -0.0250  0.3048
   85SLPC   H6X 8140   3.211   5.949   3.593 -0.8788  0.3004  1.4761
   85SLPC   H6Y 8141   3.337   6.078   3.593 -1.0491 -1.3425 -2.6677
   85SLPC   C37 8142   3.202   6.067   3.767 -0.1178 -0.3663 -1.2751
   85SLPC   H7X 8143   3.117   6.002   3.797 -0.2873  0.5649  0.3363
   85SLPC   H7Y 8144   3.170   6.162   3.721  2.3865  1.1606 -0.0807
   85SLPC   C38 8145   3.272   6.101   3.899 -1.0756  0.1716 -0.1895
   85SLPC   H8X 8146   3.361   6.164   3.883 -0.5219 -0.4560  0.3507
   85SLPC   H8Y 8147   3.316   6.010   3.946  2.4425  1.7006 -0.2201
   85SLPC   C39 8148   3.183   6.181   3.994  0.5903  0.3265  0.2611
   85SLPC   H9X 8149   3.092   6.118   4.001  0.5344  0.3487 -0.2146
   85SLPC   H9Y 8150   3.151   6.280   3.954  1.0641 -0.2379 -1.6063
   85SLPC  C310 8151   3.241   6.193   4.134 -0.0362 -0.3138 -0.3723
   85SLPC  H10X 8152   3.328   6.261   4.132 -0.4376  0.2116 -3.0400
   85SLPC  H10Y 8153   3.277   6.096   4.175  2.6328  1.1504  1.0331
   85SLPC  C311 8154   3.143   6.247   4.236 -0.9145 -0.0518 -0.6448
   85SLPC  H11X 8155   3.098   6.161   4.290  3.9012 -1.9285  0.9775
   85SLPC  H11Y 8156   3.062   6.302   4.185  0.0889  1.4448 -0.6701
   85SLPC  C312 8157   3.207   6.340   4.340  0.1238  0.0714  0.8039
   85SLPC  H12X 8158   3.230   6.443   4.305 -0.6418 -0.0898 -0.2243
   85SLPC  H12Y 8159   3.293   6.280   4.375 -0.3478 -1.5631 -0.6822
   85SLPC  C313 8160   3.111   6.366   4.451  0.4193  0.9539 -0.2497
   85SLPC  H13X 8161   3.092   6.272   4.507  2.2580  0.2648 -0.7458
   85SLPC  H13Y 8162   3.018   6.418   4.419 -0.2786 -1.2472 -1.9904
   85SLPC  C314 8163   3.166   6.444   4.576 -0.0422  0.9028  0.5369
   85SLPC  H14X 8164   3.206   6.541   4.541  1.0228  0.1736 -0.3238
   85SLPC  H14Y 8165   3.235   6.375   4.629 -1.9187 -0.4786  1.2903
   85SLPC  C315 8166   3.063   6.468   4.689 -0.3267  0.5490  0.3115
   85SLPC  H15X 8167   3.010   6.375   4.721 -0.7107  0.2032 -1.2763
   85SLPC  H15Y 8168   3.001   6.555   4.662  0.8989  1.9909  1.9081
   85SLPC  C316 8169   3.131   6.507   4.825 -0.2961  0.5665  0.1571
   85SLPC  H16X 8170   3.194   6.598   4.812  0.4772 -0.0830 -0.7386
   85SLPC  H16Y 8171   3.193   6.422   4.860 -0.9472  1.1712  3.0234
   85SLPC  C317 8172   3.040   6.542   4.942  0.7576  0.3518 -0.7493
   85SLPC  H17X 8173   2.984   6.637   4.931  2.3688  1.1147 -3.2579
   85SLPC  H17Y 8174   3.109   6.552   5.028 -0.6932 -0.6222  0.5899
   85SLPC  C318 8175   2.944   6.426   4.986  0.7365  0.3972 -0.6141
   85SLPC  H18X 8176   2.876   6.460   5.066 -0.9836 -1.2611 -1.2920
   85SLPC  H18Y 8177   3.009   6.340   5.016 -1.0817 -0.7347  0.2553
   85SLPC  H18Z 8178   2.877   6.392   4.904 -0.5871  0.6200  0.3539
   86SLPC     N 8179   4.569   6.323   3.165 -0.4488  0.6880  0.0617
   86SLPC   C13 8180   4.707   6.364   3.160  0.5219  0.1951  0.0311
   86SLPC  H13A 8181   4.717   6.450   3.224  0.0483  0.6675 -0.5244
   86SLPC  H13B 8182   4.778   6.293   3.200  0.9024  1.0761  0.9415
   86SLPC  H13C 8183   4.730   6.388   3.058  1.4491  2.1793  0.6672
   86SLPC   C14 8184   4.554   6.195   3.086 -0.4097  0.0267 -0.4249
   86SLPC  H14A 8185   4.596   6.187   2.987 -1.0508 -2.3603 -0.5606
   86SLPC  H14B 8186   4.603   6.113   3.136  0.4156 -0.7489 -2.4133
   86SLPC  H14C 8187   4.450   6.168   3.076 -1.1365  2.7520 -1.2104
   86SLPC   C15 8188   4.492   6.422   3.096  0.1787  0.6651 -0.3293
   86SLPC  H15A 8189   4.388   6.412   3.123 -0.1603  1.6719 -1.1718
   86SLPC  H15B 8190   4.507   6.522   3.133 -2.5722  0.4278  1.7183
   86SLPC  H15C 8191   4.501   6.417   2.988  0.4584 -1.9687 -0.2500
   86SLPC   C12 8192   4.539   6.315   3.313 -0.0917 -0.1605  0.3859
   86SLPC  H12A 8193   4.581   6.399   3.366  0.8950 -1.5923  2.0055
   86SLPC  H12B 8194   4.604   6.235   3.347  1.5163  0.3743 -1.2768
   86SLPC   C11 8195   4.387   6.296   3.353 -0.1438  0.0610  0.2308
   86SLPC  H11A 8196   4.391   6.268   3.460 -3.3841  1.0740  0.7009
   86SLPC  H11B 8197   4.332   6.221   3.293  1.6182 -0.6131 -0.6367
   86SLPC     P 8198   4.332   6.549   3.412 -0.1222 -0.2115 -0.2537
   86SLPC   O13 8199   4.402   6.633   3.306 -0.1600 -0.2664 -0.2188
   86SLPC   O14 8200   4.207   6.599   3.474  0.0377 -0.2812 -0.2520
   86SLPC   O12 8201   4.307   6.409   3.354  0.2253  0.0532 -0.1785
   86SLPC   O11 8202   4.438   6.520   3.531  0.9731 -0.2842  0.1948
   86SLPC    C1 8203   4.412   6.437   3.643  0.1019  0.4083  0.7022
   86SLPC    HA 8204   4.306   6.407   3.657 -0.3678  1.8059  0.3309
   86SLPC    HB 8205   4.472   6.344   3.636 -0.9069 -0.3960  2.2317
   86SLPC    C2 8206   4.459   6.502   3.778 -0.1896 -0.6838  0.3694
   86SLPC    HS 8207   4.569   6.517   3.773 -0.3209  0.2560  0.0856
   86SLPC   O21 8208   4.431   6.411   3.882 -0.2877 -0.0773  0.0571
   86SLPC   C21 8209   4.514   6.307   3.895  0.0040 -0.0628 -0.7796
   86SLPC   O22 8210   4.611   6.282   3.833 -0.2589  0.3106  0.0168
   86SLPC   C22 8211   4.471   6.246   4.028 -0.0849  0.4580  0.2444
   86SLPC   H2R 8212   4.361   6.249   4.044 -0.3068 -0.5965 -0.9241
   86SLPC   H2S 8213   4.493   6.138   4.011 -0.2385  0.1645  1.7791
   86SLPC    C3 8214   4.397   6.637   3.799  0.1994 -0.4579 -0.0555
   86SLPC    HX 8215   4.290   6.633   3.770 -0.3650  0.3695  1.7426
   86SLPC    HY 8216   4.445   6.707   3.728  1.0756 -2.1348 -1.1914
   86SLPC   O31 8217   4.421   6.683   3.929 -0.0617  0.5112  0.0802
   86SLPC   C31 8218   4.328   6.674   4.020  0.1994  0.6278  0.5576
   86SLPC   O32 8219   4.211   6.639   3.998 -0.2509  0.3145  0.5698
   86SLPC   C32 8220   4.392   6.707   4.154 -0.4340 -0.1059 -0.2601
   86SLPC   H2X 8221   4.414   6.815   4.147 -1.3732  0.3338  2.3890
   86SLPC   H2Y 8222   4.488   6.652   4.165 -0.1603  0.0475 -1.7107
   86SLPC   C23 8223   4.550   6.303   4.149  0.3214  0.2314 -0.7025
   86SLPC   H3R 8224   4.522   6.409   4.164 -0.5879 -0.4052  2.9527
   86SLPC   H3S 8225   4.659   6.291   4.132  0.2061 -4.6222  0.5169
   86SLPC   C24 8226   4.501   6.241   4.282 -0.0895 -0.0817 -0.3745
   86SLPC   H4R 8227   4.540   6.139   4.300 -0.8375 -0.1558  1.0118
   86SLPC   H4S 8228   4.391   6.229   4.268  0.2903  0.0645 -5.3911
   86SLPC   C25 8229   4.547   6.331   4.390 -0.6565 -0.9190  0.2449
   86SLPC   H5R 8230   4.523   6.438   4.369  1.0028 -0.4620  0.5465
   86SLPC   H5S 8231   4.657   6.320   4.385 -0.4432  0.0540  1.9973
   86SLPC   C26 8232   4.491   6.277   4.523 -0.1548 -0.0434  0.8342
   86SLPC   H6R 8233   4.493   6.166   4.525  2.4288 -0.1864 -1.7307
   86SLPC   H6S 8234   4.385   6.309   4.525 -0.5648 -0.7277 -2.8250
   86SLPC   C27 8235   4.568   6.322   4.655 -0.0020 -0.1138  0.2798
   86SLPC   H7R 8236   4.591   6.430   4.644  0.0962 -0.1829 -0.2084
   86SLPC   H7S 8237   4.660   6.260   4.654 -1.3025 -2.1738 -1.4295
   86SLPC   C28 8238   4.490   6.295   4.788  0.3011  0.0180  0.2805
   86SLPC   H8R 8239   4.558   6.331   4.867 -1.1687 -0.6755  1.9286
   86SLPC   H8S 8240   4.483   6.185   4.794  0.5504  0.0276  0.7508
   86SLPC   C29 8241   4.344   6.357   4.797 -0.3257  0.3036 -0.1936
   86SLPC   H9R 8242   4.282   6.327   4.711 -0.7878  1.3834 -0.2603
   86SLPC  C210 8243   4.290   6.438   4.902  0.0331  0.0352 -0.0246
   86SLPC  H10R 8244   4.191   6.485   4.890  0.5695  1.3322  0.4958
   86SLPC  C211 8245   4.358   6.477   5.031  0.3345 -0.1558  0.0968
   86SLPC  H11R 8246   4.434   6.397   5.044  1.4383  0.7957 -0.3590
   86SLPC  H11S 8247   4.282   6.463   5.111 -0.2491  1.2275 -0.1972
   86SLPC  C212 8248   4.438   6.602   5.050 -0.0284  0.2769  0.2073
   86SLPC  H12R 8249   4.492   6.645   4.965 -1.2577  1.2420 -0.1040
   86SLPC  C213 8250   4.449   6.666   5.167 -0.2782  1.0827 -0.5278
   86SLPC  H13R 8251   4.510   6.757   5.166 -1.0685  1.6404  0.2867
   86SLPC  C214 8252   4.407   6.612   5.301  0.0436 -0.1874 -0.5209
   86SLPC  H14R 8253   4.495   6.604   5.368 -1.4065 -1.4372  1.3684
   86SLPC  H14S 8254   4.369   6.508   5.289 -1.9882  0.0695  2.5188
   86SLPC  C215 8255   4.299   6.708   5.362 -0.3429 -0.7264  0.4900
   86SLPC  H15R 8256   4.204   6.706   5.304  0.2985 -0.4068 -0.5992
   86SLPC  H15S 8257   4.312   6.818   5.354 -1.5202 -0.7044 -1.9952
   86SLPC  C216 8258   4.261   6.698   5.516  0.3419 -0.0547  0.1558
   86SLPC  H16R 8259   4.352   6.684   5.578 -0.6497 -0.7227  1.5247
   86SLPC  H16S 8260   4.205   6.602   5.519  0.7836 -0.2900  1.1108
   86SLPC  C217 8261   4.169   6.800   5.575  0.2279  0.5926  0.2979
   86SLPC  H17R 8262   4.147   6.767   5.679  1.3989 -1.3008 -0.0216
   86SLPC  H17S 8263   4.069   6.802   5.527  0.4956  1.5783 -0.2534
   86SLPC  C218 8264   4.223   6.939   5.574 -0.6401 -0.3153  0.2081
   86SLPC  H18R 8265   4.258   6.962   5.471  3.1317 -0.8033  1.2434
   86SLPC  H18S 8266   4.309   6.954   5.643  0.2808  2.4487 -1.3943
   86SLPC  H18T 8267   4.146   7.015   5.598 -0.5602 -0.7938  2.1473
   86SLPC   C33 8268   4.298   6.681   4.274  0.1728 -0.2002  0.0422
   86SLPC   H3X 8269   4.292   6.572   4.298 -0.8267 -0.0861  0.3274
   86SLPC   H3Y 8270   4.200   6.730   4.256  1.9803  3.3147 -1.0628
   86SLPC   C34 8271   4.352   6.730   4.411 -0.5359 -0.2596  0.2721
   86SLPC   H4X 8272   4.371   6.839   4.400 -1.0324 -0.2222 -0.2966
   86SLPC   H4Y 8273   4.452   6.686   4.431 -0.8136 -3.0857 -3.5275
   86SLPC   C35 8274   4.241   6.717   4.523 -0.0247  0.8627  0.3958
   86SLPC   H5X 8275   4.240   6.613   4.561  1.2409 -0.0287 -1.8108
   86SLPC   H5Y 8276   4.143   6.743   4.476  0.8875  2.3783 -0.7888
   86SLPC   C36 8277   4.265   6.817   4.637  1.1369  0.2312 -0.3211
   86SLPC   H6X 8278   4.273   6.923   4.606 -0.5582  1.1167  2.0228
   86SLPC   H6Y 8279   4.350   6.779   4.697  0.2152  0.0230  0.8857
   86SLPC   C37 8280   4.151   6.821   4.736  0.2989 -0.3369 -0.1896
   86SLPC   H7X 8281   4.151   6.719   4.779  0.1054 -0.3872 -0.3108
   86SLPC   H7Y 8282   4.050   6.841   4.695 -0.7189 -0.5889  2.0271
   86SLPC   C38 8283   4.192   6.920   4.849 -0.2785  0.0999 -0.0152
   86SLPC   H8X 8284   4.203   7.019   4.801  0.9765  0.9615  1.9445
   86SLPC   H8Y 8285   4.289   6.883   4.887  0.3883  0.9518 -0.8514
   86SLPC   C39 8286   4.095   6.916   4.966 -0.3243  0.9751  0.0296
   86SLPC   H9X 8287   4.084   6.813   5.006 -2.1773  0.3478 -1.8758
   86SLPC   H9Y 8288   3.998   6.931   4.913 -0.2167 -0.0380 -0.4917
   86SLPC  C310 8289   4.111   7.012   5.083 -0.0616  0.2142  0.3892
   86SLPC  H10X 8290   4.213   7.027   5.126  0.4928 -0.5020 -0.6593
   86SLPC  H10Y 8291   4.052   6.967   5.166  0.0088 -1.2950 -0.3569
   86SLPC  C311 8292   4.069   7.155   5.040  0.1028  0.5352 -0.3006
   86SLPC  H11X 8293   3.963   7.153   5.007  0.0262  0.7090 -0.0700
   86SLPC  H11Y 8294   4.138   7.182   4.957  2.4320  0.5014  1.5421
   86SLPC  C312 8295   4.086   7.262   5.147  0.3134 -0.6766 -0.3802
   86SLPC  H12X 8296   4.039   7.352   5.102  0.0933 -0.6082 -0.0225
   86SLPC  H12Y 8297   4.194   7.278   5.168 -0.0409 -2.1274  3.3998
   86SLPC  C313 8298   4.005   7.245   5.274  0.2883  0.0605  0.4247
   86SLPC  H13X 8299   4.039   7.146   5.311  0.9708 -0.7778 -2.2378
   86SLPC  H13Y 8300   3.896   7.238   5.250  0.3073  1.5082 -0.1229
   86SLPC  C314 8301   4.027   7.351   5.383  0.2438  0.5524 -0.3848
   86SLPC  H14X 8302   4.135   7.351   5.408  0.5432 -1.2635 -1.5335
   86SLPC  H14Y 8303   3.978   7.317   5.477 -0.4439 -0.3740 -1.0654
   86SLPC  C315 8304   3.975   7.490   5.338  0.0559 -0.7097  0.2065
   86SLPC  H15X 8305   3.873   7.482   5.294 -0.5429  1.1611  1.1271
   86SLPC  H15Y 8306   4.048   7.543   5.273  0.1537 -0.5829  0.4186
   86SLPC  C316 8307   3.956   7.589   5.456 -0.2854  0.2767  0.0465
   86SLPC  H16X 8308   4.045   7.578   5.521 -1.0278 -0.2027  1.0112
   86SLPC  H16Y 8309   3.871   7.565   5.524  0.0918 -0.8722  0.1430
   86SLPC  C317 8310   3.937   7.733   5.412  0.3302 -0.0787 -0.5545
   86SLPC  H17X 8311   3.862   7.758   5.334 -1.5106  2.6503  1.8769
   86SLPC  H17Y 8312   4.028   7.777   5.366 -0.7425  0.9659 -1.7486
   86SLPC  C318 8313   3.908   7.831   5.531 -0.6172 -0.0325  0.6291
   86SLPC  H18X 8314   3.982   7.805   5.610 -0.1401 -1.0322 -0.1329
   86SLPC  H18Y 8315   3.807   7.816   5.575 -1.7172 -0.7017 -1.9238
   86SLPC  H18Z 8316   3.926   7.936   5.502  5.2025 -1.0499 -0.8318
   87SLPC     N 8317   4.025   6.251   3.075 -0.7228 -0.0404  0.8155
   87SLPC   C13 8318   3.978   6.271   2.931  0.9168 -0.5560  0.0735
   87SLPC  H13A 8319   4.034   6.210   2.861 -0.4772 -3.0354  0.9910
   87SLPC  H13B 8320   3.879   6.228   2.933  0.2112  0.9082 -1.5645
   87SLPC  H13C 8321   3.968   6.376   2.909 -1.1769 -0.7876 -0.2701
   87SLPC   C14 8322   3.934   6.350   3.148  0.3236 -0.0761  0.0970
   87SLPC  H14A 8323   3.949   6.445   3.100  1.0320  0.3946  1.2173
   87SLPC  H14B 8324   3.830   6.326   3.133  0.7978 -2.4200  0.1432
   87SLPC  H14C 8325   3.967   6.347   3.251 -1.5982  0.0884  0.7554
   87SLPC   C15 8326   4.168   6.297   3.094  0.7349 -0.2031 -0.6222
   87SLPC  H15A 8327   4.229   6.225   3.041 -0.4708  0.1101 -2.5425
   87SLPC  H15B 8328   4.179   6.392   3.045 -2.0070  0.5213 -0.0155
   87SLPC  H15C 8329   4.177   6.297   3.201 -0.8654 -1.7955 -0.4245
   87SLPC   C12 8330   3.996   6.109   3.120  0.0659  0.1575 -0.4470
   87SLPC  H12A 8331   3.895   6.080   3.093  0.3545  0.4138 -1.8802
   87SLPC  H12B 8332   3.996   6.102   3.228  0.0526 -1.2703 -0.5246
   87SLPC   C11 8333   4.083   5.999   3.072 -0.6635  0.1635  0.7370
   87SLPC  H11A 8334   4.090   6.017   2.963 -1.4224 -2.8532  0.1001
   87SLPC  H11B 8335   4.024   5.905   3.079 -0.2614 -0.2584 -1.0782
   87SLPC     P 8336   4.225   5.906   3.263  0.0476  0.2931 -0.3681
   87SLPC   O13 8337   4.137   5.784   3.258  0.6032  0.1084 -0.0963
   87SLPC   O14 8338   4.364   5.890   3.301 -0.2159  0.0845  0.4914
   87SLPC   O12 8339   4.216   5.993   3.127  0.3886  0.2272  0.2507
   87SLPC   O11 8340   4.171   6.017   3.364  0.3497  0.1031  0.3080
   87SLPC    C1 8341   4.119   5.987   3.498  0.2440 -0.1332 -0.7320
   87SLPC    HA 8342   4.184   5.915   3.552  1.5314  1.7484  0.3580
   87SLPC    HB 8343   4.114   6.084   3.553 -2.3535 -1.1207  0.9405
   87SLPC    C2 8344   3.975   5.940   3.486 -0.4600  0.1361  0.6932
   87SLPC    HS 8345   3.979   5.842   3.434 -1.6793  1.4269 -2.0696
   87SLPC   O21 8346   3.902   6.038   3.405  0.0726  0.9531  0.1626
   87SLPC   C21 8347   3.776   5.993   3.382 -0.1824  0.4124  0.2513
   87SLPC   O22 8348   3.742   5.875   3.385 -0.5819  0.4897  0.1612
   87SLPC   C22 8349   3.686   6.112   3.355 -0.4934 -0.8385 -0.0900
   87SLPC   H2R 8350   3.744   6.194   3.307 -1.9268 -0.1119 -0.6496
   87SLPC   H2S 8351   3.603   6.083   3.288 -0.9241 -1.4870  0.7130
   87SLPC    C3 8352   3.917   5.935   3.625  0.2750 -0.5180  0.3817
   87SLPC    HX 8353   3.994   5.900   3.697 -0.5081 -1.2352  0.8870
   87SLPC    HY 8354   3.830   5.868   3.632 -1.0826  0.9819 -1.1743
   87SLPC   O31 8355   3.876   6.070   3.668 -0.0333  0.3172  0.1884
   87SLPC   C31 8356   3.837   6.075   3.798 -0.4712 -0.5699 -0.5261
   87SLPC   O32 8357   3.828   5.978   3.866 -0.1198  0.1729 -0.3181
   87SLPC   C32 8358   3.821   6.217   3.848  0.3125 -0.4295 -0.4349
   87SLPC   H2X 8359   3.840   6.294   3.771  0.3270  1.7235  1.6072
   87SLPC   H2Y 8360   3.898   6.225   3.927  1.1813 -2.0401 -1.0646
   87SLPC   C23 8361   3.629   6.178   3.488  0.4921 -0.8470  0.4973
   87SLPC   H3R 8362   3.718   6.205   3.547  2.9412  0.9541 -3.5628
   87SLPC   H3S 8363   3.565   6.106   3.543 -1.9269  0.3672 -0.5432
   87SLPC   C24 8364   3.547   6.302   3.456 -0.3187 -0.0559 -0.0401
   87SLPC   H4R 8365   3.454   6.279   3.400 -0.5697  1.8428 -0.4909
   87SLPC   H4S 8366   3.612   6.372   3.399 -0.2477  0.8106  1.0699
   87SLPC   C25 8367   3.508   6.372   3.585 -0.3221 -0.4558  0.1167
   87SLPC   H5R 8368   3.596   6.432   3.616 -0.1282 -1.3377  1.3736
   87SLPC   H5S 8369   3.496   6.295   3.665 -0.7267 -0.7482 -0.2247
   87SLPC   C26 8370   3.386   6.465   3.593 -0.0326  0.1363  0.0364
   87SLPC   H6R 8371   3.293   6.411   3.564 -0.1921  0.1103  0.5731
   87SLPC   H6S 8372   3.392   6.546   3.518 -1.1503  1.4131  1.2677
   87SLPC   C27 8373   3.362   6.520   3.736 -0.3480 -0.1591 -0.0164
   87SLPC   H7R 8374   3.460   6.553   3.777 -0.7460  2.9180 -1.2690
   87SLPC   H7S 8375   3.307   6.449   3.801 -2.1461  0.3002 -0.9912
   87SLPC   C28 8376   3.267   6.641   3.736  0.1238 -0.5588  0.6696
   87SLPC   H8R 8377   3.162   6.614   3.711  0.3890  0.2951 -1.6263
   87SLPC   H8S 8378   3.318   6.708   3.663 -0.4339  1.5963  2.1488
   87SLPC   C29 8379   3.270   6.708   3.874  0.2382 -0.5983  0.0252
   87SLPC   H9R 8380   3.363   6.760   3.902 -0.6226  1.4281 -0.7092
   87SLPC  C210 8381   3.178   6.717   3.971 -0.3176  0.1403 -0.4088
   87SLPC  H10R 8382   3.202   6.778   4.059  2.2591 -0.4173 -0.6623
   87SLPC  C211 8383   3.038   6.665   3.968 -0.6678  0.0575  0.8284
   87SLPC  H11R 8384   3.011   6.622   3.869  2.9838  0.1352 -0.3314
   87SLPC  H11S 8385   2.974   6.755   3.975 -0.3585  0.5008 -1.3834
   87SLPC  C212 8386   3.007   6.581   4.089 -0.4485 -0.3377  0.6615
   87SLPC  H12R 8387   3.040   6.476   4.082 -2.0504 -0.7753 -1.3280
   87SLPC  C213 8388   2.931   6.617   4.195 -0.5555  0.4945 -0.8889
   87SLPC  H13R 8389   2.912   6.539   4.271  0.3032 -1.0618 -2.2038
   87SLPC  C214 8390   2.868   6.745   4.220  0.3228 -0.7227  0.1535
   87SLPC  H14R 8391   2.762   6.732   4.248 -0.1825  1.8226 -0.3233
   87SLPC  H14S 8392   2.852   6.789   4.119  1.1142 -1.6375 -0.3904
   87SLPC  C215 8393   2.938   6.832   4.326 -0.2026  0.9768  0.2063
   87SLPC  H15R 8394   3.044   6.854   4.300 -0.8550  3.0195 -0.9642
   87SLPC  H15S 8395   2.954   6.768   4.416 -2.1841  1.8577  1.2571
   87SLPC  C216 8396   2.871   6.968   4.366  0.1693  0.0137  0.4903
   87SLPC  H16R 8397   2.885   7.032   4.275 -0.1231 -0.5868  0.0194
   87SLPC  H16S 8398   2.927   7.003   4.455 -0.3235 -1.5500  1.4581
   87SLPC  C217 8399   2.725   6.946   4.405 -0.1794 -1.0218 -0.0946
   87SLPC  H17R 8400   2.718   6.848   4.456  0.8463 -0.1280  1.8598
   87SLPC  H17S 8401   2.671   6.943   4.308  0.5893  1.5728 -0.6931
   87SLPC  C218 8402   2.661   7.056   4.491 -0.1932 -0.2251 -0.8075
   87SLPC  H18R 8403   2.736   7.062   4.573  0.4724 -0.2464 -1.4024
   87SLPC  H18S 8404   2.565   7.028   4.538 -0.2626 -1.2296 -1.5156
   87SLPC  H18T 8405   2.651   7.143   4.424 -1.0448  0.4542  0.1724
   87SLPC   C33 8406   3.687   6.241   3.924  0.0200 -0.6238 -0.7131
   87SLPC   H3X 8407   3.681   6.161   4.001 -1.7741 -1.5850 -1.8013
   87SLPC   H3Y 8408   3.595   6.238   3.861 -0.4576 -2.3571  0.0276
   87SLPC   C34 8409   3.696   6.389   3.972 -1.2931  0.7546  0.5870
   87SLPC   H4X 8410   3.700   6.460   3.887  2.7832  1.2844  1.0180
   87SLPC   H4Y 8411   3.793   6.410   4.021 -1.0902 -1.2962  1.1329
   87SLPC   C35 8412   3.573   6.419   4.056  0.1481  0.2728 -0.0954
   87SLPC   H5X 8413   3.596   6.360   4.147  4.3144  0.2572 -0.9608
   87SLPC   H5Y 8414   3.482   6.388   4.000  1.6765 -0.6326 -2.1783
   87SLPC   C36 8415   3.566   6.561   4.107  0.2916  0.2820  0.4246
   87SLPC   H6X 8416   3.546   6.623   4.017  2.2471 -2.1351 -1.7873
   87SLPC   H6Y 8417   3.666   6.603   4.130  0.3778  0.3447 -0.0670
   87SLPC   C37 8418   3.458   6.585   4.219  0.2468 -0.5132  0.9252
   87SLPC   H7X 8419   3.476   6.509   4.298  0.1013 -0.6704  0.8090
   87SLPC   H7Y 8420   3.359   6.563   4.174  1.0870  1.5016 -2.2376
   87SLPC   C38 8421   3.454   6.728   4.270  0.9817 -0.2193  0.3772
   87SLPC   H8X 8422   3.420   6.781   4.178 -0.1969 -1.2470  0.1896
   87SLPC   H8Y 8423   3.552   6.775   4.292  0.5901  1.9986 -2.0795
   87SLPC   C39 8424   3.353   6.732   4.381 -0.0788 -0.3935 -0.8767
   87SLPC   H9X 8425   3.387   6.664   4.462 -1.7067 -0.0002  0.2007
   87SLPC   H9Y 8426   3.252   6.697   4.350 -0.6779  1.0267 -0.6162
   87SLPC  C310 8427   3.340   6.862   4.459  0.7497 -0.5369 -0.0341
   87SLPC  H10X 8428   3.306   6.944   4.392 -0.1885  0.2672  1.3769
   87SLPC  H10Y 8429   3.440   6.884   4.503  0.6239 -0.6671  0.3197
   87SLPC  C311 8430   3.250   6.836   4.576 -0.5530  0.5492  0.4358
   87SLPC  H11X 8431   3.294   6.768   4.653 -1.6273  0.0753  0.6469
   87SLPC  H11Y 8432   3.157   6.787   4.541  0.0422 -1.1895  1.1786
   87SLPC  C312 8433   3.206   6.966   4.653  0.1533  0.6201 -0.2139
   87SLPC  H12X 8434   3.137   7.010   4.578 -1.2447 -1.5227 -0.2677
   87SLPC  H12Y 8435   3.293   7.035   4.654  0.8044 -0.1486 -1.5093
   87SLPC  C313 8436   3.151   6.943   4.793 -0.8451 -0.1420  0.1213
   87SLPC  H13X 8437   3.240   6.928   4.858 -1.1875  1.2507  0.9512
   87SLPC  H13Y 8438   3.085   6.856   4.814 -0.8033  0.0615  1.1429
   87SLPC  C314 8439   3.086   7.073   4.851 -0.0953  0.1579 -0.3717
   87SLPC  H14X 8440   3.101   7.166   4.792  1.3101  0.3540  0.2550
   87SLPC  H14Y 8441   3.150   7.099   4.938  2.0385 -1.2082 -1.4510
   87SLPC  C315 8442   2.939   7.052   4.887  0.2674  0.0608  0.5368
   87SLPC  H15X 8443   2.910   6.945   4.893  1.2241 -0.1706  1.3686
   87SLPC  H15Y 8444   2.888   7.092   4.796 -1.2156 -0.9493  0.8826
   87SLPC  C316 8445   2.903   7.126   5.011  0.1915 -0.1600 -0.3434
   87SLPC  H16X 8446   2.954   7.224   5.006  0.5608 -0.3179  0.2351
   87SLPC  H16Y 8447   2.938   7.080   5.106 -1.2611 -0.9799 -0.1660
   87SLPC  C317 8448   2.753   7.145   5.006  0.6974  0.1609 -0.2064
   87SLPC  H17X 8449   2.697   7.050   4.989  1.1815 -0.3761  1.0316
   87SLPC  H17Y 8450   2.711   7.233   4.954 -0.6308 -0.6381 -0.5132
   87SLPC  C318 8451   2.707   7.173   5.155  0.2393 -0.8545 -0.2566
   87SLPC  H18X 8452   2.765   7.110   5.226 -0.2165 -2.8149 -1.5523
   87SLPC  H18Y 8453   2.598   7.149   5.161 -1.0096  3.6604 -0.5954
   87SLPC  H18Z 8454   2.721   7.282   5.176  0.8559 -0.4692 -2.4951
   88SLPC     N 8455   5.419   4.674   3.053  0.1502  0.2158 -0.2022
   88SLPC   C13 8456   5.301   4.579   3.084 -0.0728  0.4502 -0.8570
   88SLPC  H13A 8457   5.206   4.627   3.068 -1.0126 -1.0023  0.0656
   88SLPC  H13B 8458   5.304   4.488   3.026 -0.4571  0.1827 -0.4630
   88SLPC  H13C 8459   5.308   4.555   3.190  0.5145  0.7932 -0.8126
   88SLPC   C14 8460   5.385   4.805   3.112  0.1037  0.0622 -0.5102
   88SLPC  H14A 8461   5.457   4.878   3.079  1.7886 -1.0640  0.5320
   88SLPC  H14B 8462   5.287   4.842   3.084 -0.3888 -1.5392 -1.0308
   88SLPC  H14C 8463   5.384   4.804   3.220  1.2325  1.8217 -0.4459
   88SLPC   C15 8464   5.416   4.688   2.904 -0.1497  0.1437 -0.1716
   88SLPC  H15A 8465   5.482   4.762   2.862  1.1116 -1.2646 -0.7686
   88SLPC  H15B 8466   5.440   4.595   2.855 -0.3949 -0.0791  0.1242
   88SLPC  H15C 8467   5.310   4.705   2.889 -1.0647 -2.6791  2.0617
   88SLPC   C12 8468   5.546   4.618   3.112  0.2353  0.3399 -0.0589
   88SLPC  H12A 8469   5.629   4.678   3.076  0.9111  0.1227  1.0817
   88SLPC  H12B 8470   5.559   4.518   3.076  2.5123  1.0170 -1.3219
   88SLPC   C11 8471   5.540   4.625   3.270 -0.2052  0.0067 -0.4294
   88SLPC  H11A 8472   5.511   4.723   3.314 -5.3086 -1.9667  1.3106
   88SLPC  H11B 8473   5.643   4.602   3.305 -0.5200 -1.1461 -0.2001
   88SLPC     P 8474   5.495   4.420   3.425 -0.5418  0.4180  0.6647
   88SLPC   O13 8475   5.370   4.360   3.479  0.1106  0.5331 -0.3662
   88SLPC   O14 8476   5.583   4.322   3.356  0.1732  0.1227 -0.0143
   88SLPC   O12 8477   5.451   4.531   3.320  0.2365 -0.3381 -0.6305
   88SLPC   O11 8478   5.586   4.487   3.529 -0.5239 -0.0783 -0.5424
   88SLPC    C1 8479   5.524   4.578   3.620  0.6230  0.0649 -0.0080
   88SLPC    HA 8480   5.465   4.657   3.569 -1.4455 -0.6998  1.0436
   88SLPC    HB 8481   5.452   4.525   3.687  0.9423 -1.3679 -0.7602
   88SLPC    C2 8482   5.618   4.648   3.721 -0.1668 -0.1740  0.6639
   88SLPC    HS 8483   5.705   4.699   3.674 -0.8758  1.0557  0.6395
   88SLPC   O21 8484   5.654   4.543   3.814 -0.1171 -0.1811  0.5303
   88SLPC   C21 8485   5.781   4.506   3.819  0.0928 -0.5896 -0.8773
   88SLPC   O22 8486   5.875   4.551   3.752  0.9264  0.0420 -0.4831
   88SLPC   C22 8487   5.799   4.399   3.932  0.4502 -0.5572  0.9450
   88SLPC   H2R 8488   5.890   4.339   3.909  0.3634 -0.6304  0.7915
   88SLPC   H2S 8489   5.818   4.456   4.026 -2.4062  0.3752  1.0572
   88SLPC    C3 8490   5.537   4.753   3.794  0.2173 -0.3394 -0.5778
   88SLPC    HX 8491   5.444   4.699   3.820  0.7663 -1.7532 -1.4486
   88SLPC    HY 8492   5.494   4.834   3.732 -0.2148  0.4461  0.6945
   88SLPC   O31 8493   5.610   4.787   3.912  0.9068  0.8921  0.0733
   88SLPC   C31 8494   5.677   4.899   3.897 -0.6657 -0.9174 -0.0528
   88SLPC   O32 8495   5.687   4.970   3.799  0.8315 -0.1431 -0.0226
   88SLPC   C32 8496   5.742   4.930   4.026  0.9064 -0.0846 -0.4345
   88SLPC   H2X 8497   5.668   4.930   4.109  1.1111  1.9907 -0.1928
   88SLPC   H2Y 8498   5.787   5.032   4.023 -1.3877  1.1585  2.3614
   88SLPC   C23 8499   5.672   4.313   3.948 -0.0088 -0.4247  0.5021
   88SLPC   H3R 8500   5.644   4.256   3.857 -3.9355 -0.3889  1.5108
   88SLPC   H3S 8501   5.585   4.372   3.984  0.0334 -1.8066  3.1279
   88SLPC   C24 8502   5.712   4.216   4.066 -0.2805 -0.7006 -0.4132
   88SLPC   H4R 8503   5.771   4.272   4.141 -0.8239  0.4448 -0.8114
   88SLPC   H4S 8504   5.777   4.133   4.031 -0.5565 -0.7346 -0.8482
   88SLPC   C25 8505   5.598   4.148   4.141  0.8883 -0.3091  0.0467
   88SLPC   H5R 8506   5.652   4.082   4.212  1.7905 -1.7412 -1.8770
   88SLPC   H5S 8507   5.537   4.076   4.082 -1.5878  1.1523  0.6696
   88SLPC   C26 8508   5.519   4.257   4.218 -0.3064 -0.3328 -0.1488
   88SLPC   H6R 8509   5.446   4.313   4.157 -0.0597  1.5911  1.2451
   88SLPC   H6S 8510   5.590   4.326   4.268  0.0303  1.3792 -2.7583
   88SLPC   C27 8511   5.447   4.192   4.334 -0.2141 -0.3262 -0.3368
   88SLPC   H7R 8512   5.507   4.106   4.370 -1.1841 -1.2924 -0.9691
   88SLPC   H7S 8513   5.363   4.130   4.296  0.8493  0.0415 -3.6344
   88SLPC   C28 8514   5.424   4.294   4.454 -0.1974  0.1157 -0.0256
   88SLPC   H8R 8515   5.392   4.395   4.418  1.4513  0.7170  0.1307
   88SLPC   H8S 8516   5.527   4.310   4.492 -1.2508  1.3671  2.5316
   88SLPC   C29 8517   5.337   4.229   4.561  0.3984 -0.6877 -0.1139
   88SLPC   H9R 8518   5.229   4.229   4.541  0.1622  1.3503  0.9091
   88SLPC  C210 8519   5.378   4.194   4.682  0.1448  0.0743  0.3048
   88SLPC  H10R 8520   5.304   4.155   4.754 -0.7207  0.4519 -0.3638
   88SLPC  C211 8521   5.519   4.193   4.727  0.5224  0.1387 -0.2166
   88SLPC  H11R 8522   5.543   4.293   4.769 -0.3944  0.0031  0.6616
   88SLPC  H11S 8523   5.588   4.170   4.644  1.8294  1.0719  0.5820
   88SLPC  C212 8524   5.546   4.084   4.828  0.2836 -0.0896  0.4055
   88SLPC  H12R 8525   5.587   3.991   4.785  2.9543  0.7181  1.0291
   88SLPC  C213 8526   5.518   4.087   4.957  0.3790 -0.5233 -0.6179
   88SLPC  H13R 8527   5.540   4.004   5.025  0.0034 -0.1739 -0.0553
   88SLPC  C214 8528   5.475   4.214   5.032  0.0319  0.6088 -0.2970
   88SLPC  H14R 8529   5.385   4.186   5.091 -0.1229  1.4058 -0.1438
   88SLPC  H14S 8530   5.452   4.297   4.963 -0.8168  1.0343  0.4836
   88SLPC  C215 8531   5.591   4.266   5.121 -0.4480 -0.0511  0.3969
   88SLPC  H15R 8532   5.679   4.291   5.059 -2.1703  0.2053 -2.0956
   88SLPC  H15S 8533   5.630   4.174   5.170  0.5380 -0.8416 -1.7805
   88SLPC  C216 8534   5.569   4.384   5.222  0.7445 -0.1886  0.6067
   88SLPC  H16R 8535   5.651   4.403   5.295  0.3852 -0.0377  0.9801
   88SLPC  H16S 8536   5.480   4.354   5.281 -0.6539  1.0867 -0.7510
   88SLPC  C217 8537   5.555   4.518   5.154  0.6339 -0.8495  0.1259
   88SLPC  H17R 8538   5.467   4.520   5.087  0.7958  1.7704 -0.1286
   88SLPC  H17S 8539   5.637   4.530   5.079  0.1315 -0.8128 -0.4196
   88SLPC  C218 8540   5.556   4.644   5.243 -0.1297  0.3074  0.4960
   88SLPC  H18R 8541   5.657   4.663   5.286 -0.1429  4.1158 -0.7539
   88SLPC  H18S 8542   5.489   4.621   5.329 -1.3287  1.4961 -0.0687
   88SLPC  H18T 8543   5.511   4.733   5.193 -0.6987  0.4689  1.2776
   88SLPC   C33 8544   5.849   4.833   4.083  0.1484  0.5680 -0.2428
   88SLPC   H3X 8545   5.925   4.812   4.004 -1.7571 -2.3198 -1.5021
   88SLPC   H3Y 8546   5.799   4.736   4.103 -0.0149  1.2387  3.2655
   88SLPC   C34 8547   5.913   4.893   4.207  0.1140  0.7337  0.2933
   88SLPC   H4X 8548   5.833   4.936   4.270 -1.6223 -1.9053  0.0915
   88SLPC   H4Y 8549   5.978   4.980   4.188  2.1718 -0.9464 -0.8374
   88SLPC   C35 8550   5.994   4.792   4.288 -0.1000 -0.8375 -0.5109
   88SLPC   H5X 8551   6.083   4.751   4.235  0.6147  1.8523 -1.5340
   88SLPC   H5Y 8552   5.934   4.701   4.312 -0.3885 -0.5563 -0.1480
   88SLPC   C36 8553   6.054   4.865   4.407  0.0739 -0.6284 -0.6617
   88SLPC   H6X 8554   5.980   4.933   4.455  2.4252  1.7394 -0.1724
   88SLPC   H6Y 8555   6.137   4.932   4.378 -0.5452  0.7274  0.5250
   88SLPC   C37 8556   6.118   4.771   4.506 -0.3353 -0.5068  0.1494
   88SLPC   H7X 8557   6.214   4.738   4.461 -1.4823 -0.6563 -2.3675
   88SLPC   H7Y 8558   6.058   4.679   4.519 -2.5782  0.8475  0.0140
   88SLPC   C38 8559   6.145   4.836   4.640  1.1378 -0.6591  0.7346
   88SLPC   H8X 8560   6.060   4.879   4.697  0.3444  1.4135 -1.8254
   88SLPC   H8Y 8561   6.214   4.922   4.621  0.6773 -0.3379  0.4972
   88SLPC   C39 8562   6.220   4.733   4.724  0.1315 -0.2239  0.1576
   88SLPC   H9X 8563   6.307   4.697   4.664 -0.1318 -0.8786  0.1578
   88SLPC   H9Y 8564   6.151   4.650   4.748 -2.7990  2.2606  0.8844
   88SLPC  C310 8565   6.264   4.791   4.859  0.1583 -0.9668  0.4293
   88SLPC  H10X 8566   6.173   4.834   4.906  1.3692  1.4759  0.6942
   88SLPC  H10Y 8567   6.338   4.873   4.846 -0.5556  0.2026  3.0733
   88SLPC  C311 8568   6.301   4.669   4.954 -0.0847  0.1960  0.2641
   88SLPC  H11X 8569   6.393   4.615   4.921 -0.2662 -1.6629  2.5365
   88SLPC  H11Y 8570   6.224   4.590   4.970  0.8213 -0.7052  0.3040
   88SLPC  C312 8571   6.336   4.720   5.097  0.0908  0.6876 -0.0880
   88SLPC  H12X 8572   6.249   4.775   5.139 -0.5527  0.2722 -0.8639
   88SLPC  H12Y 8573   6.414   4.795   5.072  1.9059 -0.8697  0.6279
   88SLPC  C313 8574   6.396   4.617   5.198 -0.1446 -0.3882 -0.0844
   88SLPC  H13X 8575   6.482   4.558   5.162 -0.8337 -1.8247  0.5414
   88SLPC  H13Y 8576   6.319   4.538   5.213 -0.3784  0.1515  1.8789
   88SLPC  C314 8577   6.426   4.668   5.341 -0.2195  0.0773  0.6409
   88SLPC  H14X 8578   6.331   4.694   5.392 -0.2213 -1.0661  1.2767
   88SLPC  H14Y 8579   6.489   4.759   5.342  1.1490 -0.8202  2.3024
   88SLPC  C315 8580   6.500   4.559   5.418 -0.7753 -0.4039  0.7581
   88SLPC  H15X 8581   6.608   4.582   5.408 -0.3069 -2.1631  1.4567
   88SLPC  H15Y 8582   6.490   4.459   5.372 -0.2652 -0.2132  0.2232
   88SLPC  C316 8583   6.471   4.552   5.567  0.4571 -0.1523  0.4792
   88SLPC  H16X 8584   6.534   4.472   5.611  0.4374 -0.9286 -0.8583
   88SLPC  H16Y 8585   6.370   4.506   5.567  0.4372 -0.3851  4.3216
   88SLPC  C317 8586   6.477   4.680   5.646  0.0397  0.7413  0.3545
   88SLPC  H17X 8587   6.382   4.733   5.623  1.2587  1.8751 -2.5761
   88SLPC  H17Y 8588   6.571   4.736   5.626  1.3003 -0.1461  3.2680
   88SLPC  C318 8589   6.478   4.669   5.795  0.1013  0.1411 -0.0349
   88SLPC  H18X 8590   6.566   4.618   5.840 -1.1971 -1.1077  1.1589
   88SLPC  H18Y 8591   6.390   4.616   5.838  0.2701 -1.5658 -1.6459
   88SLPC  H18Z 8592   6.480   4.761   5.856  1.4826 -1.8474  3.1773
   89SAPE     N 8593   1.717   0.164   7.221  0.4214  0.2575 -0.3091
   89SAPE   HN1 8594   1.666   0.073   7.224  1.0372 -0.1000  3.0674
   89SAPE   HN2 8595   1.775   0.161   7.134  1.6346  1.1952  0.4386
   89SAPE   HN3 8596   1.766   0.169   7.312 -0.3123 -0.1178  0.1091
   89SAPE   C12 8597   1.618   0.276   7.198 -0.4683  0.3288 -0.3786
   89SAPE  H12A 8598   1.578   0.294   7.299 -0.7198  0.0881 -0.4341
   89SAPE  H12B 8599   1.543   0.236   7.127  0.8119 -1.1322 -0.9916
   89SAPE   C11 8600   1.686   0.397   7.137 -0.6329 -0.0588  0.4388
   89SAPE  H11A 8601   1.616   0.469   7.089  0.1839  0.7412  0.4088
   89SAPE  H11B 8602   1.744   0.354   7.053 -0.3684  0.4210  0.3709
   89SAPE     P 8603   1.763   0.579   7.317  0.1229 -0.2810 -0.5291
   89SAPE   O13 8604   1.620   0.580   7.354 -0.3827 -0.5092  0.1457
   89SAPE   O14 8605   1.864   0.561   7.428 -0.3188  0.0275  0.0955
   89SAPE   O12 8606   1.784   0.459   7.224 -0.7849 -0.1776 -0.4264
   89SAPE   O11 8607   1.795   0.708   7.231 -0.0071  0.3162 -0.4282
   89SAPE    C1 8608   1.915   0.745   7.173 -0.2274 -0.5778  0.2407
   89SAPE    HA 8609   1.947   0.834   7.232 -0.5807 -0.3059  0.0301
   89SAPE    HB 8610   1.988   0.662   7.181 -0.8407 -1.1532 -0.1103
   89SAPE    C2 8611   1.891   0.798   7.027  0.1438 -0.9074  0.2806
   89SAPE    HS 8612   1.823   0.886   7.029 -0.0619 -0.9160 -2.4056
   89SAPE   O21 8613   1.827   0.693   6.950  0.0586  0.0787 -0.0371
   89SAPE   C21 8614   1.763   0.729   6.843 -0.1459  0.1557  0.3264
   89SAPE   O22 8615   1.716   0.840   6.823 -0.7058 -0.4732  0.4306
   89SAPE   C22 8616   1.751   0.609   6.751 -0.3670 -0.4230  0.4232
   89SAPE   H2R 8617   1.778   0.520   6.810 -0.5032 -1.0432 -0.4345
   89SAPE   H2S 8618   1.641   0.607   6.733 -0.7749 -1.6503  2.7606
   89SAPE    C3 8619   2.025   0.839   6.975  0.5626  0.1166 -0.6867
   89SAPE    HX 8620   2.079   0.743   6.966  1.6811  0.7503 -0.8908
   89SAPE    HY 8621   2.070   0.913   7.045  0.3153 -2.0379  1.8851
   89SAPE   O31 8622   2.022   0.906   6.840  0.3233 -0.5462 -0.0334
   89SAPE   C31 8623   1.966   1.027   6.852  0.3285 -0.2120 -0.1055
   89SAPE   O32 8624   1.939   1.079   6.960 -0.2325 -0.2822 -0.0964
   89SAPE   C32 8625   1.933   1.093   6.716 -0.6340  0.7577 -0.2428
   89SAPE   H2X 8626   1.943   1.201   6.740  0.1991  0.3314  1.4644
   89SAPE   H2Y 8627   1.829   1.070   6.684 -0.0537  0.9880 -2.4485
   89SAPE   C23 8628   1.836   0.621   6.621  0.3736  0.1561  0.0777
   89SAPE   H3R 8629   1.935   0.597   6.666  0.6097 -0.3158 -0.6758
   89SAPE   H3S 8630   1.817   0.726   6.593 -1.3453 -0.2907 -0.5355
   89SAPE   C24 8631   1.789   0.535   6.506  0.1096  0.9081 -0.3118
   89SAPE   H4R 8632   1.766   0.434   6.546  1.4231 -0.1805 -2.1534
   89SAPE   H4S 8633   1.878   0.515   6.444  0.0777 -0.1750 -0.0293
   89SAPE   C25 8634   1.681   0.587   6.415 -0.3979 -0.6729 -0.7645
   89SAPE   H5R 8635   1.576   0.571   6.442 -0.5075 -0.4015 -1.0455
   89SAPE   C26 8636   1.695   0.667   6.313  0.0774 -1.0014 -0.0023
   89SAPE   H6R 8637   1.602   0.695   6.261  0.0225 -3.3769 -1.3142
   89SAPE   C27 8638   1.822   0.717   6.254 -0.0853  0.3249  0.2172
   89SAPE   H7R 8639   1.891   0.739   6.339 -1.2646  0.0747  1.2710
   89SAPE   H7S 8640   1.803   0.813   6.203 -2.5102 -1.1042 -1.8318
   89SAPE   C28 8641   1.888   0.617   6.156 -0.6267 -0.0570 -0.1988
   89SAPE   H8R 8642   1.890   0.512   6.189  1.6518  0.2015  0.6694
   89SAPE   C29 8643   1.924   0.646   6.027  0.1562 -0.3208 -0.6506
   89SAPE   H9R 8644   1.973   0.565   5.970  1.1346  0.1305 -0.4694
   89SAPE  C210 8645   1.921   0.777   5.961 -0.4098  0.2993 -0.6210
   89SAPE  H10R 8646   1.993   0.846   6.009 -2.5437  1.6316  0.8337
   89SAPE  H10S 8647   1.823   0.825   5.986 -0.5063 -0.2626  0.0916
   89SAPE  C211 8648   1.946   0.764   5.817  0.1000  0.1456 -0.3737
   89SAPE  H11R 8649   2.050   0.751   5.781 -0.6308  1.0882 -3.0467
   89SAPE  C212 8650   1.857   0.770   5.725  0.1746 -0.1596 -0.2180
   89SAPE  H12R 8651   1.891   0.779   5.621 -1.7827 -1.9688 -1.0899
   89SAPE  C213 8652   1.709   0.792   5.745  0.2007 -0.4084 -0.4887
   89SAPE  H13R 8653   1.679   0.834   5.844  3.8176  0.5576  0.3750
   89SAPE  H13S 8654   1.654   0.698   5.723  1.0936 -0.6942 -1.5988
   89SAPE  C214 8655   1.664   0.886   5.641  0.3369 -0.0408 -0.2682
   89SAPE  H14R 8656   1.691   0.993   5.650  1.6471 -0.1528 -2.2241
   89SAPE  C215 8657   1.582   0.855   5.535 -0.6607 -0.3701  0.2992
   89SAPE  H15R 8658   1.535   0.938   5.481 -2.0242  0.4946  2.7053
   89SAPE  C216 8659   1.535   0.724   5.489  0.0635  0.7451  0.0389
   89SAPE  H16R 8660   1.454   0.726   5.413 -0.2704 -1.3142  0.2788
   89SAPE  H16S 8661   1.484   0.673   5.573  2.8956 -2.1988  0.1378
   89SAPE  C217 8662   1.630   0.616   5.443  0.2644  0.3499  0.6816
   89SAPE  H17R 8663   1.569   0.529   5.410  0.8312  0.6126 -1.1543
   89SAPE  H17S 8664   1.684   0.582   5.534  1.0917  1.1970  0.5221
   89SAPE  C218 8665   1.721   0.663   5.334 -0.1208 -0.7372 -0.3808
   89SAPE  H18R 8666   1.775   0.748   5.380 -0.3019 -0.5889 -0.4396
   89SAPE  H18S 8667   1.665   0.699   5.245 -0.6642 -0.9059 -0.1120
   89SAPE  C219 8668   1.813   0.548   5.281 -0.2716 -0.6752  0.1254
   89SAPE  H19R 8669   1.857   0.482   5.358  0.8247  0.2350  0.3076
   89SAPE  H19S 8670   1.896   0.595   5.225 -1.4881  2.5883  0.8217
   89SAPE  C220 8671   1.748   0.449   5.187 -0.0686  0.5490 -0.8484
   89SAPE  H20R 8672   1.652   0.415   5.232  0.6019  0.8703  0.9122
   89SAPE  H20S 8673   1.821   0.366   5.169  0.0817  0.4574  0.1241
   89SAPE  H20T 8674   1.736   0.491   5.085 -1.0375 -2.8551 -2.2785
   89SAPE   C33 8675   2.031   1.032   6.609 -0.2473  0.0726  0.0684
   89SAPE   H3X 8676   2.005   0.925   6.590  2.0860 -0.2640 -1.8045
   89SAPE   H3Y 8677   2.140   1.039   6.631 -0.3011 -1.3525  0.9496
   89SAPE   C34 8678   2.001   1.099   6.478 -0.5303  0.1746 -0.2435
   89SAPE   H4X 8679   2.000   1.210   6.485 -2.7577  0.2407 -1.0292
   89SAPE   H4Y 8680   1.904   1.078   6.428  0.4971 -0.7265 -1.9510
   89SAPE   C35 8681   2.116   1.066   6.382 -0.5159 -0.1291  0.0799
   89SAPE   H5X 8682   2.139   0.960   6.359 -1.1878 -0.2897  0.1431
   89SAPE   H5Y 8683   2.204   1.109   6.434 -0.8061 -1.0391  1.3735
   89SAPE   C36 8684   2.099   1.129   6.240  0.5141  0.0333  0.0131
   89SAPE   H6X 8685   2.089   1.237   6.265 -3.8633  0.1100 -1.1844
   89SAPE   H6Y 8686   2.001   1.091   6.204 -0.2517  1.3649  0.6115
   89SAPE   C37 8687   2.213   1.103   6.145  0.0250  0.2517 -0.0343
   89SAPE   H7X 8688   2.227   0.993   6.139  2.3552  0.4769  0.3267
   89SAPE   H7Y 8689   2.309   1.136   6.191  0.7824 -1.0941 -0.5799
   89SAPE   C38 8690   2.210   1.179   6.010 -0.3687  0.1922 -0.1850
   89SAPE   H8X 8691   2.316   1.170   5.976 -0.3804  0.5433 -0.3134
   89SAPE   H8Y 8692   2.180   1.283   6.033  1.3591  0.5383  0.6989
   89SAPE   C39 8693   2.125   1.115   5.903  0.1532 -0.3554 -1.2720
   89SAPE   H9X 8694   2.023   1.131   5.945  0.9672 -1.6451  1.4261
   89SAPE   H9Y 8695   2.148   1.007   5.891  1.9987 -0.3292  1.2978
   89SAPE  C310 8696   2.145   1.174   5.763  0.6190  0.3833 -0.3949
   89SAPE  H10X 8697   2.254   1.173   5.740 -0.1113 -0.5642 -4.5144
   89SAPE  H10Y 8698   2.092   1.271   5.754 -2.5275 -0.9093  2.2161
   89SAPE  C311 8699   2.067   1.088   5.658 -0.0729 -0.5382 -0.4738
   89SAPE  H11X 8700   1.964   1.071   5.696  1.0866 -2.4588  2.2254
   89SAPE  H11Y 8701   2.116   0.989   5.646 -0.1215 -0.9428  2.0218
   89SAPE  C312 8702   2.047   1.152   5.526 -0.9075  0.7097 -0.2422
   89SAPE  H12X 8703   2.145   1.183   5.482 -0.8163  1.2156  0.3167
   89SAPE  H12Y 8704   1.971   1.231   5.541 -0.0399  1.0050  3.7097
   89SAPE  C313 8705   1.993   1.055   5.422  0.3206  0.3982  0.5613
   89SAPE  H13X 8706   1.967   1.112   5.330  2.0285  0.3332 -0.0017
   89SAPE  H13Y 8707   1.902   1.002   5.457 -0.2012  0.8112 -0.1549
   89SAPE  C314 8708   2.098   0.950   5.364 -0.3155 -0.1787 -0.3291
   89SAPE  H14X 8709   2.151   0.878   5.430  0.6277  0.8394  0.0565
   89SAPE  H14Y 8710   2.173   1.024   5.329  0.3971 -0.7440 -0.0150
   89SAPE  C315 8711   2.046   0.862   5.248  0.3461 -0.4814 -0.5812
   89SAPE  H15X 8712   1.950   0.908   5.215  0.1925 -0.1848  0.2723
   89SAPE  H15Y 8713   2.030   0.763   5.295 -0.4118  0.4535  1.2319
   89SAPE  C316 8714   2.159   0.859   5.149  0.7108  0.3607  0.6218
   89SAPE  H16X 8715   2.206   0.959   5.138 -0.8874  1.3472  2.2174
   89SAPE  H16Y 8716   2.126   0.826   5.049 -2.6303  1.4765  1.2311
   89SAPE  C317 8717   2.286   0.775   5.186 -0.1367  0.3799  0.3591
   89SAPE  H17X 8718   2.310   0.805   5.290 -1.4644  0.3816  0.6850
   89SAPE  H17Y 8719   2.356   0.815   5.108 -2.0367  1.6810 -0.7620
   89SAPE  C318 8720   2.275   0.625   5.178 -0.3171  0.1888 -0.1796
   89SAPE  H18X 8721   2.379   0.589   5.189 -0.2654 -0.0563 -1.4019
   89SAPE  H18Y 8722   2.242   0.594   5.077 -0.3135 -0.0990 -0.0935
   89SAPE  H18Z 8723   2.215   0.581   5.260  0.0054  0.3774  0.1624
   90SAPE     N 8724   1.591   6.175   7.372  0.8738  0.4442 -0.7661
   90SAPE   HN1 8725   1.502   6.166   7.320 -0.0076  1.6222  0.4800
   90SAPE   HN2 8726   1.596   6.271   7.413 -1.1805  0.1382  0.3402
   90SAPE   HN3 8727   1.671   6.163   7.307  0.8854 -2.5056 -0.3381
   90SAPE   C12 8728   1.595   6.080   7.491  0.4609  0.2511  0.1919
   90SAPE  H12A 8729   1.575   5.985   7.436  0.8983  1.6531 -2.5937
   90SAPE  H12B 8730   1.506   6.096   7.555  0.3259  0.2126  0.0163
   90SAPE   C11 8731   1.719   6.064   7.582  0.1779 -0.5475 -0.6113
   90SAPE  H11A 8732   1.763   6.165   7.596 -1.8710  0.1331  1.5903
   90SAPE  H11B 8733   1.798   6.008   7.527  1.1006  1.4656 -1.4255
   90SAPE     P 8734   1.806   5.946   7.803  0.0810  0.1348  0.2632
   90SAPE   O13 8735   1.908   6.052   7.820 -0.3512  0.4067 -0.8322
   90SAPE   O14 8736   1.747   5.878   7.924  0.1444  0.2556  0.1087
   90SAPE   O12 8737   1.687   5.998   7.706 -0.4815  0.5210 -0.1301
   90SAPE   O11 8738   1.870   5.835   7.712  0.1350 -0.6686  0.6673
   90SAPE    C1 8739   1.799   5.713   7.695  1.2792 -0.2919  0.1098
   90SAPE    HA 8740   1.836   5.648   7.777 -0.1025  0.8020  1.6746
   90SAPE    HB 8741   1.691   5.726   7.718  1.8075  0.2918  2.5782
   90SAPE    C2 8742   1.817   5.653   7.555 -0.9054 -0.7216 -0.2147
   90SAPE    HS 8743   1.786   5.546   7.563  2.1396 -1.8179 -1.5104
   90SAPE   O21 8744   1.949   5.660   7.505  0.7019 -0.6257 -0.0342
   90SAPE   C21 8745   1.995   5.554   7.447  0.6740 -0.5410 -0.1084
   90SAPE   O22 8746   1.938   5.451   7.434  0.0672 -0.2761 -0.1847
   90SAPE   C22 8747   2.134   5.587   7.407 -0.0864  0.0408  0.0423
   90SAPE   H2R 8748   2.129   5.682   7.349  0.5103 -1.1486 -2.0702
   90SAPE   H2S 8749   2.188   5.607   7.502  0.4365 -0.5177 -0.1396
   90SAPE    C3 8750   1.714   5.718   7.454 -0.3541  0.5546 -0.1686
   90SAPE    HX 8751   1.752   5.818   7.426 -3.0350  1.5328 -0.6228
   90SAPE    HY 8752   1.612   5.720   7.497 -0.0031  0.8179  0.6655
   90SAPE   O31 8753   1.721   5.649   7.327 -0.3690  0.1520 -0.1522
   90SAPE   C31 8754   1.650   5.529   7.321  0.3749 -1.0804  0.0611
   90SAPE   O32 8755   1.559   5.501   7.397 -0.0914 -0.1526  0.5504
   90SAPE   C32 8756   1.690   5.449   7.195  0.8857 -0.5804  0.5384
   90SAPE   H2X 8757   1.748   5.362   7.232 -0.4593 -0.7687  2.3389
   90SAPE   H2Y 8758   1.744   5.505   7.116 -1.7996  1.1752 -0.1770
   90SAPE   C23 8759   2.203   5.476   7.334  0.4586 -0.5009  0.0713
   90SAPE   H3R 8760   2.151   5.463   7.236 -1.3136  1.1023  0.7268
   90SAPE   H3S 8761   2.194   5.385   7.397 -0.6342  0.1481  0.9006
   90SAPE   C24 8762   2.348   5.508   7.305  0.3453  0.5937 -0.5603
   90SAPE   H4R 8763   2.381   5.557   7.399 -0.3760  2.3816 -1.2005
   90SAPE   H4S 8764   2.355   5.588   7.229  2.5533  0.3312 -0.7231
   90SAPE   C25 8765   2.445   5.392   7.284  0.2637  0.5261 -1.1178
   90SAPE   H5R 8766   2.458   5.320   7.366  3.3022  1.1585 -0.9214
   90SAPE   C26 8767   2.523   5.379   7.176  0.4219 -0.2698  0.7645
   90SAPE   H6R 8768   2.601   5.301   7.180  0.3858 -0.3949 -0.6113
   90SAPE   C27 8769   2.535   5.459   7.049  0.3147  0.3116  0.3636
   90SAPE   H7R 8770   2.440   5.516   7.045  0.8447  1.3554  1.8145
   90SAPE   H7S 8771   2.531   5.385   6.965 -1.9639 -1.1494  1.6463
   90SAPE   C28 8772   2.648   5.556   7.040  0.1510 -0.4825  0.1116
   90SAPE   H8R 8773   2.657   5.627   7.123 -3.6851  0.9082 -0.4495
   90SAPE   C29 8774   2.743   5.564   6.945  0.4768 -0.5347  0.0672
   90SAPE   H9R 8775   2.795   5.661   6.948  0.1651 -0.3736  0.4712
   90SAPE  C210 8776   2.760   5.475   6.827  0.9431  0.8597  0.2920
   90SAPE  H10R 8777   2.662   5.473   6.775  1.3775  2.2001 -0.6235
   90SAPE  H10S 8778   2.784   5.375   6.869 -1.4380  0.6563  1.3890
   90SAPE  C211 8779   2.879   5.507   6.742 -0.3985  0.5315  0.1514
   90SAPE  H11R 8780   2.974   5.504   6.797  0.9875 -2.0884 -2.1288
   90SAPE  C212 8781   2.877   5.530   6.607  0.1768 -0.0312  0.1176
   90SAPE  H12R 8782   2.977   5.550   6.567 -0.9480  2.4452 -1.7838
   90SAPE  C213 8783   2.765   5.519   6.505 -0.0024 -0.7701  0.0316
   90SAPE  H13R 8784   2.750   5.622   6.466 -1.1963 -1.4865 -1.5275
   90SAPE  H13S 8785   2.670   5.501   6.559 -0.2280 -0.0925 -0.1241
   90SAPE  C214 8786   2.795   5.413   6.401  0.3015  0.4240 -0.1364
   90SAPE  H14R 8787   2.773   5.311   6.435  1.8839 -0.0441 -0.4338
   90SAPE  C215 8788   2.841   5.435   6.274 -0.2106  0.2951  0.6732
   90SAPE  H15R 8789   2.852   5.344   6.215 -1.8705 -0.4658  1.4686
   90SAPE  C216 8790   2.873   5.572   6.205 -0.6140  0.7244 -0.1797
   90SAPE  H16R 8791   2.976   5.596   6.242  0.5287 -3.2102 -0.3892
   90SAPE  H16S 8792   2.804   5.657   6.226 -2.2393 -0.8678  1.1647
   90SAPE  C217 8793   2.905   5.543   6.057 -0.1049  0.2871  0.0755
   90SAPE  H17R 8794   2.936   5.640   6.011  1.8051 -0.2577  0.1150
   90SAPE  H17S 8795   2.812   5.501   6.014 -1.0060  0.9253  1.3174
   90SAPE  C218 8796   3.026   5.449   6.019  0.6060  1.0715 -0.6017
   90SAPE  H18R 8797   2.993   5.347   6.048 -0.0488  1.2148 -0.8349
   90SAPE  H18S 8798   3.111   5.477   6.084  0.5807  0.6407 -0.3765
   90SAPE  C219 8799   3.057   5.463   5.874  0.2036  0.1163 -0.2663
   90SAPE  H19R 8800   3.143   5.399   5.846  0.7933  0.1827  1.3099
   90SAPE  H19S 8801   3.100   5.563   5.855  1.9311 -0.4457  0.5224
   90SAPE  C220 8802   2.933   5.437   5.781 -0.4779 -0.0467 -1.2403
   90SAPE  H20R 8803   2.852   5.511   5.798  1.0977  1.2974  0.9425
   90SAPE  H20S 8804   2.885   5.344   5.820  0.3879  0.4427  1.1536
   90SAPE  H20T 8805   2.974   5.434   5.678  1.7845 -1.9220 -0.3571
   90SAPE   C33 8806   1.556   5.382   7.122 -0.0944  0.1085 -0.2543
   90SAPE   H3X 8807   1.483   5.463   7.103 -0.8003 -0.3676  0.3819
   90SAPE   H3Y 8808   1.511   5.321   7.203  0.2776 -1.5057 -1.2248
   90SAPE   C34 8809   1.595   5.292   7.004  0.1318  0.8408 -0.2469
   90SAPE   H4X 8810   1.505   5.237   6.969  0.3393  0.3287  0.0152
   90SAPE   H4Y 8811   1.674   5.215   7.018 -1.2443 -0.5950 -0.0687
   90SAPE   C35 8812   1.636   5.369   6.880  0.2575  0.2034  0.4265
   90SAPE   H5X 8813   1.736   5.415   6.897  0.9029 -1.2940  0.8932
   90SAPE   H5Y 8814   1.553   5.442   6.869 -0.5330 -0.7000  0.2900
   90SAPE   C36 8815   1.657   5.282   6.758 -0.4382  0.2151 -0.1245
   90SAPE   H6X 8816   1.562   5.223   6.753 -2.4355  3.0451  1.5969
   90SAPE   H6Y 8817   1.743   5.212   6.759  0.0157  0.6902 -1.7444
   90SAPE   C37 8818   1.675   5.342   6.618  0.2444 -0.1470  0.3043
   90SAPE   H7X 8819   1.772   5.391   6.599 -0.8288  1.1844 -2.3420
   90SAPE   H7Y 8820   1.596   5.417   6.597  1.1618  0.5370 -0.8229
   90SAPE   C38 8821   1.670   5.231   6.511  0.2083 -0.0002 -0.0541
   90SAPE   H8X 8822   1.574   5.176   6.510  1.1187 -1.6773  0.5106
   90SAPE   H8Y 8823   1.757   5.167   6.538 -0.2044  0.3335  2.2751
   90SAPE   C39 8824   1.706   5.275   6.369  0.0050 -0.3593  0.2234
   90SAPE   H9X 8825   1.811   5.310   6.376  0.6396 -1.5567 -2.3276
   90SAPE   H9Y 8826   1.644   5.364   6.344 -1.1340 -1.4341 -0.8882
   90SAPE  C310 8827   1.698   5.162   6.263  0.0713 -0.4712 -0.1459
   90SAPE  H10X 8828   1.602   5.106   6.264 -0.9017  1.1261  0.8174
   90SAPE  H10Y 8829   1.779   5.090   6.288 -0.6383 -1.1000  0.3923
   90SAPE  C311 8830   1.718   5.225   6.130 -0.0660  0.9782 -0.4100
   90SAPE  H11X 8831   1.799   5.302   6.128 -0.5571  1.5832  1.2887
   90SAPE  H11Y 8832   1.632   5.288   6.098  0.9627  2.5704 -0.1545
   90SAPE  C312 8833   1.744   5.111   6.027  0.5790  0.2765  0.6865
   90SAPE  H12X 8834   1.820   5.037   6.060  0.0387  0.3483  2.1403
   90SAPE  H12Y 8835   1.773   5.161   5.932  0.7978 -0.6058  0.2820
   90SAPE  C313 8836   1.618   5.030   5.995  0.5497 -0.7033 -0.2276
   90SAPE  H13X 8837   1.553   5.107   5.947 -1.1607 -2.3354 -0.6563
   90SAPE  H13Y 8838   1.566   4.997   6.087  0.8470 -0.0551  0.1779
   90SAPE  C314 8839   1.636   4.911   5.899 -0.6532 -0.5327 -0.0456
   90SAPE  H14X 8840   1.697   4.937   5.810 -0.0906 -0.3473  0.3838
   90SAPE  H14Y 8841   1.535   4.873   5.872 -1.0116  0.8216 -0.7321
   90SAPE  C315 8842   1.715   4.802   5.973 -0.2146 -0.3619 -0.0362
   90SAPE  H15X 8843   1.655   4.775   6.062 -2.3813 -0.8021 -1.5388
   90SAPE  H15Y 8844   1.814   4.839   6.004 -0.0685 -0.6509 -0.1544
   90SAPE  C316 8845   1.727   4.673   5.894 -0.8146  0.2539  0.4383
   90SAPE  H16X 8846   1.763   4.687   5.790  0.9208 -0.9830  0.8481
   90SAPE  H16Y 8847   1.630   4.621   5.877  0.0012 -1.5277  1.0872
   90SAPE  C317 8848   1.824   4.577   5.960 -0.3893  0.0081  0.9504
   90SAPE  H17X 8849   1.926   4.621   5.966  0.4201 -1.9485  2.8551
   90SAPE  H17Y 8850   1.831   4.487   5.895 -2.0322  1.1485 -0.8938
   90SAPE  C318 8851   1.786   4.538   6.098 -0.1176 -0.0440 -0.0985
   90SAPE  H18X 8852   1.685   4.491   6.099  0.1881 -0.7925 -1.5913
   90SAPE  H18Y 8853   1.784   4.622   6.170  2.4504  0.5437 -0.5977
   90SAPE  H18Z 8854   1.853   4.463   6.144 -0.8998  0.5622  2.1406
   91SAPE     N 8855   1.036   3.548   8.182 -0.0118 -0.1526  0.1727
   91SAPE   HN1 8856   1.115   3.580   8.242 -0.1531 -1.1772  0.9210
   91SAPE   HN2 8857   0.964   3.618   8.210  0.6775  0.6214  0.0578
   91SAPE   HN3 8858   0.999   3.456   8.213 -0.4468 -0.6428 -1.7238
   91SAPE   C12 8859   1.082   3.547   8.042  0.0754 -0.4840 -0.2169
   91SAPE  H12A 8860   0.996   3.520   7.978  0.8181 -0.5736 -1.1955
   91SAPE  H12B 8861   1.168   3.477   8.036  1.2070  0.9603 -2.6271
   91SAPE   C11 8862   1.131   3.691   7.992  0.0257 -1.0537 -0.5133
   91SAPE  H11A 8863   1.160   3.688   7.885  1.5751  1.0453 -0.2236
   91SAPE  H11B 8864   1.214   3.716   8.062 -0.4591 -2.0647  0.4541
   91SAPE     P 8865   0.928   3.834   7.897 -0.1110 -0.1010 -0.3949
   91SAPE   O13 8866   0.814   3.742   7.903  0.0923 -0.8447 -0.0013
   91SAPE   O14 8867   0.897   3.977   7.915  0.7971  0.4542 -0.2743
   91SAPE   O12 8868   1.030   3.799   8.010  0.0220 -0.1053  0.5706
   91SAPE   O11 8869   1.000   3.814   7.758  0.6313 -0.3939 -0.2657
   91SAPE    C1 8870   1.001   3.912   7.653  0.3290 -0.0822  0.2051
   91SAPE    HA 8871   1.036   3.865   7.559 -1.5802  1.6133 -1.4389
   91SAPE    HB 8872   0.901   3.952   7.630  0.1573  1.0441  2.5413
   91SAPE    C2 8873   1.100   4.030   7.678  0.4529  0.4846 -0.2235
   91SAPE    HS 8874   1.066   4.094   7.762  0.2072  0.4032 -0.2592
   91SAPE   O21 8875   1.111   4.112   7.558 -0.2508  0.0082  0.3208
   91SAPE   C21 8876   1.182   4.218   7.555 -0.0572  0.6996 -0.5552
   91SAPE   O22 8877   1.221   4.278   7.654  0.1667 -0.0100 -0.1220
   91SAPE   C22 8878   1.210   4.270   7.416 -0.5248  0.2773 -0.1182
   91SAPE   H2R 8879   1.130   4.226   7.352  0.6341  0.1972 -1.5631
   91SAPE   H2S 8880   1.186   4.378   7.418  1.2685  0.6925  0.5485
   91SAPE    C3 8881   1.245   3.985   7.735  0.0411 -0.8271  0.1564
   91SAPE    HX 8882   1.240   3.914   7.820  0.1231 -0.2586  0.6447
   91SAPE    HY 8883   1.285   4.082   7.772 -0.6344 -0.9543  1.2745
   91SAPE   O31 8884   1.332   3.940   7.633 -0.4225  0.0844 -0.5197
   91SAPE   C31 8885   1.332   3.807   7.606 -0.3527 -0.4303 -0.9038
   91SAPE   O32 8886   1.327   3.721   7.693 -0.4229  0.0032  0.2697
   91SAPE   C32 8887   1.356   3.782   7.460  0.2789  0.1536  0.0875
   91SAPE   H2X 8888   1.358   3.877   7.403 -1.6500  1.2067  1.6569
   91SAPE   H2Y 8889   1.277   3.712   7.425  2.2617 -2.4044  0.3851
   91SAPE   C23 8890   1.353   4.247   7.357  0.7797  0.2459 -0.8045
   91SAPE   H3R 8891   1.375   4.140   7.335  2.3071  0.0462  1.3019
   91SAPE   H3S 8892   1.428   4.293   7.425  2.0473 -0.6804 -1.5485
   91SAPE   C24 8893   1.373   4.324   7.227  0.9652 -0.3683 -0.1280
   91SAPE   H4R 8894   1.384   4.432   7.246 -2.2650 -0.1974  1.3689
   91SAPE   H4S 8895   1.275   4.324   7.175  1.6187 -0.2794 -1.3896
   91SAPE   C25 8896   1.477   4.263   7.137  0.1859  0.3785 -0.5066
   91SAPE   H5R 8897   1.572   4.279   7.190  0.4378  0.3122 -0.9348
   91SAPE   C26 8898   1.453   4.181   7.028 -0.3590 -0.1967 -0.3475
   91SAPE   H6R 8899   1.546   4.149   6.979 -0.3186 -0.4278 -0.1199
   91SAPE   C27 8900   1.322   4.142   6.958 -0.7385 -1.0705  0.1445
   91SAPE   H7R 8901   1.344   4.133   6.849 -1.4791  0.4349 -0.1737
   91SAPE   H7S 8902   1.249   4.227   6.959  0.3861  0.2616 -4.4336
   91SAPE   C28 8903   1.277   4.010   7.015 -0.1708  0.2223  0.0247
   91SAPE   H8R 8904   1.345   3.926   6.991 -2.1430 -1.1305 -1.1730
   91SAPE   C29 8905   1.161   3.995   7.092 -0.0323  0.2359 -0.1577
   91SAPE   H9R 8906   1.146   3.893   7.132 -1.0034 -0.1693 -1.5042
   91SAPE  C210 8907   1.048   4.097   7.125 -0.3139 -0.0009  0.5264
   91SAPE  H10R 8908   1.078   4.203   7.120 -2.3461  0.6320  0.9675
   91SAPE  H10S 8909   1.019   4.090   7.232  1.3571  2.8858  1.2626
   91SAPE  C211 8910   0.938   4.062   7.026  0.3261  0.3057 -0.8778
   91SAPE  H11R 8911   0.952   3.999   6.938 -1.9253  0.2417 -1.2621
   91SAPE  C212 8912   0.813   4.104   7.044  0.0187  0.3266  0.0570
   91SAPE  H12R 8913   0.742   4.061   6.972 -0.1340 -0.3387  0.5881
   91SAPE  C213 8914   0.755   4.191   7.157  0.2599  0.2010 -0.0429
   91SAPE  H13R 8915   0.770   4.300   7.143  1.2711  0.1956  0.8462
   91SAPE  H13S 8916   0.786   4.169   7.262 -1.5856 -1.7617  0.1578
   91SAPE  C214 8917   0.613   4.169   7.157 -0.5853 -0.0601  0.2049
   91SAPE  H14R 8918   0.580   4.108   7.243 -0.0217  1.6476  1.6830
   91SAPE  C215 8919   0.519   4.226   7.082 -0.1129  0.1285 -0.4819
   91SAPE  H15R 8920   0.414   4.194   7.085 -0.3863  1.0327  1.0213
   91SAPE  C216 8921   0.552   4.341   6.983 -0.0944  0.7483 -0.8690
   91SAPE  H16R 8922   0.660   4.342   6.957  0.4990 -0.5793  1.2495
   91SAPE  H16S 8923   0.517   4.436   7.026 -0.6430 -0.1295  0.7078
   91SAPE  C217 8924   0.460   4.327   6.859 -0.0095 -0.2974  0.0533
   91SAPE  H17R 8925   0.477   4.407   6.784  0.2585 -0.1682  0.2554
   91SAPE  H17S 8926   0.355   4.339   6.893 -0.2163  2.8146 -1.3793
   91SAPE  C218 8927   0.469   4.201   6.776 -0.3918  0.1383 -0.2325
   91SAPE  H18R 8928   0.404   4.216   6.688  0.1566  0.4244 -0.5888
   91SAPE  H18S 8929   0.440   4.109   6.831  0.8576  1.2075  2.4093
   91SAPE  C219 8930   0.609   4.169   6.721  0.3401 -0.3952 -0.2457
   91SAPE  H19R 8931   0.684   4.162   6.802 -1.2528 -0.3172  1.2819
   91SAPE  H19S 8932   0.638   4.256   6.658  0.5958 -1.6616 -1.9792
   91SAPE  C220 8933   0.614   4.044   6.627  0.5883  0.4363  0.4482
   91SAPE  H20R 8934   0.624   3.952   6.689  0.2046 -0.3446 -0.6374
   91SAPE  H20S 8935   0.701   4.057   6.559  1.2932  2.4436  1.6121
   91SAPE  H20T 8936   0.526   4.026   6.563 -0.3043 -0.6529  1.9265
   91SAPE   C33 8937   1.483   3.701   7.444 -0.4801 -0.1218 -0.2025
   91SAPE   H3X 8938   1.487   3.666   7.338 -2.6062  1.6479 -0.9437
   91SAPE   H3Y 8939   1.473   3.610   7.507  1.3016  0.5757  1.1632
   91SAPE   C34 8940   1.611   3.774   7.482 -0.3205 -0.1344 -0.4106
   91SAPE   H4X 8941   1.699   3.711   7.456  0.5543  0.7893  0.2775
   91SAPE   H4Y 8942   1.610   3.782   7.592 -3.3490  0.8466 -0.4242
   91SAPE   C35 8943   1.640   3.914   7.429 -0.1048  0.4585  0.3571
   91SAPE   H5X 8944   1.742   3.944   7.461  0.2493  0.8791 -1.0663
   91SAPE   H5Y 8945   1.568   3.981   7.480 -0.2473  0.7302 -0.1980
   91SAPE   C36 8946   1.638   3.937   7.272  0.3035  0.4816  0.0862
   91SAPE   H6X 8947   1.674   4.042   7.261 -1.7430  1.5147  2.3191
   91SAPE   H6Y 8948   1.536   3.922   7.231 -0.6170  0.7403  2.1568
   91SAPE   C37 8949   1.729   3.836   7.195  0.3378  0.4760 -0.6795
   91SAPE   H7X 8950   1.690   3.732   7.191  2.9004 -0.6303  0.9935
   91SAPE   H7Y 8951   1.825   3.820   7.248  1.0695 -1.2049 -2.4018
   91SAPE   C38 8952   1.752   3.866   7.044 -0.6856 -0.3717 -0.3325
   91SAPE   H8X 8953   1.824   3.790   7.007  0.1693 -0.4233  1.3607
   91SAPE   H8Y 8954   1.778   3.971   7.016 -2.0960 -0.2481 -1.2721
   91SAPE   C39 8955   1.616   3.855   6.966  0.1832 -0.1268  0.1956
   91SAPE   H9X 8956   1.543   3.921   7.018 -1.0157 -0.7063 -0.7045
   91SAPE   H9Y 8957   1.587   3.750   6.985 -0.7551  0.2865  1.1846
   91SAPE  C310 8958   1.623   3.868   6.811  0.7157  0.7627 -0.7238
   91SAPE  H10X 8959   1.653   3.969   6.775  1.5918  0.3278 -1.2480
   91SAPE  H10Y 8960   1.523   3.844   6.770  0.9489 -0.2465 -0.7282
   91SAPE  C311 8961   1.714   3.770   6.744 -0.1754  0.0619  0.3061
   91SAPE  H11X 8962   1.697   3.672   6.793 -2.3065 -1.1007 -2.4570
   91SAPE  H11Y 8963   1.820   3.801   6.756 -0.1007 -0.0834  0.0396
   91SAPE  C312 8964   1.684   3.767   6.595  0.4774  0.3654  0.8067
   91SAPE  H12X 8965   1.697   3.873   6.563  0.3460  0.0715 -0.2478
   91SAPE  H12Y 8966   1.580   3.734   6.578  0.5111  0.9844 -0.8128
   91SAPE  C313 8967   1.782   3.678   6.511  0.2900 -0.2552 -0.3167
   91SAPE  H13X 8968   1.794   3.582   6.567 -2.0206 -1.9031 -2.4432
   91SAPE  H13Y 8969   1.877   3.734   6.501  1.0223 -1.2563  0.6997
   91SAPE  C314 8970   1.731   3.643   6.373 -0.4784  0.5694 -0.3086
   91SAPE  H14X 8971   1.681   3.734   6.333 -1.3843 -0.7208 -2.2424
   91SAPE  H14Y 8972   1.655   3.562   6.363  1.6111 -1.4850 -0.3092
   91SAPE  C315 8973   1.834   3.604   6.266 -0.2479  0.3003 -0.2876
   91SAPE  H15X 8974   1.883   3.510   6.300 -1.2101 -1.6396 -3.8372
   91SAPE  H15Y 8975   1.902   3.691   6.256  0.4091 -0.1867 -0.1351
   91SAPE  C316 8976   1.786   3.562   6.129  0.1501  0.1474  0.6199
   91SAPE  H16X 8977   1.747   3.646   6.067 -1.2237 -1.0883 -0.2649
   91SAPE  H16Y 8978   1.706   3.486   6.138 -1.0045  1.3291  0.5568
   91SAPE  C317 8979   1.908   3.498   6.049  0.3378  0.0765  0.2977
   91SAPE  H17X 8980   1.934   3.406   6.105 -1.5963  0.1075  1.3622
   91SAPE  H17Y 8981   1.986   3.575   6.036 -1.2624  1.4551 -1.8954
   91SAPE  C318 8982   1.876   3.461   5.902  0.6593 -0.1637 -0.2894
   91SAPE  H18X 8983   1.837   3.548   5.845  1.2704  0.0060 -0.4502
   91SAPE  H18Y 8984   1.797   3.383   5.904 -1.9730  2.3349  0.1985
   91SAPE  H18Z 8985   1.971   3.423   5.858  0.8354 -1.1835  0.8943
   92SAPE     N 8986   1.460   2.499   7.759 -0.6702 -0.5564  0.2888
   92SAPE   HN1 8987   1.554   2.477   7.798  0.5211  0.4461 -1.8545
   92SAPE   HN2 8988   1.420   2.574   7.818 -1.8609 -0.7182 -0.2895
   92SAPE   HN3 8989   1.411   2.408   7.753 -0.4359 -0.7703  1.4071
   92SAPE   C12 8990   1.459   2.542   7.615 -0.1565  0.0287  0.1687
   92SAPE  H12A 8991   1.506   2.460   7.557 -1.1491 -0.4045 -0.0439
   92SAPE  H12B 8992   1.531   2.626   7.610 -1.4811  1.1430 -1.0866
   92SAPE   C11 8993   1.321   2.562   7.572 -0.3450  0.5171  0.4880
   92SAPE  H11A 8994   1.271   2.463   7.572  0.0301  0.2945 -0.9892
   92SAPE  H11B 8995   1.321   2.606   7.470  3.1998  3.3596  1.5324
   92SAPE     P 8996   1.102   2.625   7.707  0.0461  0.1587  0.4007
   92SAPE   O13 8997   1.081   2.479   7.718 -0.3296  0.4951  0.0778
   92SAPE   O14 8998   1.085   2.700   7.833  0.4801  0.4992  0.5377
   92SAPE   O12 8999   1.248   2.652   7.657  0.1651 -0.0376 -0.3370
   92SAPE   O11 9000   1.007   2.673   7.598 -0.1994 -0.5412  0.0544
   92SAPE    C1 9001   0.971   2.808   7.567 -0.6962 -0.3237  0.1084
   92SAPE    HA 9002   0.862   2.815   7.550 -0.4821  1.0503 -0.9114
   92SAPE    HB 9003   0.980   2.880   7.651  0.8078 -1.1547  0.6951
   92SAPE    C2 9004   1.048   2.853   7.432 -0.7340 -0.6231 -0.5703
   92SAPE    HS 9005   1.004   2.786   7.355 -2.2401 -0.1452 -0.1596
   92SAPE   O21 9006   1.197   2.851   7.440  1.0436 -0.4877  0.0683
   92SAPE   C21 9007   1.257   2.835   7.323  0.1628 -0.1333 -0.5969
   92SAPE   O22 9008   1.207   2.785   7.222  0.1881 -0.1504  0.2980
   92SAPE   C22 9009   1.396   2.887   7.349 -0.7738  0.3521 -0.3505
   92SAPE   H2R 9010   1.401   2.989   7.391 -0.3431  0.6278 -1.0601
   92SAPE   H2S 9011   1.445   2.824   7.426  0.8293  2.2068  0.2353
   92SAPE    C3 9012   1.003   3.001   7.401 -0.5557 -0.7188  0.8844
   92SAPE    HX 9013   1.058   3.068   7.470 -0.8630  0.5096 -0.0205
   92SAPE    HY 9014   0.896   3.014   7.429 -0.0873  0.9648  2.0119
   92SAPE   O31 9015   1.041   3.042   7.271 -0.1024 -0.3835 -0.5816
   92SAPE   C31 9016   0.967   2.996   7.168  0.5206  0.0667 -0.4834
   92SAPE   O32 9017   0.878   2.915   7.171 -0.4422  0.1426 -0.0253
   92SAPE   C32 9018   1.012   3.073   7.046  0.7717 -0.1423 -0.1749
   92SAPE   H2X 9019   1.123   3.081   7.049  0.6350  2.2229  1.9203
   92SAPE   H2Y 9020   0.975   3.175   7.072 -0.2031 -0.5663  0.1489
   92SAPE   C23 9021   1.479   2.891   7.221 -0.9876 -0.2801  0.0381
   92SAPE   H3R 9022   1.495   2.790   7.177 -0.6312  0.2392 -1.0570
   92SAPE   H3S 9023   1.578   2.936   7.245 -0.5149 -0.7604 -0.9535
   92SAPE   C24 9024   1.421   2.983   7.108 -0.5014  0.5363 -0.2407
   92SAPE   H4R 9025   1.393   3.081   7.153  1.2060  0.5589  0.8804
   92SAPE   H4S 9026   1.333   2.936   7.059 -0.8844  1.2021 -0.2041
   92SAPE   C25 9027   1.528   3.006   7.010 -0.2119 -0.2400 -0.3532
   92SAPE   H5R 9028   1.577   3.104   7.021 -0.4672  0.0616 -1.6331
   92SAPE   C26 9029   1.548   2.927   6.903 -0.1551 -0.3655 -1.4081
   92SAPE   H6R 9030   1.633   2.947   6.836  2.2814 -0.4096  1.4550
   92SAPE   C27 9031   1.482   2.796   6.865  0.5658  0.2479 -0.2047
   92SAPE   H7R 9032   1.460   2.735   6.956  2.0869  1.1161  0.8004
   92SAPE   H7S 9033   1.541   2.727   6.800  0.6674  0.1516 -0.0134
   92SAPE   C28 9034   1.356   2.812   6.789  0.5969 -0.2744 -0.4641
   92SAPE   H8R 9035   1.265   2.818   6.850  0.7585  0.9546 -0.3208
   92SAPE   C29 9036   1.341   2.833   6.659  0.4703 -0.1874 -0.3472
   92SAPE   H9R 9037   1.244   2.859   6.615 -0.0753 -0.7334  0.5196
   92SAPE  C210 9038   1.455   2.834   6.561 -0.2626  0.2958 -0.9106
   92SAPE  H10R 9039   1.472   2.735   6.513  1.6048  0.1795 -0.0742
   92SAPE  H10S 9040   1.547   2.869   6.612 -0.9807  1.2733 -0.2276
   92SAPE  C211 9041   1.429   2.949   6.461  0.0035  0.3982  0.1699
   92SAPE  H11R 9042   1.456   3.047   6.501  0.8287 -0.3140  1.4466
   92SAPE  C212 9043   1.392   2.938   6.333 -1.0402 -0.5403 -0.1986
   92SAPE  H12R 9044   1.384   3.032   6.277 -1.0502 -0.0337  0.6392
   92SAPE  C213 9045   1.370   2.820   6.247 -0.3725 -0.2809  0.3529
   92SAPE  H13R 9046   1.329   2.737   6.308 -0.5270 -0.3088  0.2110
   92SAPE  H13S 9047   1.472   2.790   6.215 -1.0419 -0.6225 -1.5323
   92SAPE  C214 9048   1.272   2.834   6.127  0.1055  0.2854  0.4874
   92SAPE  H14R 9049   1.167   2.806   6.143  0.2801  0.1131  1.3787
   92SAPE  C215 9050   1.311   2.862   6.002  0.4384  0.1421 -0.2494
   92SAPE  H15R 9051   1.242   2.851   5.918  0.4177 -1.9282 -0.0272
   92SAPE  C216 9052   1.449   2.889   5.960 -0.1559 -0.6705  0.2351
   92SAPE  H16R 9053   1.501   2.805   5.909  3.5789  0.9529  1.0397
   92SAPE  H16S 9054   1.521   2.914   6.040 -0.1409 -1.4046  0.4513
   92SAPE  C217 9055   1.451   3.010   5.857 -0.5501  0.1006  0.0297
   92SAPE  H17R 9056   1.391   2.978   5.769  0.1992 -1.5663  0.1059
   92SAPE  H17S 9057   1.556   3.007   5.821 -0.9071  0.5443 -1.1073
   92SAPE  C218 9058   1.418   3.146   5.916 -0.2025 -0.4011 -0.5671
   92SAPE  H18R 9059   1.471   3.165   6.012 -3.3831  0.1208  1.2322
   92SAPE  H18S 9060   1.309   3.147   5.936 -0.4142  2.0310 -1.5225
   92SAPE  C219 9061   1.451   3.261   5.817  0.1555  0.0589  0.5826
   92SAPE  H19R 9062   1.396   3.246   5.721 -1.4081 -0.2946  1.4929
   92SAPE  H19S 9063   1.557   3.260   5.784  0.3904  1.4580  1.2662
   92SAPE  C220 9064   1.426   3.396   5.882 -0.3441  0.3162 -0.0222
   92SAPE  H20R 9065   1.434   3.486   5.817 -1.3407 -0.2588 -0.9681
   92SAPE  H20S 9066   1.498   3.412   5.965 -0.2312 -2.4372  0.4789
   92SAPE  H20T 9067   1.326   3.404   5.931 -0.7758  0.9409 -0.9661
   92SAPE   C33 9068   0.966   3.011   6.912 -0.7441  0.1823  0.4428
   92SAPE   H3X 9069   0.858   2.985   6.913 -0.7907  0.3357 -0.1149
   92SAPE   H3Y 9070   1.024   2.920   6.884 -1.0719  0.3783 -0.9649
   92SAPE   C34 9071   0.989   3.110   6.798  0.2740 -0.3702 -0.5810
   92SAPE   H4X 9072   1.096   3.138   6.803  0.3011 -0.2891 -1.4268
   92SAPE   H4Y 9073   0.937   3.207   6.810  1.8806  0.3319  1.1397
   92SAPE   C35 9074   0.967   3.043   6.661  0.3654 -0.3998  0.1052
   92SAPE   H5X 9075   0.861   3.010   6.664  1.0083 -2.5952  2.1576
   92SAPE   H5Y 9076   1.046   2.966   6.647 -1.6992 -2.3913 -1.2555
   92SAPE   C36 9077   0.981   3.133   6.538 -0.3837 -0.0023 -0.5452
   92SAPE   H6X 9078   1.001   3.069   6.449 -0.2523 -0.7706  0.0288
   92SAPE   H6Y 9079   1.073   3.195   6.537  0.1234 -0.7298 -0.0013
   92SAPE   C37 9080   0.858   3.213   6.506  0.5578 -0.8259 -0.1656
   92SAPE   H7X 9081   0.841   3.277   6.595 -1.7939  0.5744 -1.5283
   92SAPE   H7Y 9082   0.769   3.148   6.494 -0.4452  0.5999 -0.5972
   92SAPE   C38 9083   0.884   3.309   6.393  0.9128 -0.2401  1.3671
   92SAPE   H8X 9084   0.972   3.376   6.409  0.0868  0.7622  1.8646
   92SAPE   H8Y 9085   0.797   3.378   6.392 -0.1047 -1.4978  0.3624
   92SAPE   C39 9086   0.891   3.246   6.251 -0.7100 -0.1474 -0.1748
   92SAPE   H9X 9087   0.807   3.176   6.236 -0.2087 -0.5182 -1.4630
   92SAPE   H9Y 9088   0.986   3.188   6.251 -1.1947 -1.0999 -2.6766
   92SAPE  C310 9089   0.910   3.347   6.135 -0.1552  0.1618  0.4176
   92SAPE  H10X 9090   1.012   3.392   6.140 -0.8981  2.0251 -0.3872
   92SAPE  H10Y 9091   0.835   3.429   6.137  1.1232  1.4061 -0.5103
   92SAPE  C311 9092   0.889   3.281   5.996  0.2541  0.4943 -0.8999
   92SAPE  H11X 9093   0.781   3.256   5.994 -0.3120  2.7668 -1.6554
   92SAPE  H11Y 9094   0.948   3.187   6.000 -1.2207 -0.4331  0.0613
   92SAPE  C312 9095   0.941   3.367   5.883  0.5064 -0.7344  0.3041
   92SAPE  H12X 9096   1.025   3.424   5.930  1.1135 -0.8621 -0.5880
   92SAPE  H12Y 9097   0.866   3.436   5.840 -1.1375 -2.4223  0.3751
   92SAPE  C313 9098   1.012   3.286   5.771  0.5628  0.4615  0.1347
   92SAPE  H13X 9099   1.100   3.226   5.800 -0.1744 -0.7583 -0.0919
   92SAPE  H13Y 9100   1.041   3.370   5.705 -2.4039  1.4391 -0.1044
   92SAPE  C314 9101   0.915   3.183   5.714  0.0623  0.3786  0.3154
   92SAPE  H14X 9102   0.817   3.211   5.759 -0.8807  0.3740 -1.6523
   92SAPE  H14Y 9103   0.936   3.078   5.744  0.2521  0.3924  0.2295
   92SAPE  C315 9104   0.894   3.198   5.563 -0.8335 -0.0126  0.2346
   92SAPE  H15X 9105   0.882   3.308   5.548  0.3180  0.2998  1.3362
   92SAPE  H15Y 9106   0.807   3.141   5.524 -2.1212  1.1729  1.2456
   92SAPE  C316 9107   1.017   3.140   5.499 -0.2839  0.1404 -0.1108
   92SAPE  H16X 9108   1.051   3.049   5.553 -1.9274 -0.4341  0.0028
   92SAPE  H16Y 9109   1.098   3.217   5.497  0.0162 -0.0851  1.6487
   92SAPE  C317 9110   0.994   3.101   5.351 -0.1615  0.4839 -0.1687
   92SAPE  H17X 9111   1.093   3.073   5.309 -0.2725  0.0761 -0.1666
   92SAPE  H17Y 9112   0.954   3.192   5.301 -0.0876  1.2397  1.0975
   92SAPE  C318 9113   0.903   2.986   5.316 -0.0017  0.6301 -0.5759
   92SAPE  H18X 9114   0.952   2.890   5.345  0.2607  0.8295 -0.3475
   92SAPE  H18Y 9115   0.882   2.988   5.207  2.4852 -1.8738 -1.2137
   92SAPE  H18Z 9116   0.807   2.993   5.373  0.4159  0.9791  0.1051
   93SAPE     N 9117   4.421   5.916   8.603 -0.0310 -0.0878 -0.2935
   93SAPE   HN1 9118   4.470   5.942   8.691  1.2577 -1.1318 -0.6728
   93SAPE   HN2 9119   4.469   5.963   8.524 -0.7187 -2.4234 -2.2348
   93SAPE   HN3 9120   4.327   5.962   8.604  0.0798  0.2497 -2.0765
   93SAPE   C12 9121   4.414   5.766   8.573  0.9956  0.4288 -0.0059
   93SAPE  H12A 9122   4.371   5.726   8.667 -2.3957  1.5954 -0.9173
   93SAPE  H12B 9123   4.516   5.725   8.554  1.6354  0.6168  2.6343
   93SAPE   C11 9124   4.315   5.735   8.454 -0.5198 -0.0051  0.0413
   93SAPE  H11A 9125   4.307   5.625   8.444 -2.6617  0.1202 -0.0697
   93SAPE  H11B 9126   4.357   5.796   8.371 -1.1661  1.4219  0.7209
   93SAPE     P 9127   4.061   5.699   8.495  0.2198  0.5050 -0.1939
   93SAPE   O13 9128   4.064   5.614   8.611 -0.0526 -0.2211 -0.1055
   93SAPE   O14 9129   3.953   5.796   8.477 -0.2207 -0.0779  0.3282
   93SAPE   O12 9130   4.187   5.786   8.488  0.3341 -0.7565 -0.0611
   93SAPE   O11 9131   4.079   5.612   8.363 -0.4527 -0.8500  0.5876
   93SAPE    C1 9132   3.975   5.605   8.262  0.6630 -0.8443  0.1390
   93SAPE    HA 9133   3.906   5.521   8.285 -0.7188 -0.2596 -1.6646
   93SAPE    HB 9134   3.906   5.691   8.256  0.9648 -0.6021  0.0952
   93SAPE    C2 9135   4.023   5.615   8.108  0.7066 -0.5443  0.0154
   93SAPE    HS 9136   3.928   5.641   8.057 -0.8998 -2.7559  1.6586
   93SAPE   O21 9137   4.086   5.497   8.042  0.6941  0.2216 -0.3584
   93SAPE   C21 9138   4.003   5.399   8.009  0.1849 -0.4880  0.1810
   93SAPE   O22 9139   3.883   5.393   8.026 -0.0796 -0.1983  0.2179
   93SAPE   C22 9140   4.089   5.291   7.943 -0.3916 -0.4616  0.0946
   93SAPE   H2R 9141   4.131   5.332   7.849 -1.3862 -1.3866 -0.7764
   93SAPE   H2S 9142   4.170   5.272   8.016  0.0071 -0.4008 -0.3318
   93SAPE    C3 9143   4.129   5.724   8.096  0.4349 -0.6578  0.2607
   93SAPE    HX 9144   4.222   5.674   8.128  1.5927 -0.6361 -2.7519
   93SAPE    HY 9145   4.103   5.804   8.168  1.4917  0.2487 -0.3385
   93SAPE   O31 9146   4.144   5.778   7.960 -0.7143  0.4464  0.3600
   93SAPE   C31 9147   4.062   5.874   7.930  0.7151 -0.6046 -0.1460
   93SAPE   O32 9148   3.979   5.922   8.012 -0.1152 -0.1393 -0.6662
   93SAPE   C32 9149   4.075   5.906   7.782  0.2336 -0.4040  0.1871
   93SAPE   H2X 9150   4.177   5.922   7.743  0.9492 -1.0720  1.7124
   93SAPE   H2Y 9151   4.022   6.002   7.766  0.0356 -0.3150  1.3220
   93SAPE   C23 9152   4.013   5.154   7.925 -0.1004 -0.1589  0.3731
   93SAPE   H3R 9153   3.905   5.171   7.905 -0.1620 -0.5321  0.3750
   93SAPE   H3S 9154   4.011   5.092   8.017 -1.3963 -0.0375  0.4441
   93SAPE   C24 9155   4.064   5.075   7.800 -0.2319  0.9152  0.7380
   93SAPE   H4R 9156   4.053   5.145   7.715 -0.7429 -0.3393 -0.2533
   93SAPE   H4S 9157   4.004   4.984   7.780  1.0267  0.6211 -2.2214
   93SAPE   C25 9158   4.202   5.020   7.845  0.1832  0.2288  0.7618
   93SAPE   H5R 9159   4.210   4.971   7.943  2.6568 -1.5814 -0.2600
   93SAPE   C26 9160   4.313   5.026   7.777  0.8576  0.3106  0.0578
   93SAPE   H6R 9161   4.405   4.992   7.826  1.1009  1.2532  0.2693
   93SAPE   C27 9162   4.320   5.086   7.634 -0.5692 -0.4490  0.0919
   93SAPE   H7R 9163   4.216   5.079   7.596 -0.6500 -1.1829  0.4362
   93SAPE   H7S 9164   4.386   5.026   7.567 -0.4762 -1.6382  1.2203
   93SAPE   C28 9165   4.375   5.229   7.632  0.1808 -0.2328  0.3035
   93SAPE   H8R 9166   4.388   5.281   7.728  0.2036  1.0079 -0.3415
   93SAPE   C29 9167   4.430   5.289   7.525  1.2407 -0.7920 -0.2324
   93SAPE   H9R 9168   4.462   5.393   7.540 -0.1836 -0.4468  0.6411
   93SAPE  C210 9169   4.455   5.233   7.397  0.0207 -1.1903  0.0010
   93SAPE  H10R 9170   4.384   5.150   7.377 -2.4098  1.0795 -1.3848
   93SAPE  H10S 9171   4.555   5.184   7.403 -0.4612 -2.0528  1.4197
   93SAPE  C211 9172   4.446   5.325   7.278 -0.1086 -0.1911  0.3320
   93SAPE  H11R 9173   4.375   5.407   7.294  1.3363  1.1028  0.3768
   93SAPE  C212 9174   4.503   5.310   7.155 -0.4908 -0.4829 -0.1951
   93SAPE  H12R 9175   4.480   5.380   7.073  0.2075  0.3881  0.3331
   93SAPE  C213 9176   4.581   5.188   7.105 -0.2141 -0.3565  0.4913
   93SAPE  H13R 9177   4.608   5.199   6.998  0.7389  0.7297  0.8264
   93SAPE  H13S 9178   4.522   5.096   7.126 -0.7189  0.1794  1.5068
   93SAPE  C214 9179   4.716   5.175   7.169  0.0424 -0.3477  0.1418
   93SAPE  H14R 9180   4.758   5.262   7.221  1.0328 -0.9132  0.3124
   93SAPE  C215 9181   4.779   5.058   7.160 -0.5594 -0.0821 -0.5017
   93SAPE  H15R 9182   4.877   5.041   7.208  1.2484  1.5728 -3.3174
   93SAPE  C216 9183   4.726   4.928   7.095 -0.0941 -0.4965 -0.1816
   93SAPE  H16R 9184   4.617   4.935   7.076  0.1583  2.0810 -1.1351
   93SAPE  H16S 9185   4.760   4.837   7.150  0.5316 -1.6320 -2.3529
   93SAPE  C217 9186   4.791   4.889   6.957 -0.0972 -0.2502  0.2711
   93SAPE  H17R 9187   4.786   4.976   6.887  1.4789 -0.9981 -0.8501
   93SAPE  H17S 9188   4.728   4.812   6.908  0.7689  0.7138 -2.6061
   93SAPE  C218 9189   4.936   4.838   6.963  0.2159 -0.7731 -0.0342
   93SAPE  H18R 9190   5.002   4.907   7.020 -1.2944  2.2145 -1.6484
   93SAPE  H18S 9191   4.971   4.843   6.857  0.0828  2.4329 -0.0195
   93SAPE  C219 9192   4.934   4.687   7.017  0.6382 -0.6651  0.4058
   93SAPE  H19R 9193   4.833   4.650   6.986  0.0398  1.0283  0.2251
   93SAPE  H19S 9194   4.926   4.689   7.128 -0.8514  0.1885  0.3114
   93SAPE  C220 9195   5.057   4.605   6.967 -1.0559 -0.0743 -0.3662
   93SAPE  H20R 9196   5.047   4.497   6.992  0.2573  0.0965  1.0208
   93SAPE  H20S 9197   5.153   4.644   7.009  0.7512 -0.3345 -3.9056
   93SAPE  H20T 9198   5.062   4.607   6.856  2.6908  1.7445 -0.3466
   93SAPE   C33 9199   4.012   5.793   7.705  0.5577  0.5184  0.4013
   93SAPE   H3X 9200   3.992   5.825   7.600  1.3001 -0.7258 -0.1499
   93SAPE   H3Y 9201   3.920   5.761   7.758 -0.0628  2.2694  0.4358
   93SAPE   C34 9202   4.099   5.665   7.689 -1.2967 -0.5475 -0.0182
   93SAPE   H4X 9203   4.137   5.612   7.778  1.0971 -2.8149 -2.2071
   93SAPE   H4Y 9204   4.185   5.698   7.626  0.6894 -0.6177  2.5150
   93SAPE   C35 9205   4.021   5.559   7.609 -0.4864  0.5829  0.7548
   93SAPE   H5X 9206   3.975   5.606   7.520  3.0380 -0.4945 -1.8932
   93SAPE   H5Y 9207   3.943   5.514   7.674  0.0538 -0.9553  0.3967
   93SAPE   C36 9208   4.115   5.452   7.562  0.0855 -0.7635  0.2604
   93SAPE   H6X 9209   4.170   5.411   7.649  0.9454  1.8526  1.0204
   93SAPE   H6Y 9210   4.197   5.498   7.502 -0.1731  0.2055  0.6327
   93SAPE   C37 9211   4.039   5.353   7.476  0.0556  0.2139  0.7009
   93SAPE   H7X 9212   3.955   5.305   7.530 -1.0587  1.1883 -0.1356
   93SAPE   H7Y 9213   4.111   5.272   7.449  0.8600  1.0840  0.1832
   93SAPE   C38 9214   3.981   5.403   7.344  0.0460  1.2197 -1.6998
   93SAPE   H8X 9215   3.906   5.482   7.369 -0.6042  0.1632 -0.1209
   93SAPE   H8Y 9216   3.916   5.323   7.304  1.3962 -0.6072 -0.3968
   93SAPE   C39 9217   4.075   5.442   7.230  0.5972 -1.1362  0.0887
   93SAPE   H9X 9218   4.158   5.368   7.229 -0.1834 -2.0290  0.0571
   93SAPE   H9Y 9219   4.117   5.541   7.257 -0.7460  0.2989 -2.7295
   93SAPE  C310 9220   4.024   5.464   7.087  0.1005 -0.5219 -0.6067
   93SAPE  H10X 9221   3.948   5.545   7.082 -1.7938 -2.3119 -2.7415
   93SAPE  H10Y 9222   3.970   5.370   7.061 -0.9646 -0.2642  0.5546
   93SAPE  C311 9223   4.113   5.510   6.971 -0.0300 -0.3035  0.0808
   93SAPE  H11X 9224   4.218   5.485   6.997  1.3312  1.4618 -3.1431
   93SAPE  H11Y 9225   4.104   5.621   6.963 -0.3821 -0.3349  0.0238
   93SAPE  C312 9226   4.071   5.439   6.844 -0.0011 -0.0042 -0.5778
   93SAPE  H12X 9227   3.970   5.472   6.811  0.5156  2.0952 -0.2311
   93SAPE  H12Y 9228   4.070   5.331   6.869 -1.8559  0.2066  0.4317
   93SAPE  C313 9229   4.165   5.464   6.721  0.5684  0.4680 -0.6477
   93SAPE  H13X 9230   4.258   5.406   6.738  0.3677  0.0396 -0.9754
   93SAPE  H13Y 9231   4.196   5.570   6.709 -1.1248  0.8369 -2.1474
   93SAPE  C314 9232   4.103   5.420   6.591 -0.2394 -0.3646  0.6179
   93SAPE  H14X 9233   4.031   5.494   6.552  2.3072  0.0878 -3.8447
   93SAPE  H14Y 9234   4.062   5.319   6.609 -0.1122 -0.0871  2.7072
   93SAPE  C315 9235   4.209   5.399   6.475  0.1177  0.8926 -0.2276
   93SAPE  H15X 9236   4.274   5.317   6.513  0.8810  1.7104  0.2787
   93SAPE  H15Y 9237   4.263   5.496   6.467  0.8679  0.5310  0.3260
   93SAPE  C316 9238   4.147   5.368   6.339 -0.3121 -0.5076 -0.2719
   93SAPE  H16X 9239   4.095   5.457   6.297 -1.7280 -0.9758  0.4556
   93SAPE  H16Y 9240   4.067   5.292   6.353  0.7902 -1.6091  0.2414
   93SAPE  C317 9241   4.246   5.307   6.235  0.4277 -0.5548 -0.2911
   93SAPE  H17X 9242   4.304   5.222   6.279  0.2846 -1.6198 -2.0780
   93SAPE  H17Y 9243   4.321   5.385   6.210 -1.0937  1.1090  0.1657
   93SAPE  C318 9244   4.185   5.254   6.106  0.3863  0.4105 -0.3687
   93SAPE  H18X 9245   4.266   5.217   6.040  0.5638 -0.3980  0.2882
   93SAPE  H18Y 9246   4.134   5.338   6.053  1.4652  2.0111  1.0049
   93SAPE  H18Z 9247   4.114   5.172   6.129  2.2283 -1.6780 -1.7335
   94SAPE     N 9248   3.574   1.762   8.220  0.3081  0.1053 -0.3013
   94SAPE   HN1 9249   3.643   1.823   8.172  1.1398 -0.1565  0.5273
   94SAPE   HN2 9250   3.576   1.668   8.173 -2.0945  0.5175 -1.3788
   94SAPE   HN3 9251   3.477   1.792   8.200  0.0081 -0.1184  0.7850
   94SAPE   C12 9252   3.611   1.751   8.364  0.3173 -0.1840 -0.0364
   94SAPE  H12A 9253   3.541   1.683   8.418 -1.6308  0.9977 -0.9834
   94SAPE  H12B 9254   3.614   1.855   8.401  1.5403 -0.7158  1.4861
   94SAPE   C11 9255   3.758   1.702   8.359 -0.8780  0.0951  0.2206
   94SAPE  H11A 9256   3.765   1.604   8.306  0.4618  1.6040 -2.6113
   94SAPE  H11B 9257   3.799   1.681   8.460 -2.1271 -1.5783  0.4283
   94SAPE     P 9258   3.973   1.787   8.240 -0.2313  0.0476  0.3143
   94SAPE   O13 9259   4.030   1.915   8.205 -0.3431 -0.9196 -0.0096
   94SAPE   O14 9260   4.054   1.704   8.335  0.2535  0.2864 -0.3178
   94SAPE   O12 9261   3.834   1.803   8.290  0.0645 -0.2839  0.2196
   94SAPE   O11 9262   3.944   1.710   8.107  0.2241 -0.2170 -0.3726
   94SAPE    C1 9263   3.846   1.744   8.004 -0.4681 -0.2000 -0.5854
   94SAPE    HA 9264   3.771   1.663   7.996 -1.4976  0.6444  0.2846
   94SAPE    HB 9265   3.784   1.833   8.029 -1.2320 -1.1007  0.8397
   94SAPE    C2 9266   3.921   1.766   7.873 -0.2223 -0.2148 -0.0627
   94SAPE    HS 9267   3.999   1.844   7.887  0.5927 -1.2827  1.7036
   94SAPE   O21 9268   3.833   1.808   7.770 -0.0037  0.2772 -0.0516
   94SAPE   C21 9269   3.800   1.936   7.778 -0.5708  0.1550  0.2647
   94SAPE   O22 9270   3.843   2.018   7.862 -0.1210  0.6541  0.2835
   94SAPE   C22 9271   3.713   1.980   7.658  0.6208  0.3986  0.5075
   94SAPE   H2R 9272   3.711   1.891   7.592 -0.5215  0.8224 -0.0410
   94SAPE   H2S 9273   3.608   1.995   7.691  0.6936 -0.3292  1.1063
   94SAPE    C3 9274   3.996   1.641   7.832 -0.5482 -0.4979 -0.5873
   94SAPE    HX 9275   3.908   1.573   7.824  0.5109 -2.0960  0.8474
   94SAPE    HY 9276   4.067   1.621   7.914 -0.4093 -1.7481 -0.9863
   94SAPE   O31 9277   4.072   1.656   7.707 -0.5621 -0.1369 -0.1566
   94SAPE   C31 9278   4.128   1.537   7.686  0.1329  0.2443  0.4180
   94SAPE   O32 9279   4.102   1.430   7.744  0.5252  0.1514 -0.3597
   94SAPE   C32 9280   4.242   1.557   7.584  0.6624 -0.2605  0.2148
   94SAPE   H2X 9281   4.310   1.471   7.599  0.5377 -0.4417 -0.2246
   94SAPE   H2Y 9282   4.284   1.656   7.610  0.1518  0.5505 -1.8428
   94SAPE   C23 9283   3.772   2.093   7.576  0.1208 -0.9634  0.1922
   94SAPE   H3R 9284   3.839   2.054   7.497 -0.0336 -0.9842  0.0704
   94SAPE   H3S 9285   3.824   2.163   7.644  0.4154  0.1198 -1.1068
   94SAPE   C24 9286   3.667   2.195   7.507 -0.2307  0.3193 -0.5299
   94SAPE   H4R 9287   3.719   2.262   7.435 -0.9261  1.1292 -0.2864
   94SAPE   H4S 9288   3.631   2.265   7.585  0.8239  0.0627  0.2102
   94SAPE   C25 9289   3.547   2.120   7.460  0.1689  0.4167 -0.0231
   94SAPE   H5R 9290   3.496   2.077   7.547  0.1605  2.0300  0.8062
   94SAPE   C26 9291   3.498   2.127   7.339  0.3077  0.4613 -0.1609
   94SAPE   H6R 9292   3.404   2.072   7.321  0.1089  0.1482  1.6656
   94SAPE   C27 9293   3.558   2.204   7.228  0.2967 -0.5008 -0.2655
   94SAPE   H7R 9294   3.611   2.128   7.167  0.7789 -0.1669 -0.2660
   94SAPE   H7S 9295   3.620   2.289   7.264 -1.6252  1.6019 -1.6580
   94SAPE   C28 9296   3.455   2.271   7.141  0.2766  0.0148 -0.0179
   94SAPE   H8R 9297   3.408   2.362   7.181 -0.7562 -0.5039 -0.0015
   94SAPE   C29 9298   3.392   2.206   7.036 -0.8115 -0.3071 -0.4431
   94SAPE   H9R 9299   3.319   2.273   6.987  1.8289  2.4097 -0.9868
   94SAPE  C210 9300   3.432   2.077   6.968 -0.7002 -0.1339  0.7150
   94SAPE  H10R 9301   3.376   1.994   7.018 -0.2108 -0.0936  1.3391
   94SAPE  H10S 9302   3.541   2.062   6.980 -0.8462 -0.8185  1.2629
   94SAPE  C211 9303   3.404   2.068   6.813 -0.9086  0.6392 -0.2057
   94SAPE  H11R 9304   3.335   1.987   6.784 -0.6840  0.5489 -0.4888
   94SAPE  C212 9305   3.424   2.153   6.713 -0.1564 -0.2796 -0.1583
   94SAPE  H12R 9306   3.411   2.111   6.612  1.9061 -0.7394 -0.2811
   94SAPE  C213 9307   3.492   2.281   6.721 -0.8783 -0.0837 -0.2829
   94SAPE  H13R 9308   3.561   2.278   6.808 -0.2745 -1.9091 -0.7768
   94SAPE  H13S 9309   3.416   2.360   6.736  0.4029  1.2874 -0.8326
   94SAPE  C214 9310   3.580   2.321   6.600  0.4364 -1.1162 -0.4588
   94SAPE  H14R 9311   3.688   2.306   6.615  0.9730  2.3582 -0.0550
   94SAPE  C215 9312   3.545   2.377   6.484  0.2144  0.0554  0.2079
   94SAPE  H15R 9313   3.611   2.359   6.398 -1.0500 -2.8083 -0.2845
   94SAPE  C216 9314   3.409   2.421   6.444  0.4313 -0.4681 -0.8396
   94SAPE  H16R 9315   3.365   2.477   6.529  0.6621  0.4543 -1.3176
   94SAPE  H16S 9316   3.343   2.335   6.417 -0.8221  0.8576 -2.2060
   94SAPE  C217 9317   3.418   2.520   6.331 -0.1466  0.3191 -0.6300
   94SAPE  H17R 9318   3.324   2.561   6.287  0.3507  1.4159 -0.7188
   94SAPE  H17S 9319   3.473   2.478   6.245  0.0624 -0.1042 -0.2941
   94SAPE  C218 9320   3.488   2.651   6.374  0.3487 -0.4977 -0.5427
   94SAPE  H18R 9321   3.592   2.624   6.400  1.2126  3.3647  0.6786
   94SAPE  H18S 9322   3.453   2.705   6.465  2.0687 -1.5364  0.8051
   94SAPE  C219 9323   3.489   2.753   6.261  0.4469 -0.5819  0.4303
   94SAPE  H19R 9324   3.543   2.843   6.296 -0.8091  1.5130 -2.5816
   94SAPE  H19S 9325   3.384   2.782   6.236  1.2406  1.2659 -0.9659
   94SAPE  C220 9326   3.579   2.708   6.150  0.5152 -0.1059  0.1358
   94SAPE  H20R 9327   3.527   2.640   6.079 -1.1129  1.1667  0.0564
   94SAPE  H20S 9328   3.678   2.669   6.181  1.8360  2.2381 -0.8466
   94SAPE  H20T 9329   3.602   2.798   6.089 -1.0479  0.8668  0.9236
   94SAPE   C33 9330   4.196   1.560   7.437  0.1025  0.3792  0.3190
   94SAPE   H3X 9331   4.130   1.471   7.421 -1.1633  1.2471  0.5851
   94SAPE   H3Y 9332   4.291   1.559   7.380  1.9163 -0.1931  3.1030
   94SAPE   C34 9333   4.116   1.687   7.403 -0.2755  0.2611  0.6279
   94SAPE   H4X 9334   4.173   1.777   7.435  1.5295 -0.7908  0.4834
   94SAPE   H4Y 9335   4.024   1.689   7.466 -0.0344 -1.9519  1.1436
   94SAPE   C35 9336   4.097   1.705   7.248  0.0198 -0.4038  0.1713
   94SAPE   H5X 9337   4.027   1.787   7.221  2.5422  1.6372 -0.4629
   94SAPE   H5Y 9338   4.037   1.614   7.223 -1.6910  1.1440 -1.7330
   94SAPE   C36 9339   4.211   1.719   7.158 -0.4708 -0.2858  0.4216
   94SAPE   H6X 9340   4.297   1.651   7.176  0.9642  0.8347 -1.6772
   94SAPE   H6Y 9341   4.245   1.824   7.175  1.0796 -0.6695 -0.1109
   94SAPE   C37 9342   4.180   1.694   7.012 -0.7046  1.0410  0.1802
   94SAPE   H7X 9343   4.069   1.699   7.011 -0.7303  0.9291  1.4607
   94SAPE   H7Y 9344   4.206   1.592   6.976 -1.4130  1.5742 -2.0068
   94SAPE   C38 9345   4.231   1.796   6.913 -0.6195  0.2851 -0.2380
   94SAPE   H8X 9346   4.342   1.793   6.909 -0.5072 -0.5418  2.0382
   94SAPE   H8Y 9347   4.218   1.897   6.955  0.2941  0.2357  0.2007
   94SAPE   C39 9348   4.181   1.778   6.772  0.1441  0.0162 -0.1165
   94SAPE   H9X 9349   4.077   1.742   6.781  0.2937 -1.1232 -2.2076
   94SAPE   H9Y 9350   4.243   1.693   6.738 -0.0844 -0.4223  0.5493
   94SAPE  C310 9351   4.188   1.895   6.675 -0.7795 -0.2051 -0.0428
   94SAPE  H10X 9352   4.285   1.950   6.677 -0.9085  0.0870 -1.0217
   94SAPE  H10Y 9353   4.106   1.967   6.693 -2.1470 -1.7698  0.2070
   94SAPE  C311 9354   4.159   1.839   6.534  0.1151  0.5456  0.0370
   94SAPE  H11X 9355   4.053   1.806   6.522 -0.3366  2.4830 -1.8536
   94SAPE  H11Y 9356   4.225   1.751   6.516  0.8686  1.2440 -0.6540
   94SAPE  C312 9357   4.190   1.945   6.431  0.7519  0.1834 -0.0642
   94SAPE  H12X 9358   4.299   1.968   6.422  0.1231  2.7980 -2.7436
   94SAPE  H12Y 9359   4.138   2.040   6.457 -0.0072 -0.5313  1.0958
   94SAPE  C313 9360   4.144   1.902   6.284  0.3772 -0.2513 -0.0814
   94SAPE  H13X 9361   4.033   1.890   6.286  0.5025 -1.4956  2.0550
   94SAPE  H13Y 9362   4.180   1.799   6.262  2.5664  0.8591 -2.0857
   94SAPE  C314 9363   4.181   1.995   6.175 -0.0905  0.3595  1.1599
   94SAPE  H14X 9364   4.292   2.002   6.166 -0.3266  1.2780 -2.7099
   94SAPE  H14Y 9365   4.147   2.100   6.190 -0.2661  0.4121  0.3967
   94SAPE  C315 9366   4.124   1.945   6.042  0.4440 -0.1309 -0.1603
   94SAPE  H15X 9367   4.015   1.966   6.037  0.5162 -0.0087 -1.6049
   94SAPE  H15Y 9368   4.133   1.835   6.032 -0.6104 -0.1026 -1.8534
   94SAPE  C316 9369   4.192   2.002   5.912 -0.4957  0.1775 -0.1153
   94SAPE  H16X 9370   4.151   1.940   5.829  0.0072 -0.5193  0.1485
   94SAPE  H16Y 9371   4.301   1.989   5.924 -0.6300  1.0529  2.6751
   94SAPE  C317 9372   4.145   2.149   5.894 -1.5466 -0.8822  0.9053
   94SAPE  H17X 9373   4.199   2.185   5.804 -0.9126  0.0133  1.6220
   94SAPE  H17Y 9374   4.187   2.204   5.981 -0.6919 -1.2336  0.7206
   94SAPE  C318 9375   3.991   2.174   5.870 -0.3399  0.3707  0.3927
   94SAPE  H18X 9376   3.963   2.153   5.764  1.5090 -2.1950  0.3173
   94SAPE  H18Y 9377   3.965   2.281   5.886 -0.4222  0.3727  0.2504
   94SAPE  H18Z 9378   3.928   2.108   5.933  0.0193  0.9126  1.3402
   95SAPE     N 9379   1.442   3.282   8.024  0.3085  0.4459 -0.3920
   95SAPE   HN1 9380   1.428   3.191   7.976 -1.8915  0.1652  0.6830
   95SAPE   HN2 9381   1.529   3.286   8.081  2.3203 -0.2284 -3.1611
   95SAPE   HN3 9382   1.360   3.287   8.087  2.4947  0.4226  2.6553
   95SAPE   C12 9383   1.433   3.403   7.931  1.2493  0.3518 -0.2967
   95SAPE  H12A 9384   1.532   3.410   7.880  0.3430 -0.3826 -2.2587
   95SAPE  H12B 9385   1.401   3.481   8.002 -0.0061 -1.4723  1.2284
   95SAPE   C11 9386   1.323   3.376   7.822 -0.3315 -0.7782 -0.3261
   95SAPE  H11A 9387   1.378   3.321   7.743  0.8941  0.8787 -0.6769
   95SAPE  H11B 9388   1.311   3.475   7.773 -0.9689 -1.2031 -1.0604
   95SAPE     P 9389   1.127   3.238   7.740 -0.3382 -0.2974  0.2012
   95SAPE   O13 9390   1.194   3.110   7.726  0.4784  0.7902 -0.4882
   95SAPE   O14 9391   0.979   3.237   7.766  0.4535 -0.7101  0.7061
   95SAPE   O12 9392   1.206   3.307   7.859  0.3749 -0.5755 -0.1882
   95SAPE   O11 9393   1.160   3.314   7.611  0.5559  0.8223 -0.3174
   95SAPE    C1 9394   1.114   3.433   7.563 -0.2113 -0.0075 -0.0689
   95SAPE    HA 9395   1.027   3.469   7.622  0.7689 -0.8674  1.9887
   95SAPE    HB 9396   1.188   3.516   7.570 -1.0028  0.9202 -2.0463
   95SAPE    C2 9397   1.053   3.428   7.418 -0.4156  0.3847  0.0383
   95SAPE    HS 9398   1.020   3.532   7.399 -0.6802  0.6927  1.9576
   95SAPE   O21 9399   0.946   3.341   7.409 -0.6057  0.2264 -0.1540
   95SAPE   C21 9400   0.825   3.391   7.459 -0.0739  0.2973  0.7566
   95SAPE   O22 9401   0.813   3.501   7.509  0.0995  0.2523  0.2391
   95SAPE   C22 9402   0.713   3.293   7.451 -0.2683 -0.0682 -0.2367
   95SAPE   H2R 9403   0.760   3.193   7.438  2.1931  0.9598  0.1895
   95SAPE   H2S 9404   0.658   3.295   7.548  1.0959  0.0579  0.5605
   95SAPE    C3 9405   1.161   3.378   7.319 -0.8078 -0.2176 -0.3106
   95SAPE    HX 9406   1.184   3.273   7.346 -0.0425 -0.8060 -2.9755
   95SAPE    HY 9407   1.258   3.432   7.327 -0.4591 -0.7485 -0.8763
   95SAPE   O31 9408   1.113   3.377   7.180 -0.2802  0.3744 -0.1530
   95SAPE   C31 9409   1.101   3.499   7.133  0.1127  0.3272  0.0381
   95SAPE   O32 9410   1.139   3.600   7.185 -0.5437  0.1469  0.2381
   95SAPE   C32 9411   1.043   3.490   6.994  0.4410  0.1525  0.4388
   95SAPE   H2X 9412   0.937   3.459   7.011  0.7131 -1.2910 -0.3466
   95SAPE   H2Y 9413   1.088   3.405   6.939 -0.7960  0.2750 -0.8109
   95SAPE   C23 9414   0.593   3.330   7.353 -0.2249 -0.1501  0.7305
   95SAPE   H3R 9415   0.545   3.421   7.396  1.4778  0.7492  0.8354
   95SAPE   H3S 9416   0.520   3.247   7.349 -0.7765  0.2950  1.3415
   95SAPE   C24 9417   0.642   3.366   7.213 -0.1976  0.2750 -0.0331
   95SAPE   H4R 9418   0.717   3.448   7.221  2.0634 -1.7198  0.5533
   95SAPE   H4S 9419   0.545   3.398   7.169  0.3815 -0.8457 -2.2447
   95SAPE   C25 9420   0.684   3.241   7.140  0.4359 -0.3141  0.3760
   95SAPE   H5R 9421   0.706   3.151   7.199  0.4530 -0.0095  0.8407
   95SAPE   C26 9422   0.704   3.245   7.008 -0.4423 -0.3809 -0.4865
   95SAPE   H6R 9423   0.747   3.150   6.971  1.1237  0.4417 -0.8888
   95SAPE   C27 9424   0.685   3.364   6.919 -0.6836 -0.2326  1.1772
   95SAPE   H7R 9425   0.758   3.371   6.835 -1.1487 -0.1005  0.7839
   95SAPE   H7S 9426   0.689   3.462   6.972 -1.7935 -0.5906  1.9352
   95SAPE   C28 9427   0.552   3.346   6.853  0.0012  0.1760 -0.3283
   95SAPE   H8R 9428   0.474   3.320   6.926 -0.2129 -0.9600 -0.9376
   95SAPE   C29 9429   0.517   3.382   6.727  0.1221 -0.1185 -0.7226
   95SAPE   H9R 9430   0.413   3.362   6.698 -0.2939  1.2331 -0.2201
   95SAPE  C210 9431   0.604   3.439   6.618 -0.2156 -0.4209 -0.9687
   95SAPE  H10R 9432   0.607   3.373   6.528  3.5762 -1.6637 -0.1008
   95SAPE  H10S 9433   0.712   3.443   6.641 -0.0528 -2.1910 -1.2652
   95SAPE  C211 9434   0.560   3.581   6.576  0.4813  0.0136  0.2163
   95SAPE  H11R 9435   0.574   3.660   6.651 -1.4774 -0.5017  1.1699
   95SAPE  C212 9436   0.500   3.620   6.461 -0.3295 -0.2513  0.1055
   95SAPE  H12R 9437   0.477   3.727   6.448  0.2089 -0.4226 -2.7455
   95SAPE  C213 9438   0.447   3.524   6.359  0.0175 -0.0606 -0.0023
   95SAPE  H13R 9439   0.350   3.560   6.318  0.6977  1.0064 -0.7205
   95SAPE  H13S 9440   0.415   3.426   6.400  0.2646 -0.7222 -1.3228
   95SAPE  C214 9441   0.537   3.475   6.247 -0.3534  0.0237 -0.1905
   95SAPE  H14R 9442   0.612   3.398   6.272 -1.3594 -0.5336  1.2359
   95SAPE  C215 9443   0.540   3.531   6.125  0.1123 -0.2114  0.7113
   95SAPE  H15R 9444   0.610   3.500   6.047  0.7657  2.4926  0.1188
   95SAPE  C216 9445   0.459   3.649   6.087 -0.5695 -0.8930 -0.3584
   95SAPE  H16R 9446   0.524   3.720   6.031 -0.8908 -0.6976 -0.4892
   95SAPE  H16S 9447   0.423   3.710   6.173  2.1248 -1.7259  1.4547
   95SAPE  C217 9448   0.347   3.606   5.993  0.9202 -0.9280  0.0209
   95SAPE  H17R 9449   0.274   3.544   6.049  0.3685 -0.4805 -0.1949
   95SAPE  H17S 9450   0.387   3.546   5.908  1.1556 -0.5505 -0.1388
   95SAPE  C218 9451   0.267   3.725   5.937  0.5726  0.1991  0.6213
   95SAPE  H18R 9452   0.341   3.782   5.877  1.4249 -0.0841  1.3869
   95SAPE  H18S 9453   0.220   3.783   6.019 -0.2552  3.6603 -2.0126
   95SAPE  C219 9454   0.150   3.686   5.846 -0.1680 -0.6828 -0.1342
   95SAPE  H19R 9455   0.081   3.619   5.903 -1.6028 -0.4298 -1.4933
   95SAPE  H19S 9456   0.188   3.621   5.764 -2.0432 -0.6808 -1.0535
   95SAPE  C220 9457   0.065   3.805   5.793 -0.1676  0.5176  0.2643
   95SAPE  H20R 9458   0.033   3.879   5.869  0.5664  0.2402  0.8673
   95SAPE  H20S 9459  -0.021   3.781   5.728  2.3664 -2.4604 -2.3209
   95SAPE  H20T 9460   0.136   3.863   5.731  0.9496 -0.5066  0.5381
   95SAPE   C33 9461   1.057   3.623   6.914 -0.0857  0.4988 -0.0514
   95SAPE   H3X 9462   1.155   3.670   6.935 -0.2596  0.5376  0.7009
   95SAPE   H3Y 9463   0.986   3.705   6.937  0.0523  0.4736  0.4824
   95SAPE   C34 9464   1.041   3.600   6.769 -0.4831 -0.5585  0.1788
   95SAPE   H4X 9465   0.931   3.586   6.755 -0.4175 -1.4763  0.5451
   95SAPE   H4Y 9466   1.087   3.506   6.734 -1.1197 -0.6899 -0.3157
   95SAPE   C35 9467   1.092   3.714   6.673 -0.1912  0.2589  0.7311
   95SAPE   H5X 9468   1.201   3.701   6.659 -0.4377  0.2955 -1.5595
   95SAPE   H5Y 9469   1.073   3.815   6.716  1.7176  0.1819  1.8424
   95SAPE   C36 9470   1.035   3.703   6.530  0.3417  0.0786  0.3998
   95SAPE   H6X 9471   1.027   3.595   6.504  0.3703 -0.3351  1.9956
   95SAPE   H6Y 9472   1.101   3.753   6.456  0.8548 -1.3726 -0.1672
   95SAPE   C37 9473   0.899   3.758   6.504 -0.6576 -0.3048  0.0231
   95SAPE   H7X 9474   0.905   3.867   6.524 -0.4692 -0.4570  0.8598
   95SAPE   H7Y 9475   0.830   3.727   6.585 -0.2703  0.1687  0.5503
   95SAPE   C38 9476   0.837   3.730   6.363 -0.6367 -0.9252 -0.3045
   95SAPE   H8X 9477   0.740   3.782   6.384 -0.7162 -2.1445  2.9514
   95SAPE   H8Y 9478   0.810   3.623   6.354  2.6841 -1.8545 -0.2669
   95SAPE   C39 9479   0.913   3.778   6.242  0.1585  0.0998  0.4616
   95SAPE   H9X 9480   1.019   3.748   6.230 -0.2482 -0.3345 -2.8383
   95SAPE   H9Y 9481   0.915   3.889   6.233 -3.0873  0.1554 -1.1251
   95SAPE  C310 9482   0.832   3.723   6.113 -0.2289 -0.4466 -0.0225
   95SAPE  H10X 9483   0.726   3.742   6.139 -0.4949 -2.4341  0.5227
   95SAPE  H10Y 9484   0.845   3.613   6.119 -0.7745 -0.4419  1.7671
   95SAPE  C311 9485   0.881   3.797   5.985  0.8429  0.7278 -0.0127
   95SAPE  H11X 9486   0.985   3.770   5.956  0.4849  0.7259 -1.3922
   95SAPE  H11Y 9487   0.871   3.904   6.011  0.1561  0.2908  1.6607
   95SAPE  C312 9488   0.788   3.764   5.869  0.0415 -0.1971 -0.3596
   95SAPE  H12X 9489   0.685   3.796   5.894  0.5578 -0.0940  1.8577
   95SAPE  H12Y 9490   0.786   3.653   5.861  0.4740 -0.4339  2.0793
   95SAPE  C313 9491   0.834   3.831   5.737 -0.2480  0.1301 -0.2440
   95SAPE  H13X 9492   0.939   3.803   5.715 -0.3712  1.3588 -2.6682
   95SAPE  H13Y 9493   0.823   3.939   5.758  0.2896  0.3585 -1.1049
   95SAPE  C314 9494   0.745   3.802   5.614  0.1399 -0.6556  0.1777
   95SAPE  H14X 9495   0.760   3.873   5.530  1.6532 -0.8968  0.2117
   95SAPE  H14Y 9496   0.635   3.809   5.630 -0.2867 -0.2687 -2.4557
   95SAPE  C315 9497   0.772   3.665   5.562  0.0707  0.0557  0.2549
   95SAPE  H15X 9498   0.757   3.576   5.627  0.1460 -1.3755 -1.6067
   95SAPE  H15Y 9499   0.874   3.658   5.518  1.1187 -2.1136  2.7334
   95SAPE  C316 9500   0.680   3.630   5.445  0.1124 -0.7980 -0.8689
   95SAPE  H16X 9501   0.694   3.667   5.341  1.5091  1.9639  0.2257
   95SAPE  H16Y 9502   0.576   3.660   5.469  1.5279  3.2313  1.0598
   95SAPE  C317 9503   0.672   3.476   5.439 -0.0291  0.1183  0.1799
   95SAPE  H17X 9504   0.644   3.440   5.541  0.7867  3.2113  1.6377
   95SAPE  H17Y 9505   0.761   3.423   5.401 -0.7670 -0.7780 -0.3203
   95SAPE  C318 9506   0.564   3.432   5.341 -0.0517  0.9286  0.2462
   95SAPE  H18X 9507   0.594   3.460   5.238 -2.4667  0.2445 -0.7009
   95SAPE  H18Y 9508   0.462   3.475   5.356 -0.1691  1.2668 -1.3059
   95SAPE  H18Z 9509   0.544   3.323   5.337 -0.9095  1.0909 -2.6890
   96SAPE     N 9510   3.717   3.572   9.040 -0.4577 -0.4254  0.3308
   96SAPE   HN1 9511   3.615   3.559   9.058 -0.4218  0.6609  1.4160
   96SAPE   HN2 9512   3.749   3.484   8.994  2.5397  1.0839 -0.7200
   96SAPE   HN3 9513   3.763   3.573   9.133 -0.6648 -1.3543  0.4593
   96SAPE   C12 9514   3.720   3.687   8.940 -0.3279 -0.3652 -0.1111
   96SAPE  H12A 9515   3.828   3.713   8.939 -0.0781 -1.3221  0.7254
   96SAPE  H12B 9516   3.657   3.768   8.983  1.3629  0.4410  0.9473
   96SAPE   C11 9517   3.660   3.659   8.803 -0.3868  0.2797 -0.1601
   96SAPE  H11A 9518   3.694   3.560   8.765 -1.5177 -0.5905  1.0112
   96SAPE  H11B 9519   3.703   3.729   8.727  0.7878 -0.4696 -0.2166
   96SAPE     P 9520   3.415   3.575   8.734  0.3162 -0.2307 -0.2795
   96SAPE   O13 9521   3.377   3.461   8.820 -0.1286  0.1963  0.8942
   96SAPE   O14 9522   3.309   3.667   8.682  0.7392  0.1842  0.6323
   96SAPE   O12 9523   3.516   3.660   8.807  0.1993  0.0921 -0.9372
   96SAPE   O11 9524   3.500   3.516   8.619 -0.0042 -0.0463  0.0346
   96SAPE    C1 9525   3.505   3.573   8.488 -0.6705 -0.4963 -0.2228
   96SAPE    HA 9526   3.404   3.603   8.455 -0.0126  0.1450 -1.7379
   96SAPE    HB 9527   3.559   3.670   8.479  0.0611 -0.8411  0.2707
   96SAPE    C2 9528   3.552   3.475   8.385 -0.2707  0.1139  0.5227
   96SAPE    HS 9529   3.486   3.386   8.385  0.2272 -0.2558  0.5232
   96SAPE   O21 9530   3.686   3.442   8.415 -0.1045  0.3422  0.4030
   96SAPE   C21 9531   3.711   3.340   8.488  0.2477 -0.5383 -0.5258
   96SAPE   O22 9532   3.626   3.267   8.545 -0.0344 -0.0862 -0.6316
   96SAPE   C22 9533   3.864   3.316   8.491  0.0121 -0.3794 -0.1243
   96SAPE   H2R 9534   3.887   3.242   8.570  1.5447 -0.1625 -0.3348
   96SAPE   H2S 9535   3.887   3.279   8.389  1.2924 -1.3085  0.4892
   96SAPE    C3 9536   3.554   3.547   8.251  0.5192 -0.6779 -0.3816
   96SAPE    HX 9537   3.595   3.484   8.169 -1.0056 -0.5804 -1.2459
   96SAPE    HY 9538   3.626   3.631   8.254 -1.8065  1.4044  1.2938
   96SAPE   O31 9539   3.431   3.613   8.211  0.0646 -0.3602  0.0483
   96SAPE   C31 9540   3.362   3.552   8.115 -0.2900  0.1858 -0.3361
   96SAPE   O32 9541   3.380   3.440   8.078 -0.2122 -0.4545  0.3916
   96SAPE   C32 9542   3.254   3.654   8.061 -0.0917  0.4649  0.0420
   96SAPE   H2X 9543   3.208   3.697   8.152 -1.3063 -0.5626 -0.0615
   96SAPE   H2Y 9544   3.179   3.587   8.013  0.6771 -0.2651 -0.1572
   96SAPE   C23 9545   3.930   3.447   8.535 -0.2082  0.4904  0.2693
   96SAPE   H3R 9546   4.005   3.424   8.613 -0.5209 -1.4076  0.0661
   96SAPE   H3S 9547   3.858   3.511   8.591 -1.3324  0.8669 -1.5078
   96SAPE   C24 9548   3.988   3.529   8.420  0.6918 -0.5484  0.4672
   96SAPE   H4R 9549   4.019   3.635   8.437 -0.3050  0.1397 -1.5516
   96SAPE   H4S 9550   3.914   3.545   8.339  2.7524  1.6324 -1.1533
   96SAPE   C25 9551   4.115   3.463   8.368  0.4393 -0.1876  0.2529
   96SAPE   H5R 9552   4.179   3.421   8.447  1.1086 -1.8335 -1.1239
   96SAPE   C26 9553   4.134   3.408   8.251 -0.1702  0.3273  0.5626
   96SAPE   H6R 9554   4.224   3.347   8.230 -1.7773 -1.4527 -1.7038
   96SAPE   C27 9555   4.057   3.415   8.116 -0.1896 -0.4724  0.4516
   96SAPE   H7R 9556   4.127   3.432   8.032 -0.3818  1.9753  0.7339
   96SAPE   H7S 9557   3.993   3.505   8.107 -1.6824 -1.6179 -1.0348
   96SAPE   C28 9558   3.965   3.295   8.095 -0.2253  0.9958  0.9868
   96SAPE   H8R 9559   3.986   3.210   8.161  1.7498  0.3448 -0.3602
   96SAPE   C29 9560   3.850   3.290   8.023 -0.2633 -0.6623 -0.5336
   96SAPE   H9R 9561   3.792   3.196   8.028 -0.3897 -0.5391  2.5050
   96SAPE  C210 9562   3.805   3.398   7.936  0.8606 -1.0924 -0.0435
   96SAPE  H10R 9563   3.865   3.410   7.843 -1.6010 -0.7002 -1.6865
   96SAPE  H10S 9564   3.802   3.495   7.991 -1.4793  0.3771 -2.4596
   96SAPE  C211 9565   3.665   3.371   7.887 -0.4680 -0.2285  0.3602
   96SAPE  H11R 9566   3.614   3.316   7.967  0.9174  1.2163  2.3085
   96SAPE  C212 9567   3.601   3.381   7.772  0.2439  0.0414  0.0443
   96SAPE  H12R 9568   3.499   3.341   7.759  0.7934 -1.1229 -0.9452
   96SAPE  C213 9569   3.666   3.455   7.657 -0.4589 -0.5621  0.4198
   96SAPE  H13R 9570   3.723   3.385   7.592 -1.2897 -2.7690  1.9488
   96SAPE  H13S 9571   3.738   3.531   7.693 -1.2652  0.5075 -0.1881
   96SAPE  C214 9572   3.571   3.530   7.565  0.3659 -0.1691 -0.7726
   96SAPE  H14R 9573   3.505   3.475   7.497 -0.1862 -0.5725  0.0705
   96SAPE  C215 9574   3.532   3.661   7.582 -0.5088  0.6427  0.1783
   96SAPE  H15R 9575   3.477   3.703   7.496  1.9254  1.1348 -1.2504
   96SAPE  C216 9576   3.593   3.757   7.677  0.2668 -0.5981  0.9193
   96SAPE  H16R 9577   3.624   3.696   7.764 -0.3316 -0.1389  1.4684
   96SAPE  H16S 9578   3.518   3.834   7.706  1.5985  1.2749 -0.3510
   96SAPE  C217 9579   3.725   3.824   7.622  0.3321 -0.1868  0.5181
   96SAPE  H17R 9580   3.793   3.751   7.575  0.5886 -0.0320  0.6464
   96SAPE  H17S 9581   3.775   3.861   7.714  0.3680 -1.9634  1.2512
   96SAPE  C218 9582   3.714   3.926   7.513 -0.4111  0.1330  0.0725
   96SAPE  H18R 9583   3.662   4.017   7.550 -1.6040 -0.6291  0.2946
   96SAPE  H18S 9584   3.654   3.891   7.426 -0.1487 -0.5771  0.1716
   96SAPE  C219 9585   3.845   3.965   7.450 -0.2219  0.6587  0.0802
   96SAPE  H19R 9586   3.890   3.870   7.414 -1.7599  0.4550 -1.4511
   96SAPE  H19S 9587   3.912   4.001   7.530  0.2094 -1.0051  0.4988
   96SAPE  C220 9588   3.821   4.072   7.348 -0.4769 -0.7512 -0.5299
   96SAPE  H20R 9589   3.756   4.157   7.379  0.9836  0.5311 -0.8413
   96SAPE  H20S 9590   3.766   4.031   7.260 -0.8083  0.9526 -1.1628
   96SAPE  H20T 9591   3.919   4.121   7.326 -0.8926 -0.8733 -3.0243
   96SAPE   C33 9592   3.301   3.769   7.965 -0.1538  0.1808 -0.1716
   96SAPE   H3X 9593   3.354   3.722   7.879  0.1919 -1.2424  0.7828
   96SAPE   H3Y 9594   3.369   3.840   8.016  0.5922  0.1899 -1.1550
   96SAPE   C34 9595   3.186   3.857   7.910  0.2591 -0.5197  0.1491
   96SAPE   H4X 9596   3.149   3.923   7.991 -2.4032 -1.7073  0.0299
   96SAPE   H4Y 9597   3.095   3.796   7.891 -0.0627 -0.3049  0.9480
   96SAPE   C35 9598   3.226   3.936   7.782  0.5555  0.3470 -0.0352
   96SAPE   H5X 9599   3.333   3.966   7.790  0.5640  0.1065  0.8721
   96SAPE   H5Y 9600   3.177   4.036   7.772  0.5034  0.1752 -1.7416
   96SAPE   C36 9601   3.196   3.850   7.655  0.5661  0.1385  0.2975
   96SAPE   H6X 9602   3.086   3.837   7.654  0.4169  1.2353  1.0937
   96SAPE   H6Y 9603   3.238   3.748   7.668  0.4070  0.2357  1.7295
   96SAPE   C37 9604   3.237   3.926   7.529  0.1187 -0.2029  0.6626
   96SAPE   H7X 9605   3.345   3.911   7.508  0.0167 -0.5810  0.3854
   96SAPE   H7Y 9606   3.204   4.030   7.547  2.1137  0.3522  1.2820
   96SAPE   C38 9607   3.172   3.862   7.400  0.2749 -0.2058  0.2657
   96SAPE   H8X 9608   3.062   3.877   7.404  0.3878  1.1917 -0.9337
   96SAPE   H8Y 9609   3.208   3.757   7.392 -1.6502 -0.9224  0.2422
   96SAPE   C39 9610   3.227   3.936   7.273  0.1340 -0.1772 -0.1659
   96SAPE   H9X 9611   3.214   4.045   7.288 -0.7196  0.3292 -3.6186
   96SAPE   H9Y 9612   3.165   3.921   7.182  0.2994  2.0281 -0.6993
   96SAPE  C310 9613   3.372   3.890   7.229 -0.0104  0.1865 -0.0754
   96SAPE  H10X 9614   3.359   3.781   7.210 -2.4775  0.2932  0.5809
   96SAPE  H10Y 9615   3.441   3.892   7.316  0.4078  1.1515 -0.4179
   96SAPE  C311 9616   3.426   3.966   7.112 -0.6674  1.2419  0.0525
   96SAPE  H11X 9617   3.466   4.059   7.158 -0.4487  0.5284  1.3546
   96SAPE  H11Y 9618   3.351   3.986   7.033  1.5823  0.9371 -2.2852
   96SAPE  C312 9619   3.535   3.901   7.038 -0.1046  0.1093 -0.0842
   96SAPE  H12X 9620   3.490   3.807   7.000 -1.5707  0.8999 -0.3947
   96SAPE  H12Y 9621   3.615   3.863   7.105 -1.1757 -0.7651  0.7157
   96SAPE  C313 9622   3.594   3.988   6.927  0.0227 -0.2831  0.8383
   96SAPE  H13X 9623   3.663   4.068   6.963  1.7137  0.2443 -3.0720
   96SAPE  H13Y 9624   3.505   4.024   6.872  0.5357  0.0257  0.1901
   96SAPE  C314 9625   3.679   3.905   6.832 -0.0074 -0.6722  0.2401
   96SAPE  H14X 9626   3.608   3.833   6.785 -1.4102  1.1348 -0.5609
   96SAPE  H14Y 9627   3.758   3.837   6.867  0.0326 -0.6786  0.1372
   96SAPE  C315 9628   3.745   3.990   6.729 -0.0452 -0.1248 -0.2565
   96SAPE  H15X 9629   3.802   4.074   6.773  0.6538 -1.2025  0.9671
   96SAPE  H15Y 9630   3.668   4.033   6.661  0.6846  1.6862  0.0165
   96SAPE  C316 9631   3.844   3.911   6.644  0.4618  0.3168  0.0290
   96SAPE  H16X 9632   3.928   3.877   6.709 -0.7975 -0.9684  1.0471
   96SAPE  H16Y 9633   3.882   3.986   6.571  0.7301  0.0342 -0.1229
   96SAPE  C317 9634   3.784   3.798   6.560 -0.2306 -1.3752 -0.1958
   96SAPE  H17X 9635   3.678   3.817   6.531 -0.1033 -1.4190 -0.6874
   96SAPE  H17Y 9636   3.777   3.710   6.627 -0.8651 -3.1702 -2.4941
   96SAPE  C318 9637   3.859   3.762   6.435 -0.5332 -0.2901 -0.2804
   96SAPE  H18X 9638   3.964   3.733   6.455 -0.3814  0.0849 -0.5235
   96SAPE  H18Y 9639   3.861   3.830   6.347 -1.1095 -0.6644 -0.5909
   96SAPE  H18Z 9640   3.817   3.669   6.390  1.9558 -1.2458 -0.8136
   97SAPE     N 9641   3.704   5.847   8.388 -0.4745 -0.0872  0.1457
   97SAPE   HN1 9642   3.719   5.927   8.323  0.2665 -0.8438 -0.6505
   97SAPE   HN2 9643   3.797   5.850   8.435  0.7442  1.8170 -2.1945
   97SAPE   HN3 9644   3.699   5.771   8.318  1.1652 -2.1476  2.0991
   97SAPE   C12 9645   3.581   5.852   8.476  0.1489  0.3264  0.2093
   97SAPE  H12A 9646   3.491   5.876   8.416  1.3460  1.1641 -1.3301
   97SAPE  H12B 9647   3.591   5.916   8.567  3.7898 -0.4798  0.5264
   97SAPE   C11 9648   3.550   5.712   8.538  0.1428  0.6162 -0.6792
   97SAPE  H11A 9649   3.478   5.737   8.619 -0.5335 -0.4915 -0.9116
   97SAPE  H11B 9650   3.633   5.668   8.597 -0.2261 -1.1928 -1.4567
   97SAPE     P 9651   3.388   5.630   8.348 -0.1126  0.4946  0.2157
   97SAPE   O13 9652   3.262   5.642   8.417 -0.0116 -0.4440  0.2150
   97SAPE   O14 9653   3.418   5.736   8.254 -0.3685 -0.1819 -0.0236
   97SAPE   O12 9654   3.508   5.614   8.443 -0.4382 -0.1921  0.3389
   97SAPE   O11 9655   3.373   5.494   8.269 -0.6723 -0.4227 -0.7026
   97SAPE    C1 9656   3.461   5.460   8.164 -1.1934  0.2246 -0.3179
   97SAPE    HA 9657   3.566   5.484   8.190 -0.9591 -0.6685 -0.4019
   97SAPE    HB 9658   3.461   5.352   8.136  1.3606  0.5968 -2.0356
   97SAPE    C2 9659   3.416   5.522   8.030 -0.4720 -0.4653 -0.3873
   97SAPE    HS 9660   3.412   5.632   8.045  1.1380 -0.2095 -1.5956
   97SAPE   O21 9661   3.284   5.476   8.005 -0.3001  0.2006  0.6779
   97SAPE   C21 9662   3.216   5.546   7.918  0.1279  0.1843  0.2263
   97SAPE   O22 9663   3.249   5.645   7.853  0.7944  0.0556  0.3502
   97SAPE   C22 9664   3.081   5.479   7.895 -0.4603  0.0350 -0.2412
   97SAPE   H2R 9665   3.055   5.418   7.984  1.2340  0.1616  0.3848
   97SAPE   H2S 9666   2.997   5.551   7.895 -0.3927  0.1675 -2.1880
   97SAPE    C3 9667   3.511   5.500   7.905 -0.1007 -0.4143 -0.2158
   97SAPE    HX 9668   3.609   5.546   7.930 -0.2515  0.8601 -1.7813
   97SAPE    HY 9669   3.464   5.558   7.822 -0.0004  1.6914  1.1138
   97SAPE   O31 9670   3.528   5.361   7.873  0.1024 -0.1105 -0.2007
   97SAPE   C31 9671   3.618   5.338   7.781 -0.2092  0.4022  0.5510
   97SAPE   O32 9672   3.676   5.422   7.718  0.4691 -0.4543 -0.4530
   97SAPE   C32 9673   3.643   5.191   7.763 -0.1230  0.2438 -0.4302
   97SAPE   H2X 9674   3.544   5.149   7.736 -0.5513 -0.0290  1.3984
   97SAPE   H2Y 9675   3.684   5.148   7.857  0.2622  3.2755  0.9084
   97SAPE   C23 9676   3.084   5.404   7.761 -0.2791  0.3044 -0.6742
   97SAPE   H3R 9677   3.089   5.484   7.683 -1.8065  1.5238  0.4009
   97SAPE   H3S 9678   2.985   5.355   7.752 -0.6082  1.1462 -2.1298
   97SAPE   C24 9679   3.206   5.317   7.748 -0.7766 -0.1015  0.5913
   97SAPE   H4R 9680   3.238   5.270   7.843  4.5508  0.0774 -0.8075
   97SAPE   H4S 9681   3.290   5.387   7.727 -0.5125 -0.8024 -0.8412
   97SAPE   C25 9682   3.180   5.218   7.642  0.3991  0.3691 -1.5376
   97SAPE   H5R 9683   3.154   5.127   7.698  1.6637  1.8513  1.6951
   97SAPE   C26 9684   3.220   5.229   7.514  0.0191  0.2041  0.4541
   97SAPE   H6R 9685   3.211   5.140   7.451  2.1640 -0.1173  0.5226
   97SAPE   C27 9686   3.282   5.353   7.450  0.5087  0.3558  0.0727
   97SAPE   H7R 9687   3.248   5.447   7.500  0.6895  1.5396 -1.9454
   97SAPE   H7S 9688   3.253   5.371   7.344 -0.0974 -0.7806  0.0242
   97SAPE   C28 9689   3.434   5.352   7.466 -0.2495  0.2937  0.5399
   97SAPE   H8R 9690   3.489   5.304   7.549  2.1085  1.7753 -0.0693
   97SAPE   C29 9691   3.516   5.375   7.367 -0.5889 -0.1031  1.2813
   97SAPE   H9R 9692   3.622   5.366   7.397  0.5158  0.6492 -2.0160
   97SAPE  C210 9693   3.486   5.422   7.221 -0.8404 -0.5015 -0.4645
   97SAPE  H10R 9694   3.396   5.486   7.227 -0.7671 -0.3480 -0.9935
   97SAPE  H10S 9695   3.478   5.329   7.160 -0.1719 -1.9382  1.5078
   97SAPE  C211 9696   3.602   5.511   7.182  0.0725 -0.2291 -0.2249
   97SAPE  H11R 9697   3.628   5.586   7.258 -1.4952  0.2574 -0.1288
   97SAPE  C212 9698   3.646   5.527   7.058  0.3248  0.9416  0.4955
   97SAPE  H12R 9699   3.727   5.599   7.043 -0.8221  2.1660 -0.0466
   97SAPE  C213 9700   3.590   5.469   6.929 -0.5217 -0.0334 -0.2998
   97SAPE  H13R 9701   3.528   5.552   6.888 -0.8173  0.5727  1.3007
   97SAPE  H13S 9702   3.525   5.382   6.953 -1.3861  0.5561 -0.4415
   97SAPE  C214 9703   3.699   5.420   6.834 -0.2676 -0.4042  0.1411
   97SAPE  H14R 9704   3.775   5.354   6.877  1.3723  1.1946 -0.1453
   97SAPE  C215 9705   3.727   5.457   6.711  0.5262 -0.1773 -0.0317
   97SAPE  H15R 9706   3.812   5.412   6.659  3.0109  3.2419  0.6848
   97SAPE  C216 9707   3.651   5.556   6.626  0.0284 -0.2912 -0.0717
   97SAPE  H16R 9708   3.568   5.603   6.683  1.6583 -1.0384  3.1942
   97SAPE  H16S 9709   3.611   5.504   6.537 -0.6320 -1.0357  0.6338
   97SAPE  C217 9710   3.752   5.666   6.591 -0.5204  0.2146 -0.2451
   97SAPE  H17R 9711   3.710   5.751   6.533  0.3786  0.3193 -0.7692
   97SAPE  H17S 9712   3.839   5.629   6.533 -1.7567 -1.8988 -0.8519
   97SAPE  C218 9713   3.810   5.741   6.715 -0.8395  0.6145  0.1364
   97SAPE  H18R 9714   3.859   5.678   6.793  1.3336  2.9347  0.7813
   97SAPE  H18S 9715   3.728   5.802   6.759 -0.4012  0.3230  1.4141
   97SAPE  C219 9716   3.927   5.841   6.678 -0.2560 -0.2351  0.2489
   97SAPE  H19R 9717   3.895   5.897   6.588  1.0722  0.8751  0.4265
   97SAPE  H19S 9718   4.003   5.773   6.634  0.2234  0.3594  0.1337
   97SAPE  C220 9719   3.985   5.917   6.800 -0.0410 -0.0514 -0.3923
   97SAPE  H20R 9720   3.899   5.961   6.854 -0.5192  1.1480 -2.0590
   97SAPE  H20S 9721   4.052   5.997   6.763 -0.5574  0.0967 -1.0245
   97SAPE  H20T 9722   4.034   5.841   6.865 -0.5108 -0.8442 -0.9510
   97SAPE   C33 9723   3.758   5.157   7.661  0.1138 -0.8008  0.0530
   97SAPE   H3X 9724   3.857   5.187   7.701 -0.5082 -0.0817  1.1010
   97SAPE   H3Y 9725   3.736   5.225   7.577  1.7930 -0.2815 -0.0082
   97SAPE   C34 9726   3.762   5.009   7.621 -0.2118  0.0428 -0.6041
   97SAPE   H4X 9727   3.663   4.970   7.586 -1.0829  0.9448  0.7753
   97SAPE   H4Y 9728   3.783   4.958   7.717  0.2742 -0.5892 -1.0276
   97SAPE   C35 9729   3.875   4.973   7.523 -0.1836 -0.2159 -0.5420
   97SAPE   H5X 9730   3.875   4.865   7.498 -0.6928  0.2792 -2.8390
   97SAPE   H5Y 9731   3.976   4.999   7.564  0.3964  1.3320 -2.7792
   97SAPE   C36 9732   3.864   5.045   7.389 -0.7501 -0.0182  0.1019
   97SAPE   H6X 9733   3.859   5.153   7.413  0.4703  0.0179  0.2413
   97SAPE   H6Y 9734   3.772   5.026   7.330  0.2399 -1.9506 -0.9086
   97SAPE   C37 9735   3.981   5.013   7.293 -0.4789 -0.4563  0.2721
   97SAPE   H7X 9736   3.979   4.905   7.269 -0.7818 -1.1432  3.0860
   97SAPE   H7Y 9737   4.076   5.044   7.343  1.6924 -0.3214 -3.5510
   97SAPE   C38 9738   3.972   5.088   7.161 -0.7628 -0.4480  0.7026
   97SAPE   H8X 9739   4.006   5.193   7.174  1.7671 -1.1478  0.2916
   97SAPE   H8Y 9740   3.865   5.084   7.135 -0.6166 -2.2887  0.2251
   97SAPE   C39 9741   4.054   5.023   7.048 -0.4599  0.2335 -0.1189
   97SAPE   H9X 9742   4.035   5.082   6.956  0.1401  1.8364  0.7569
   97SAPE   H9Y 9743   4.024   4.918   7.027 -0.6058  0.3239 -0.3625
   97SAPE  C310 9744   4.206   5.031   7.076  0.5474  0.0788  0.2084
   97SAPE  H10X 9745   4.219   4.965   7.164 -0.7633 -0.7278 -0.1819
   97SAPE  H10Y 9746   4.238   5.134   7.102 -1.2923  0.0020  3.1842
   97SAPE  C311 9747   4.296   4.981   6.956  0.3391  0.5203 -1.0879
   97SAPE  H11X 9748   4.249   4.887   6.922 -2.1916  0.7761  1.3741
   97SAPE  H11Y 9749   4.405   4.969   6.975  0.5639  3.5364  0.0535
   97SAPE  C312 9750   4.308   5.078   6.839  0.0176  0.5288  0.2726
   97SAPE  H12X 9751   4.372   5.163   6.871  0.3533  0.1273  0.6784
   97SAPE  H12Y 9752   4.206   5.110   6.808 -0.9394 -3.2267 -1.0424
   97SAPE  C313 9753   4.374   5.018   6.709  0.0605 -0.1101  0.5212
   97SAPE  H13X 9754   4.386   5.111   6.649 -0.3067  0.7859  1.8097
   97SAPE  H13Y 9755   4.305   4.946   6.660  0.8693 -1.0545  0.7556
   97SAPE  C314 9756   4.514   4.963   6.732 -0.5173 -0.0108  1.0619
   97SAPE  H14X 9757   4.514   4.882   6.808 -1.3360  1.4526  2.6764
   97SAPE  H14Y 9758   4.577   5.047   6.769  2.0598 -1.6971  0.7634
   97SAPE  C315 9759   4.589   4.912   6.605  0.1591 -0.2000 -0.5223
   97SAPE  H15X 9760   4.694   4.883   6.625 -0.1695 -1.1618 -0.1609
   97SAPE  H15Y 9761   4.596   4.997   6.534  0.1807  0.5249  0.3367
   97SAPE  C316 9762   4.520   4.790   6.536 -0.1960  0.2510 -0.1891
   97SAPE  H16X 9763   4.421   4.816   6.494 -0.2194 -1.3423 -1.1968
   97SAPE  H16Y 9764   4.499   4.712   6.613 -0.6458  0.2319 -0.3287
   97SAPE  C317 9765   4.616   4.734   6.431 -0.1708  0.4895 -0.7187
   97SAPE  H17X 9766   4.701   4.677   6.475 -1.5991 -1.7294 -0.6493
   97SAPE  H17Y 9767   4.661   4.812   6.366  0.2344  0.6342 -0.2714
   97SAPE  C318 9768   4.540   4.643   6.338 -0.5034 -0.3327 -0.1148
   97SAPE  H18X 9769   4.602   4.598   6.257  1.4901  2.0445 -0.0221
   97SAPE  H18Y 9770   4.473   4.703   6.273 -1.8431  0.3658  1.8223
   97SAPE  H18Z 9771   4.496   4.557   6.393  0.6767  1.6636  4.4633
   98SAPE     N 9772   2.855   5.084   8.109  0.5145  0.2201 -0.1696
   98SAPE   HN1 9773   2.853   5.183   8.143  0.3605  0.1300  0.0913
   98SAPE   HN2 9774   2.778   5.033   8.158  1.0253  1.0544  1.6034
   98SAPE   HN3 9775   2.947   5.045   8.137  1.3999  1.0206 -1.8692
   98SAPE   C12 9776   2.834   5.081   7.958 -0.0701  0.0293 -0.1111
   98SAPE  H12A 9777   2.780   5.176   7.938  1.0832  0.4182 -1.5511
   98SAPE  H12B 9778   2.775   4.989   7.937 -0.9225  0.2230  1.2848
   98SAPE   C11 9779   2.966   5.086   7.889 -0.0905  0.6447  0.6814
   98SAPE  H11A 9780   3.031   5.167   7.929  0.3307 -0.3525  2.0914
   98SAPE  H11B 9781   2.953   5.098   7.779  3.6258 -0.4814 -0.0057
   98SAPE     P 9782   3.138   4.924   8.013  0.5233 -0.4624 -0.1371
   98SAPE   O13 9783   3.106   5.000   8.135  0.9173  0.5312 -0.2074
   98SAPE   O14 9784   3.150   4.775   8.020 -0.0283  0.4115 -0.1758
   98SAPE   O12 9785   3.030   4.959   7.901 -0.4078  0.3019  0.9684
   98SAPE   O11 9786   3.272   4.978   7.960 -0.2463 -0.0305 -0.2933
   98SAPE    C1 9787   3.320   4.942   7.826  0.5231 -0.5971 -0.4661
   98SAPE    HA 9788   3.237   4.908   7.760  0.8459 -1.3288 -0.5003
   98SAPE    HB 9789   3.370   5.031   7.784  3.0465 -1.8893 -0.3837
   98SAPE    C2 9790   3.425   4.830   7.835  0.1706 -0.6027 -0.5049
   98SAPE    HS 9791   3.382   4.745   7.892 -3.2337  0.1383 -1.7069
   98SAPE   O21 9792   3.548   4.888   7.891 -0.0232 -0.6591  0.2593
   98SAPE   C21 9793   3.625   4.800   7.948  0.8306  0.4616  0.1335
   98SAPE   O22 9794   3.604   4.680   7.959  0.2546  0.0426 -0.0089
   98SAPE   C22 9795   3.736   4.887   8.005 -0.5262 -0.0816  0.8557
   98SAPE   H2R 9796   3.765   4.962   7.928  0.0304  0.7953  1.8843
   98SAPE   H2S 9797   3.698   4.941   8.095  1.2303  1.6077  0.6689
   98SAPE    C3 9798   3.455   4.767   7.693 -0.2507  0.2477  0.0506
   98SAPE    HX 9799   3.387   4.679   7.686  0.0858 -0.2386  2.1400
   98SAPE    HY 9800   3.555   4.719   7.686 -0.8856 -1.4439  1.6274
   98SAPE   O31 9801   3.437   4.870   7.596 -0.0060 -0.7249 -0.0443
   98SAPE   C31 9802   3.449   4.816   7.472  0.6413 -0.3918 -0.2879
   98SAPE   O32 9803   3.471   4.705   7.445  0.8216  0.5235 -0.0438
   98SAPE   C32 9804   3.447   4.932   7.374  0.4868 -0.3395  0.9498
   98SAPE   H2X 9805   3.533   5.000   7.391  1.2847 -0.8580 -0.6921
   98SAPE   H2Y 9806   3.362   4.999   7.397  1.5703  0.4673  2.7916
   98SAPE   C23 9807   3.874   4.814   8.036  0.6732 -0.4782  0.8575
   98SAPE   H3R 9808   3.948   4.895   8.053 -1.2401  1.4220  0.5445
   98SAPE   H3S 9809   3.900   4.747   7.951 -0.3009  0.5636 -0.3010
   98SAPE   C24 9810   3.857   4.724   8.159 -0.9056  0.0729  0.2234
   98SAPE   H4R 9811   3.773   4.653   8.143 -2.1266  1.6564 -0.6342
   98SAPE   H4S 9812   3.828   4.787   8.246  0.6116  1.6973 -0.3857
   98SAPE   C25 9813   3.983   4.649   8.198  0.6076  0.4368  0.0829
   98SAPE   H5R 9814   4.063   4.719   8.225 -1.1929  4.4462 -3.7547
   98SAPE   C26 9815   4.006   4.516   8.210  0.5098  0.2325  0.5889
   98SAPE   H6R 9816   4.104   4.480   8.245  0.2821 -0.9520  0.0680
   98SAPE   C27 9817   3.914   4.400   8.181 -0.2436 -0.3524  0.4349
   98SAPE   H7R 9818   3.810   4.435   8.161  0.8094  3.4350  0.8726
   98SAPE   H7S 9819   3.903   4.338   8.272  0.1251 -0.7382  0.2193
   98SAPE   C28 9820   3.965   4.307   8.068  0.9929 -0.0430 -0.5134
   98SAPE   H8R 9821   3.991   4.205   8.103  2.0810  1.0159  2.0137
   98SAPE   C29 9822   3.991   4.341   7.936 -0.1055  0.5522 -0.1684
   98SAPE   H9R 9823   4.047   4.268   7.876  1.1595  0.8304  0.6163
   98SAPE  C210 9824   3.983   4.483   7.886 -0.9631 -0.1164  0.2442
   98SAPE  H10R 9825   4.068   4.545   7.922 -1.8381  1.3806 -0.2090
   98SAPE  H10S 9826   3.898   4.542   7.926 -2.3516 -0.4930 -2.0013
   98SAPE  C211 9827   3.965   4.483   7.733  0.0800 -0.0184  0.0258
   98SAPE  H11R 9828   3.877   4.427   7.697 -0.3600 -1.3825  2.9088
   98SAPE  C212 9829   4.029   4.562   7.651 -0.7093 -0.8275  0.4696
   98SAPE  H12R 9830   4.008   4.559   7.543 -0.2074  2.5726  0.1854
   98SAPE  C213 9831   4.152   4.650   7.688 -0.0378  0.3939 -0.7520
   98SAPE  H13R 9832   4.144   4.690   7.791 -0.8153  2.7384 -1.6363
   98SAPE  H13S 9833   4.157   4.748   7.635 -1.3436 -0.0207 -1.6776
   98SAPE  C214 9834   4.279   4.573   7.677 -0.2228  0.9637 -0.4337
   98SAPE  H14R 9835   4.266   4.468   7.704 -0.5320  1.0644 -0.1792
   98SAPE  C215 9836   4.395   4.608   7.614 -0.0078  0.1732 -0.4631
   98SAPE  H15R 9837   4.474   4.533   7.619 -2.2672 -2.4128 -1.2594
   98SAPE  C216 9838   4.440   4.740   7.560  0.8194 -0.1748  0.3587
   98SAPE  H16R 9839   4.549   4.754   7.574  1.0277 -1.3932  0.0975
   98SAPE  H16S 9840   4.387   4.827   7.604  1.2988  0.7056 -0.7550
   98SAPE  C217 9841   4.410   4.756   7.407  0.6256  0.0307  0.0119
   98SAPE  H17R 9842   4.411   4.864   7.383 -2.0968  0.7605  2.5606
   98SAPE  H17S 9843   4.303   4.728   7.403  0.0670  0.2665  5.4304
   98SAPE  C218 9844   4.486   4.666   7.309 -0.2457 -0.1348  0.1472
   98SAPE  H18R 9845   4.481   4.559   7.339  2.2972 -0.4220 -0.1754
   98SAPE  H18S 9846   4.595   4.686   7.316 -0.5006  1.0297  1.0795
   98SAPE  C219 9847   4.442   4.681   7.164 -0.0038  0.8056  0.5501
   98SAPE  H19R 9848   4.425   4.789   7.145  1.7553  0.9396 -0.4528
   98SAPE  H19S 9849   4.345   4.628   7.162 -0.1778  1.0534  1.7868
   98SAPE  C220 9850   4.539   4.626   7.057  0.1575 -0.1942 -0.3875
   98SAPE  H20R 9851   4.528   4.515   7.053  2.4237 -0.4914  0.1326
   98SAPE  H20S 9852   4.645   4.658   7.068  0.8431 -2.2196 -0.5516
   98SAPE  H20T 9853   4.503   4.659   6.957 -1.4803  1.7241  0.7819
   98SAPE   C33 9854   3.467   4.888   7.227 -0.0578 -0.1237  0.1761
   98SAPE   H3X 9855   3.396   4.808   7.197 -0.6549  0.2683  0.5498
   98SAPE   H3Y 9856   3.571   4.853   7.207 -0.0074  1.0779 -2.0602
   98SAPE   C34 9857   3.439   5.012   7.135  0.5290  0.9877  0.0879
   98SAPE   H4X 9858   3.488   5.102   7.178  1.9047  0.0711  0.4819
   98SAPE   H4Y 9859   3.328   5.027   7.135  0.1705 -1.2471 -1.3160
   98SAPE   C35 9860   3.469   4.986   6.985  0.0607 -0.4326 -0.1287
   98SAPE   H5X 9861   3.421   5.071   6.933  0.6048  0.1603  0.3125
   98SAPE   H5Y 9862   3.435   4.885   6.954 -0.8664  0.4253 -2.0470
   98SAPE   C36 9863   3.621   4.985   6.946 -0.8109 -0.1855 -0.0701
   98SAPE   H6X 9864   3.665   4.904   7.008  0.2337 -0.3708 -1.0188
   98SAPE   H6Y 9865   3.652   5.085   6.981 -2.8305  1.6067 -3.0272
   98SAPE   C37 9866   3.637   4.970   6.794  0.6686 -0.1550 -0.0938
   98SAPE   H7X 9867   3.571   5.036   6.733  1.1686 -0.5786 -1.1246
   98SAPE   H7Y 9868   3.609   4.865   6.771 -1.0756  0.1711  0.3967
   98SAPE   C38 9869   3.791   4.988   6.756 -0.0031 -0.6458 -0.0429
   98SAPE   H8X 9870   3.864   4.930   6.817  1.2641 -0.4968 -1.3875
   98SAPE   H8Y 9871   3.829   5.091   6.774  2.4657 -1.4779 -0.1559
   98SAPE   C39 9872   3.828   4.955   6.610 -0.0474  0.3596  0.1513
   98SAPE   H9X 9873   3.749   5.009   6.553 -2.3553 -0.4072  2.4179
   98SAPE   H9Y 9874   3.822   4.846   6.593  0.6823  0.3507 -0.0553
   98SAPE  C310 9875   3.972   5.003   6.582 -0.1811 -0.4172 -0.2455
   98SAPE  H10X 9876   4.038   4.938   6.644 -1.2816 -0.4803  0.9137
   98SAPE  H10Y 9877   3.987   5.104   6.626 -0.9701 -0.4671  0.1723
   98SAPE  C311 9878   3.994   5.005   6.432  0.2565  0.1281 -0.6413
   98SAPE  H11X 9879   4.088   5.059   6.409 -0.5123  2.0784  0.5154
   98SAPE  H11Y 9880   3.912   5.063   6.385  1.5584  3.2773  0.7026
   98SAPE  C312 9881   4.011   4.861   6.380 -0.3953  0.2888 -0.0245
   98SAPE  H12X 9882   3.914   4.808   6.391 -0.1360 -0.2888 -0.5056
   98SAPE  H12Y 9883   4.089   4.802   6.433  0.1855  0.8108 -0.2796
   98SAPE  C313 9884   4.049   4.856   6.229  0.4592 -0.2324  0.7032
   98SAPE  H13X 9885   4.141   4.916   6.213  0.3650 -0.3478 -0.3205
   98SAPE  H13Y 9886   3.973   4.910   6.169  1.2110 -2.4087 -2.4348
   98SAPE  C314 9887   4.057   4.713   6.176  0.0276  0.5626 -0.3276
   98SAPE  H14X 9888   3.949   4.688   6.163 -0.6388  2.3208  1.2848
   98SAPE  H14Y 9889   4.088   4.648   6.261 -1.3015  0.8867  0.4436
   98SAPE  C315 9890   4.151   4.699   6.054 -0.1232  0.2571  0.7345
   98SAPE  H15X 9891   4.222   4.782   6.039 -0.1355  0.2108  0.4095
   98SAPE  H15Y 9892   4.094   4.680   5.960 -1.9334 -2.6031  2.2591
   98SAPE  C316 9893   4.250   4.575   6.086  0.4095 -0.1071 -0.0559
   98SAPE  H16X 9894   4.181   4.488   6.089 -0.9717  0.9754  1.7560
   98SAPE  H16Y 9895   4.280   4.590   6.192  2.1538  0.0399 -0.5371
   98SAPE  C317 9896   4.369   4.557   5.998  0.9670  0.1225  0.3665
   98SAPE  H17X 9897   4.422   4.655   5.993  1.5480 -0.2294 -2.2949
   98SAPE  H17Y 9898   4.343   4.550   5.890  3.3519 -2.3855 -0.1292
   98SAPE  C318 9899   4.462   4.446   6.046 -0.0374 -0.5264 -0.2807
   98SAPE  H18X 9900   4.459   4.428   6.156  0.2023  0.1375 -0.1580
   98SAPE  H18Y 9901   4.562   4.486   6.020 -0.7448  0.4957 -1.5846
   98SAPE  H18Z 9902   4.447   4.354   5.986 -1.5587 -1.2607  1.1535
   99SAPE     N 9903   3.836   2.998   9.284  0.3410 -0.1533 -0.0818
   99SAPE   HN1 9904   3.778   2.932   9.340  1.0143  0.2614  1.1568
   99SAPE   HN2 9905   3.813   3.091   9.325  2.9278  0.5937 -0.1687
   99SAPE   HN3 9906   3.802   2.985   9.187  0.6076  0.6594 -0.2870
   99SAPE   C12 9907   3.981   2.955   9.291  0.0927 -0.4362 -0.7275
   99SAPE  H12A 9908   3.987   2.846   9.269 -1.8184 -0.7580  0.1351
   99SAPE  H12B 9909   4.006   2.976   9.398 -2.4653  0.3727 -0.2234
   99SAPE   C11 9910   4.080   3.036   9.196  0.6330 -0.4812  0.3033
   99SAPE  H11A 9911   4.180   2.989   9.196  1.2863  0.7837 -1.7768
   99SAPE  H11B 9912   4.105   3.136   9.238  3.4797 -1.0121  0.0586
   99SAPE     P 9913   4.062   3.185   8.969 -0.0801  0.1718  0.2968
   99SAPE   O13 9914   3.972   3.179   8.850  0.4481  1.0367  0.2942
   99SAPE   O14 9915   4.055   3.314   9.046  0.2435  0.5462 -0.1305
   99SAPE   O12 9916   4.029   3.052   9.061  0.2497 -0.3812  0.1832
   99SAPE   O11 9917   4.211   3.154   8.930  0.3398 -0.1996  0.3725
   99SAPE    C1 9918   4.236   3.052   8.830  0.0318 -0.9503 -0.2367
   99SAPE    HA 9919   4.301   2.975   8.876  2.1209  1.1377  0.4894
   99SAPE    HB 9920   4.145   2.995   8.801 -1.8785  1.3680  0.8922
   99SAPE    C2 9921   4.294   3.099   8.692  0.3917 -0.2445 -0.0863
   99SAPE    HS 9922   4.365   3.020   8.660  0.9616  0.6903 -1.2079
   99SAPE   O21 9923   4.360   3.228   8.703 -0.1975  0.2140  0.4303
   99SAPE   C21 9924   4.479   3.221   8.756 -0.1259 -0.5319 -0.6176
   99SAPE   O22 9925   4.537   3.114   8.778 -0.2248 -0.4003  0.1055
   99SAPE   C22 9926   4.530   3.363   8.778 -0.4792  0.7701 -0.6819
   99SAPE   H2R 9927   4.509   3.422   8.686 -2.8060 -1.5444 -1.7738
   99SAPE   H2S 9928   4.472   3.415   8.857  1.7020 -0.9334  2.2175
   99SAPE    C3 9929   4.183   3.119   8.590  0.0536 -0.1043 -0.5683
   99SAPE    HX 9930   4.111   3.202   8.602 -1.2909 -1.3395  0.2724
   99SAPE    HY 9931   4.110   3.035   8.589 -1.3949  1.1191 -1.0080
   99SAPE   O31 9932   4.254   3.134   8.466  0.5769  0.1299 -0.5150
   99SAPE   C31 9933   4.208   3.064   8.351 -0.8401  0.1892 -1.0089
   99SAPE   O32 9934   4.097   3.018   8.337 -0.3942  0.6220  0.0672
   99SAPE   C32 9935   4.323   3.047   8.246 -0.1500  0.5189 -0.4674
   99SAPE   H2X 9936   4.404   3.003   8.307 -0.6338  2.4208  1.6749
   99SAPE   H2Y 9937   4.355   3.149   8.213  0.0529  0.8521  0.7195
   99SAPE   C23 9938   4.688   3.364   8.805 -1.0405  0.0549  0.6940
   99SAPE   H3R 9939   4.740   3.313   8.722  0.5820  0.9225  1.1542
   99SAPE   H3S 9940   4.706   3.304   8.897  0.6622  0.9220  0.9578
   99SAPE   C24 9941   4.738   3.505   8.834 -0.1575 -0.0308 -0.3892
   99SAPE   H4R 9942   4.714   3.533   8.939  0.9391  2.2700 -0.6681
   99SAPE   H4S 9943   4.692   3.586   8.773 -3.7447 -0.7547  1.1264
   99SAPE   C25 9944   4.891   3.493   8.819 -0.1299 -0.7820  0.1552
   99SAPE   H5R 9945   4.936   3.434   8.900 -0.1465  0.4629  1.0920
   99SAPE   C26 9946   4.969   3.558   8.734  0.6085 -0.8363  0.3489
   99SAPE   H6R 9947   5.077   3.534   8.739  1.0025  0.3608 -1.4650
   99SAPE   C27 9948   4.939   3.670   8.636 -0.2735 -0.5854  0.8390
   99SAPE   H7R 9949   5.034   3.728   8.634 -0.3560 -0.3110 -3.3023
   99SAPE   H7S 9950   4.864   3.741   8.677 -0.1873  0.7892 -1.2027
   99SAPE   C28 9951   4.897   3.632   8.498  0.3330 -0.4102  0.0896
   99SAPE   H8R 9952   4.829   3.545   8.490  2.6356 -2.5720  2.4555
   99SAPE   C29 9953   4.951   3.688   8.386 -0.2357  0.0916  0.2091
   99SAPE   H9R 9954   4.910   3.667   8.286 -2.4494  2.3398  0.5527
   99SAPE  C210 9955   5.061   3.796   8.382  0.0019 -0.4802 -0.1860
   99SAPE  H10R 9956   5.000   3.873   8.435 -0.2766 -0.3297 -0.7173
   99SAPE  H10S 9957   5.075   3.824   8.275  0.4636 -1.6743 -0.4597
   99SAPE  C211 9958   5.192   3.778   8.451 -0.2531  0.0865  0.5540
   99SAPE  H11R 9959   5.212   3.850   8.532 -0.0272 -0.5247  1.0520
   99SAPE  C212 9960   5.284   3.688   8.417 -0.3713 -0.1505  0.2128
   99SAPE  H12R 9961   5.376   3.692   8.478 -0.9344 -0.8337  1.1364
   99SAPE  C213 9962   5.264   3.590   8.296 -0.6121  0.0408 -0.9516
   99SAPE  H13R 9963   5.157   3.559   8.291 -0.6427 -0.7946  2.4479
   99SAPE  H13S 9964   5.306   3.494   8.332 -1.3509  0.2521  0.5692
   99SAPE  C214 9965   5.329   3.627   8.168 -0.2364 -0.1625 -0.1713
   99SAPE  H14R 9966   5.437   3.644   8.175 -0.2646 -0.7147  2.2172
   99SAPE  C215 9967   5.278   3.614   8.043  0.7150  0.1162 -0.2146
   99SAPE  H15R 9968   5.344   3.626   7.955  2.9972  1.1082  1.5051
   99SAPE  C216 9969   5.139   3.558   8.008  0.5060 -0.5056  0.0123
   99SAPE  H16R 9970   5.085   3.501   8.087 -0.9300 -0.8489 -1.1680
   99SAPE  H16S 9971   5.152   3.480   7.930  1.2815  0.1057 -0.4806
   99SAPE  C217 9972   5.051   3.673   7.959  0.2934  0.2152  0.2104
   99SAPE  H17R 9973   5.046   3.761   8.026  1.5096  1.9067 -1.7787
   99SAPE  H17S 9974   4.950   3.627   7.952  1.2496 -2.9401  3.7873
   99SAPE  C218 9975   5.081   3.741   7.822 -0.2025  0.5040 -0.4390
   99SAPE  H18R 9976   5.188   3.772   7.826  0.8173 -2.6565 -0.2857
   99SAPE  H18S 9977   5.015   3.829   7.805 -0.8139 -0.3493 -2.8676
   99SAPE  C219 9978   5.067   3.656   7.702  0.2873 -0.3038 -0.0896
   99SAPE  H19R 9979   4.975   3.594   7.700  1.6033 -2.4109  0.9463
   99SAPE  H19S 9980   5.150   3.583   7.709  0.1699 -0.2874  2.2740
   99SAPE  C220 9981   5.082   3.729   7.568 -0.2548 -0.7312 -0.1452
   99SAPE  H20R 9982   4.997   3.796   7.542  0.3258 -0.3961 -1.2354
   99SAPE  H20S 9983   5.087   3.653   7.488 -0.4670 -1.1912  0.2760
   99SAPE  H20T 9984   5.180   3.781   7.573 -0.8581  0.5778 -1.2193
   99SAPE   C33 9985   4.296   2.952   8.127 -0.2605 -0.1937 -0.5015
   99SAPE   H3X 9986   4.223   2.874   8.157  0.0247 -0.5349 -0.6921
   99SAPE   H3Y 9987   4.391   2.906   8.091  0.3095 -0.8894  1.7395
   99SAPE   C34 9988   4.228   3.026   8.015 -0.1473 -0.2181  0.8422
   99SAPE   H4X 9989   4.286   3.109   7.970  0.8109 -1.5256 -0.4096
   99SAPE   H4Y 9990   4.128   3.061   8.051 -0.0193  0.4336  0.5806
   99SAPE   C35 9991   4.212   2.940   7.886 -0.5218  0.3958  0.6819
   99SAPE   H5X 9992   4.155   2.848   7.908  0.8948 -1.4498 -2.6225
   99SAPE   H5Y 9993   4.312   2.896   7.867 -0.0029  1.5326  0.6956
   99SAPE   C36 9994   4.162   3.024   7.772  0.4638 -0.0687  0.5205
   99SAPE   H6X 9995   4.219   3.119   7.767 -1.4015  1.1136  0.7121
   99SAPE   H6Y 9996   4.057   3.058   7.785  0.5577  0.3360  0.2357
   99SAPE   C37 9997   4.180   2.942   7.643 -0.9363 -0.0324  0.2730
   99SAPE   H7X 9998   4.135   2.841   7.642  2.6393 -1.8511  2.5911
   99SAPE   H7Y 9999   4.290   2.924   7.635 -0.4041  2.2054  1.7857
   99SAPE   C3810000   4.131   3.020   7.522  0.3744 -0.0711 -0.2754
   99SAPE   H8X10001   4.167   3.122   7.543  0.5643 -0.4998  1.6730
   99SAPE   H8Y10002   4.020   3.027   7.534  0.1513 -0.8306 -1.6358
   99SAPE   C3910003   4.167   2.965   7.385  0.3921  0.9779 -0.2026
   99SAPE   H9X10004   4.108   2.872   7.375 -0.0921  1.4520 -2.1662
   99SAPE   H9Y10005   4.274   2.939   7.403 -0.0970 -1.2404 -0.2231
   99SAPE  C31010006   4.127   3.064   7.274  0.6351  0.4806 -0.1134
   99SAPE  H10X10007   4.175   3.044   7.176  1.4603 -3.4940  0.9248
   99SAPE  H10Y10008   4.143   3.166   7.314 -0.7264  0.6112  0.1408
   99SAPE  C31110009   3.974   3.038   7.263  0.0554 -0.0772 -0.3333
   99SAPE  H11X10010   3.924   3.054   7.361 -1.0055 -0.5164 -0.7890
   99SAPE  H11Y10011   3.962   2.929   7.249  1.4194 -0.5760  1.8301
   99SAPE  C31210012   3.902   3.122   7.164 -0.4031 -0.0753 -0.0345
   99SAPE  H12X10013   3.957   3.216   7.143  1.3241 -1.2220 -0.8781
   99SAPE  H12Y10014   3.808   3.158   7.211  0.2078 -0.3029  1.4008
   99SAPE  C31310015   3.869   3.054   7.032 -0.4400  0.3693  0.4590
   99SAPE  H13X10016   3.789   2.978   7.048 -2.7211  2.5492  0.1884
   99SAPE  H13Y10017   3.957   2.995   7.000 -2.2940 -2.9872  1.1029
   99SAPE  C31410018   3.851   3.160   6.918 -0.2519 -0.4156 -0.0765
   99SAPE  H14X10019   3.796   3.245   6.965  1.1552  0.1586  0.6014
   99SAPE  H14Y10020   3.784   3.120   6.840  2.5415  0.0785 -2.9073
   99SAPE  C31510021   3.975   3.223   6.851 -0.4231  0.2840  0.2966
   99SAPE  H15X10022   4.029   3.134   6.810 -0.4885 -0.1683  1.1644
   99SAPE  H15Y10023   4.029   3.268   6.937 -1.4440 -0.3332  1.2900
   99SAPE  C31610024   3.945   3.330   6.744  0.2441  0.2541 -0.1457
   99SAPE  H16X10025   3.894   3.412   6.800 -5.9778 -1.9300 -1.8189
   99SAPE  H16Y10026   3.867   3.279   6.684 -0.8522  1.2231  0.4225
   99SAPE  C31710027   4.071   3.372   6.662  0.0447 -0.5021  0.9266
   99SAPE  H17X10028   4.052   3.453   6.589  2.6999  0.8301  1.5822
   99SAPE  H17Y10029   4.102   3.284   6.603 -1.5025  0.7398 -1.9119
   99SAPE  C31810030   4.186   3.420   6.746 -0.2230 -0.4218  0.1204
   99SAPE  H18X10031   4.148   3.501   6.813 -1.6690 -1.2492  0.3388
   99SAPE  H18Y10032   4.275   3.457   6.691  0.4500 -0.4494  1.1503
   99SAPE  H18Z10033   4.231   3.343   6.811  2.9636  1.5092  0.4423
  100SAPE     N10034   4.239   1.687   8.524 -0.1472  0.3507 -0.0220
  100SAPE   HN110035   4.150   1.701   8.471 -0.6607  0.1799  0.7735
  100SAPE   HN210036   4.230   1.589   8.560 -1.2686 -0.2248 -1.7454
  100SAPE   HN310037   4.231   1.735   8.616  0.0138 -0.2149  0.2923
  100SAPE   C1210038   4.362   1.717   8.444 -0.2541  0.1150 -0.8662
  100SAPE  H12A10039   4.351   1.668   8.344 -3.5739  1.1616 -1.1205
  100SAPE  H12B10040   4.439   1.662   8.503  0.0565 -0.8178 -2.0809
  100SAPE   C1110041   4.392   1.868   8.437  0.7199 -0.0204  0.3469
  100SAPE  H11A10042   4.363   1.912   8.535 -2.0749 -0.8229 -0.0315
  100SAPE  H11B10043   4.335   1.917   8.355  1.2721 -0.6734 -0.4510
  100SAPE     P10044   4.603   2.027   8.383 -0.3714  0.2946 -0.4267
  100SAPE   O1310045   4.581   2.115   8.502 -0.0912 -0.2931  0.3270
  100SAPE   O1410046   4.743   1.997   8.347 -0.3325  0.2778 -0.0794
  100SAPE   O1210047   4.530   1.890   8.411  0.0281  0.0548  0.3301
  100SAPE   O1110048   4.529   2.079   8.254  0.0856  0.3375 -0.3107
  100SAPE    C110049   4.515   2.219   8.233  0.3678 -0.4456 -0.2327
  100SAPE    HA10050   4.563   2.278   8.315  0.8047 -1.3392  0.1614
  100SAPE    HB10051   4.571   2.246   8.141 -0.6083 -1.2950 -1.1120
  100SAPE    C210052   4.367   2.268   8.226  0.4190 -0.1566  0.3359
  100SAPE    HS10053   4.321   2.236   8.322  0.2803 -0.3962  0.1908
  100SAPE   O2110054   4.305   2.194   8.119 -0.3484 -0.0223 -0.2949
  100SAPE   C2110055   4.178   2.212   8.091  0.4681  0.4292  1.2858
  100SAPE   O2210056   4.090   2.261   8.158  0.6409 -0.3993  0.3668
  100SAPE   C2210057   4.151   2.126   7.965  0.6352 -0.6891  0.2166
  100SAPE   H2R10058   4.178   2.020   7.988  0.3261 -0.7161  0.4542
  100SAPE   H2S10059   4.040   2.125   7.960  0.4402  0.6348  2.7444
  100SAPE    C310060   4.366   2.424   8.193 -0.3847 -0.3126  0.1193
  100SAPE    HX10061   4.413   2.481   8.276  0.1041  0.6507 -0.8040
  100SAPE    HY10062   4.258   2.448   8.200 -0.1123  0.9752  0.2261
  100SAPE   O3110063   4.420   2.454   8.069 -0.2421  0.0816  0.2292
  100SAPE   C3110064   4.360   2.561   8.001 -0.2928 -0.4012 -1.1225
  100SAPE   O3210065   4.259   2.615   8.039  0.6744 -0.7091  0.1829
  100SAPE   C3210066   4.438   2.591   7.879 -0.0315 -0.1958  0.7509
  100SAPE   H2X10067   4.536   2.540   7.875 -0.0985 -0.3125 -3.1858
  100SAPE   H2Y10068   4.452   2.702   7.877  1.9733 -0.4278 -1.1554
  100SAPE   C2310069   4.228   2.168   7.842 -0.1086  0.1630  0.5233
  100SAPE   H3R10070   4.329   2.205   7.868  1.3580 -2.7417 -0.5318
  100SAPE   H3S10071   4.176   2.256   7.800  0.5804  1.5249  2.4015
  100SAPE   C2410072   4.254   2.059   7.735 -0.0297  0.0155 -0.7583
  100SAPE   H4R10073   4.157   2.014   7.705  0.1700 -1.0701  0.1253
  100SAPE   H4S10074   4.315   1.983   7.789 -0.0947  0.6130  0.1754
  100SAPE   C2510075   4.323   2.119   7.619  0.2759  0.2842  0.3700
  100SAPE   H5R10076   4.432   2.122   7.630  0.3839 -1.4170  0.0100
  100SAPE   C2610077   4.276   2.170   7.503 -0.2146  0.4893 -0.2079
  100SAPE   H6R10078   4.343   2.200   7.422  0.0317  0.2530 -0.0916
  100SAPE   C2710079   4.132   2.189   7.453  0.1975  0.0914 -0.4332
  100SAPE   H7R10080   4.128   2.288   7.402  0.9164 -1.2348 -3.2682
  100SAPE   H7S10081   4.060   2.188   7.538 -0.3903 -0.6501 -0.9254
  100SAPE   C2810082   4.091   2.079   7.354  0.4611  0.0523 -0.3927
  100SAPE   H8R10083   4.120   1.979   7.387  3.1617  0.8225 -0.1484
  100SAPE   C2910084   4.036   2.095   7.228  0.2593  0.5316  0.1322
  100SAPE   H9R10085   4.024   2.009   7.161 -0.4638  0.9315 -0.2593
  100SAPE  C21010086   4.012   2.227   7.166 -0.1454  0.1233  0.0211
  100SAPE  H10R10087   4.116   2.251   7.134  0.5156 -1.8853  0.4550
  100SAPE  H10S10088   3.977   2.300   7.243 -1.1150 -0.1354 -0.1649
  100SAPE  C21110089   3.912   2.215   7.060  1.1188  0.2442  0.4337
  100SAPE  H11R10090   3.823   2.154   7.081 -0.2457  1.5372 -1.2456
  100SAPE  C21210091   3.923   2.278   6.938 -0.4641 -0.0310  0.5032
  100SAPE  H12R10092   3.840   2.275   6.865  0.4298 -0.4710 -0.5310
  100SAPE  C21310093   4.033   2.372   6.887 -0.6958 -0.4690 -0.6062
  100SAPE  H13R10094   4.116   2.390   6.958 -0.7446 -0.6813 -0.4930
  100SAPE  H13S10095   3.985   2.472   6.881 -1.6986 -0.7457  1.7316
  100SAPE  C21410096   4.103   2.344   6.761 -0.0555 -0.0818  0.2732
  100SAPE  H14R10097   4.139   2.240   6.758  0.7988  0.2108 -0.0201
  100SAPE  C21510098   4.126   2.414   6.650  0.4674 -0.0335  0.5386
  100SAPE  H15R10099   4.167   2.359   6.564 -2.7293  0.3010 -1.3295
  100SAPE  C21610100   4.085   2.559   6.623 -0.1342  0.9626 -0.7212
  100SAPE  H16R10101   4.071   2.606   6.723 -1.5649 -0.4193 -0.2273
  100SAPE  H16S10102   3.989   2.573   6.570 -1.3462  2.2327  1.6230
  100SAPE  C21710103   4.194   2.632   6.542 -0.2563 -0.1510 -0.0771
  100SAPE  H17R10104   4.293   2.614   6.588 -1.3294 -1.0426  1.9835
  100SAPE  H17S10105   4.171   2.741   6.543  0.2136 -0.0467 -0.4414
  100SAPE  C21810106   4.189   2.587   6.391  0.8127  0.1734  0.8631
  100SAPE  H18R10107   4.228   2.483   6.393 -3.0196 -1.3994  1.4782
  100SAPE  H18S10108   4.258   2.638   6.320 -0.8557  0.3606 -0.6915
  100SAPE  C21910109   4.052   2.606   6.320 -0.3830  0.1205 -0.4317
  100SAPE  H19R10110   4.069   2.661   6.225  3.2863  0.2958  0.1608
  100SAPE  H19S10111   3.989   2.666   6.389  2.4220  1.4957  1.1389
  100SAPE  C22010112   3.986   2.477   6.271  0.9232  0.5326  0.6669
  100SAPE  H20R10113   4.048   2.419   6.198 -0.6629 -1.1721  0.6122
  100SAPE  H20S10114   3.888   2.511   6.232 -0.1692 -1.9660  1.0267
  100SAPE  H20T10115   3.966   2.407   6.354 -1.8715  0.2878 -0.1344
  100SAPE   C3310116   4.349   2.558   7.759  0.7246  0.3102 -0.4179
  100SAPE   H3X10117   4.259   2.622   7.772  1.2814  0.6341  2.5915
  100SAPE   H3Y10118   4.318   2.453   7.745 -1.0877  0.7999 -0.2957
  100SAPE   C3410119   4.411   2.599   7.622 -0.6000 -0.3908 -0.3396
  100SAPE   H4X10120   4.515   2.561   7.612 -0.2652  0.4294 -0.0838
  100SAPE   H4Y10121   4.417   2.709   7.610  2.0504 -0.0582  2.5358
  100SAPE   C3510122   4.332   2.545   7.508 -0.2531 -0.2521 -0.0634
  100SAPE   H5X10123   4.232   2.594   7.509 -0.6766 -1.1020  0.2109
  100SAPE   H5Y10124   4.315   2.435   7.520 -0.6058 -0.5482 -2.6052
  100SAPE   C3610125   4.405   2.550   7.373  0.5312 -0.0452  0.6477
  100SAPE   H6X10126   4.499   2.491   7.385 -0.2530 -1.7139 -0.9287
  100SAPE   H6Y10127   4.431   2.653   7.339  1.8504 -0.3486  0.6828
  100SAPE   C3710128   4.329   2.496   7.253  0.6990 -0.3991  0.6903
  100SAPE   H7X10129   4.253   2.421   7.287 -1.0587  1.3965  0.8917
  100SAPE   H7Y10130   4.385   2.434   7.179 -0.7071 -0.5253 -0.3117
  100SAPE   C3810131   4.246   2.602   7.177 -0.2470  0.5275  0.2680
  100SAPE   H8X10132   4.202   2.668   7.255 -1.4109 -0.4086  0.4297
  100SAPE   H8Y10133   4.165   2.542   7.130  0.8345 -3.3353  2.9138
  100SAPE   C3910134   4.325   2.680   7.082 -0.2921  0.4175 -0.7824
  100SAPE   H9X10135   4.398   2.619   7.025 -1.1417 -0.3905 -1.0240
  100SAPE   H9Y10136   4.373   2.759   7.144  0.9374 -2.7510  2.6355
  100SAPE  C31010137   4.233   2.745   6.977  0.1717 -0.5156  0.4671
  100SAPE  H10X10138   4.144   2.789   7.027 -0.4004 -0.6355 -0.4160
  100SAPE  H10Y10139   4.200   2.667   6.905 -0.4347  2.1161 -2.3304
  100SAPE  C31110140   4.317   2.851   6.896 -0.1517  0.5648  0.7876
  100SAPE  H11X10141   4.402   2.804   6.842 -0.6242 -0.0121  0.5330
  100SAPE  H11Y10142   4.366   2.925   6.963  0.4117 -0.4258  1.4904
  100SAPE  C31210143   4.213   2.921   6.804  0.3310  0.2439 -0.6155
  100SAPE  H12X10144   4.137   2.976   6.862 -0.4711  0.4168 -1.7826
  100SAPE  H12Y10145   4.157   2.843   6.747  0.7368 -0.1588 -0.4722
  100SAPE  C31310146   4.270   3.029   6.710 -0.0584 -0.6488 -0.8881
  100SAPE  H13X10147   4.297   3.114   6.776 -1.1037 -1.1937  0.2857
  100SAPE  H13Y10148   4.188   3.084   6.659 -0.7946 -0.2191  0.6797
  100SAPE  C31410149   4.376   2.983   6.619  0.0023 -0.2833  0.2387
  100SAPE  H14X10150   4.357   2.877   6.591  1.6991 -0.7443  0.7463
  100SAPE  H14Y10151   4.473   2.969   6.671 -0.1586  0.3435  0.7268
  100SAPE  C31510152   4.388   3.064   6.493 -0.7363  0.7175 -0.2823
  100SAPE  H15X10153   4.487   3.044   6.448 -0.0418 -0.7367  1.7702
  100SAPE  H15Y10154   4.389   3.170   6.525 -0.2388 -0.0026  2.2345
  100SAPE  C31610155   4.266   3.047   6.393 -0.1869 -0.1710 -0.9538
  100SAPE  H16X10156   4.181   3.099   6.441  0.9457  1.4482 -0.6099
  100SAPE  H16Y10157   4.247   2.940   6.370 -0.2705  0.0215 -1.8499
  100SAPE  C31710158   4.296   3.117   6.263 -0.0268  0.2696 -0.5326
  100SAPE  H17X10159   4.300   3.030   6.194  2.2713 -1.0045  1.0801
  100SAPE  H17Y10160   4.402   3.149   6.255 -0.3043  1.4553  0.2626
  100SAPE  C31810161   4.201   3.230   6.213 -0.2640 -0.6582  0.0209
  100SAPE  H18X10162   4.239   3.271   6.117 -1.9747  0.3560 -0.2795
  100SAPE  H18Y10163   4.215   3.313   6.284 -0.1756  1.1366 -1.9840
  100SAPE  H18Z10164   4.095   3.198   6.200  0.1138 -2.1967  0.4965
  101SAPE     N10165   5.271   6.298   7.824  0.4273  0.3195  0.2934
  101SAPE   HN110166   5.171   6.326   7.815  0.3303  0.6015  1.9124
  101SAPE   HN210167   5.283   6.249   7.915  3.5620 -0.7974 -0.6113
  101SAPE   HN310168   5.329   6.383   7.832  0.1203  0.4022  2.0295
  101SAPE   C1210169   5.315   6.215   7.707 -0.6412  0.9161 -0.3239
  101SAPE  H12A10170   5.264   6.251   7.615 -1.8843 -0.4663 -0.2236
  101SAPE  H12B10171   5.270   6.116   7.728  0.3048  0.8003  1.3263
  101SAPE   C1110172   5.463   6.201   7.702  0.1139  0.0346 -0.4191
  101SAPE  H11A10173   5.512   6.300   7.692 -0.5818  0.2036 -2.7574
  101SAPE  H11B10174   5.482   6.140   7.611 -1.2149 -3.3437  1.3913
  101SAPE     P10175   5.654   6.164   7.885  0.3990 -0.2611 -0.1149
  101SAPE   O1310176   5.667   6.309   7.881  0.5888 -0.5069 -0.1854
  101SAPE   O1410177   5.663   6.088   8.013 -0.7360  0.4866  0.2147
  101SAPE   O1210178   5.515   6.131   7.817  0.0709  0.0252 -0.2099
  101SAPE   O1110179   5.764   6.091   7.797  0.2470 -0.0258  0.1071
  101SAPE    C110180   5.760   6.068   7.667  0.4263 -0.6768  0.3455
  101SAPE    HA10181   5.718   6.159   7.618  1.4549 -0.7027 -0.6270
  101SAPE    HB10182   5.865   6.065   7.632  1.0798 -0.1327  2.1807
  101SAPE    C210183   5.682   5.942   7.630 -0.0711 -0.3602  0.2746
  101SAPE    HS10184   5.579   5.943   7.671 -0.3547  2.9310 -0.2605
  101SAPE   O2110185   5.758   5.828   7.663  0.4485  0.5014 -0.3285
  101SAPE   C2110186   5.690   5.715   7.688  0.1919  0.0621  0.0683
  101SAPE   O2210187   5.571   5.714   7.719  0.2906  0.1151 -0.3090
  101SAPE   C2210188   5.774   5.581   7.664  0.3517 -0.3301  0.3444
  101SAPE   H2R10189   5.826   5.606   7.569 -2.6459 -1.4673 -1.7575
  101SAPE   H2S10190   5.835   5.556   7.753 -1.1051 -0.8707  1.2240
  101SAPE    C310191   5.662   5.945   7.474 -0.1019 -0.5859  0.8960
  101SAPE    HX10192   5.770   5.939   7.446  0.6188 -2.3944  3.6958
  101SAPE    HY10193   5.619   6.043   7.442 -0.3410 -0.2372  2.2462
  101SAPE   O3110194   5.579   5.833   7.425  0.0134 -0.6616  0.0513
  101SAPE   C3110195   5.446   5.859   7.426 -0.6015  0.4716 -0.2846
  101SAPE   O3210196   5.405   5.976   7.438 -0.1563  0.3332 -0.1348
  101SAPE   C3210197   5.357   5.741   7.418 -0.5027  0.1240  0.2874
  101SAPE   H2X10198   5.256   5.787   7.424 -0.4099  0.6475 -1.5286
  101SAPE   H2Y10199   5.389   5.673   7.500 -1.5095 -0.9432 -0.1857
  101SAPE   C2310200   5.679   5.461   7.641  0.3064  0.3887 -0.3158
  101SAPE   H3R10201   5.594   5.447   7.711  0.7161 -1.5224 -0.1453
  101SAPE   H3S10202   5.747   5.375   7.657 -2.8673 -2.5293 -1.4749
  101SAPE   C2410203   5.629   5.462   7.496  0.5304  0.1904  0.4050
  101SAPE   H4R10204   5.716   5.431   7.436  0.3085  1.7681 -0.8086
  101SAPE   H4S10205   5.597   5.564   7.467  0.8441  0.4075  0.8117
  101SAPE   C2510206   5.529   5.354   7.479  1.0670  0.4941  0.3367
  101SAPE   H5R10207   5.434   5.360   7.535  0.3898 -1.7944 -0.4129
  101SAPE   C2610208   5.546   5.246   7.392 -0.6508 -0.6070  0.2973
  101SAPE   H6R10209   5.472   5.164   7.395 -0.4249 -0.9596 -2.0020
  101SAPE   C2710210   5.657   5.230   7.301  0.2741 -0.2099 -0.0785
  101SAPE   H7R10211   5.754   5.216   7.354  1.3194 -3.7066 -2.5470
  101SAPE   H7S10212   5.661   5.330   7.253 -2.7149  0.4206  0.8002
  101SAPE   C2810213   5.644   5.118   7.199  0.3424  0.1663  0.1977
  101SAPE   H8R10214   5.635   5.016   7.238  2.8742  1.2510  4.2045
  101SAPE   C2910215   5.593   5.132   7.076 -0.1863 -0.1919 -0.0609
  101SAPE   H9R10216   5.568   5.042   7.018  1.2761 -1.3462  1.0266
  101SAPE  C21010217   5.569   5.264   7.003 -0.9429  0.1404  0.0716
  101SAPE  H10R10218   5.540   5.346   7.072 -0.7743 -1.3302  1.9373
  101SAPE  H10S10219   5.479   5.247   6.940 -1.5287 -0.5135  1.0714
  101SAPE  C21110220   5.688   5.296   6.924 -0.3202  0.4245  0.3461
  101SAPE  H11R10221   5.770   5.322   6.993 -0.0123 -2.7434  1.3660
  101SAPE  C21210222   5.700   5.299   6.790  0.3956  0.0760  0.5750
  101SAPE  H12R10223   5.798   5.331   6.751 -0.9124  0.8290 -2.3036
  101SAPE  C21310224   5.598   5.262   6.687 -0.5984 -0.3215 -0.2160
  101SAPE  H13R10225   5.616   5.333   6.603  1.8502  0.3036  0.7340
  101SAPE  H13S10226   5.498   5.289   6.727 -0.1710  2.5842 -0.8455
  101SAPE  C21410227   5.598   5.116   6.645 -0.1347 -0.0943  0.6357
  101SAPE  H14R10228   5.588   5.040   6.724  0.2961 -2.5465 -1.5275
  101SAPE  C21510229   5.628   5.059   6.525  0.0016  0.1442 -0.0381
  101SAPE  H15R10230   5.610   4.951   6.523 -0.8554  0.2369  1.4985
  101SAPE  C21610231   5.678   5.124   6.400  0.3243  0.4156  0.1026
  101SAPE  H16R10232   5.741   5.053   6.342 -1.8155 -1.9018  0.3951
  101SAPE  H16S10233   5.748   5.206   6.427  1.4288  0.1010 -1.6904
  101SAPE  C21710234   5.568   5.182   6.308 -0.1991  0.3117 -0.3493
  101SAPE  H17R10235   5.497   5.244   6.367 -0.8590  0.0052 -0.8082
  101SAPE  H17S10236   5.494   5.109   6.271  0.8572 -1.5365  1.0227
  101SAPE  C21810237   5.628   5.269   6.191 -0.2293 -0.1301 -0.5507
  101SAPE  H18R10238   5.708   5.217   6.134  0.7722  0.9363 -0.1640
  101SAPE  H18S10239   5.673   5.359   6.238  0.7822 -0.1722 -1.4031
  101SAPE  C21910240   5.530   5.320   6.085  0.1474  0.4599  0.3083
  101SAPE  H19R10241   5.585   5.397   6.025  1.8264 -1.6187 -0.9630
  101SAPE  H19S10242   5.445   5.365   6.142 -1.6112 -0.1633 -1.6952
  101SAPE  C22010243   5.472   5.214   5.989  0.4892  0.4782 -0.1951
  101SAPE  H20R10244   5.418   5.134   6.044  1.0374 -0.7890 -1.3962
  101SAPE  H20S10245   5.549   5.174   5.918  0.3233 -0.3512  0.0796
  101SAPE  H20T10246   5.397   5.265   5.925 -0.0543  1.6051  1.2797
  101SAPE   C3310247   5.374   5.653   7.291 -0.2192 -0.6085  0.0796
  101SAPE   H3X10248   5.313   5.563   7.311 -1.7620  0.5697  0.8676
  101SAPE   H3Y10249   5.480   5.619   7.284 -0.3333 -0.5620 -2.7633
  101SAPE   C3410250   5.344   5.716   7.158  0.5456 -0.1796 -0.1291
  101SAPE   H4X10251   5.408   5.804   7.139  0.8030  0.4068  2.9414
  101SAPE   H4Y10252   5.236   5.744   7.161  0.5364 -0.2857  0.8284
  101SAPE   C3510253   5.365   5.628   7.039  0.2018  0.3244  0.7829
  101SAPE   H5X10254   5.267   5.593   7.001  0.8542  0.8217 -1.5287
  101SAPE   H5Y10255   5.443   5.550   7.052  0.8744  0.2221 -2.7919
  101SAPE   C3610256   5.410   5.705   6.910 -0.1233 -0.3156 -0.0658
  101SAPE   H6X10257   5.510   5.741   6.942 -0.4479 -0.5979  1.3532
  101SAPE   H6Y10258   5.343   5.789   6.883 -2.5047 -2.7470 -2.4413
  101SAPE   C3710259   5.435   5.609   6.798  0.4108 -0.3495  0.0272
  101SAPE   H7X10260   5.364   5.523   6.799 -0.3506  0.2027  2.8935
  101SAPE   H7Y10261   5.526   5.550   6.821  0.2535 -1.0433 -1.0080
  101SAPE   C3810262   5.421   5.667   6.654 -0.3874  0.6471 -0.7622
  101SAPE   H8X10263   5.480   5.757   6.626  0.9391  0.5902  1.6024
  101SAPE   H8Y10264   5.314   5.696   6.641 -1.1119 -1.4915 -0.0243
  101SAPE   C3910265   5.453   5.565   6.543 -0.7819 -0.5079 -1.0415
  101SAPE   H9X10266   5.399   5.469   6.552  0.9735 -1.5463 -1.1882
  101SAPE   H9Y10267   5.554   5.532   6.574 -0.8324  0.6726  0.5272
  101SAPE  C31010268   5.444   5.615   6.400  0.6000  0.1131  0.5203
  101SAPE  H10X10269   5.469   5.528   6.336 -0.5321  0.2876 -0.1709
  101SAPE  H10Y10270   5.518   5.691   6.366  1.1501 -0.7411 -0.2551
  101SAPE  C31110271   5.310   5.662   6.355  0.3586 -0.0609  0.7860
  101SAPE  H11X10272   5.297   5.772   6.367 -3.8370 -0.3165  0.0942
  101SAPE  H11Y10273   5.231   5.630   6.427 -0.2656 -2.3417 -0.8043
  101SAPE  C31210274   5.259   5.610   6.213 -0.1193 -0.2027 -0.4557
  101SAPE  H12X10275   5.151   5.633   6.207  0.3484  2.3338 -0.3047
  101SAPE  H12Y10276   5.297   5.505   6.215  0.8606  0.1429  0.6071
  101SAPE  C31310277   5.330   5.681   6.095 -0.3097 -0.9678  0.4049
  101SAPE  H13X10278   5.437   5.675   6.124  0.3783 -0.1038 -1.7742
  101SAPE  H13Y10279   5.295   5.784   6.073  0.5297 -1.2842 -2.9423
  101SAPE  C31410280   5.310   5.609   5.963 -0.5241 -0.3592 -0.1342
  101SAPE  H14X10281   5.209   5.635   5.922 -0.2740  0.3695 -0.3166
  101SAPE  H14Y10282   5.321   5.499   5.974  0.1303 -0.1491  1.5632
  101SAPE  C31510283   5.398   5.650   5.847 -0.5813  0.0269  0.3149
  101SAPE  H15X10284   5.501   5.619   5.875 -1.2773 -0.9087  1.9638
  101SAPE  H15Y10285   5.401   5.761   5.834  0.8196  0.2103  1.8259
  101SAPE  C31610286   5.357   5.587   5.717  0.0324 -0.2283  0.0431
  101SAPE  H16X10287   5.255   5.616   5.685 -0.7718 -0.5382  2.1476
  101SAPE  H16Y10288   5.358   5.476   5.729 -2.1232 -0.5686 -2.1453
  101SAPE  C31710289   5.455   5.621   5.604  0.0041 -0.2595 -0.7899
  101SAPE  H17X10290   5.556   5.599   5.646  0.0350  2.7596  0.9983
  101SAPE  H17Y10291   5.448   5.729   5.581 -3.3453 -0.3637 -0.7032
  101SAPE  C31810292   5.423   5.550   5.470  0.5161  0.8488 -0.2013
  101SAPE  H18X10293   5.418   5.442   5.492  1.8332  0.8066  0.0011
  101SAPE  H18Y10294   5.501   5.565   5.392  0.6094  1.2670 -0.0322
  101SAPE  H18Z10295   5.324   5.583   5.431  0.5671  1.6603  0.3393
  102SAPE     N10296   3.751   4.883   9.073 -0.3187 -0.2060 -1.0381
  102SAPE   HN110297   3.679   4.833   9.017 -1.9829 -0.6638  1.3239
  102SAPE   HN210298   3.721   4.981   9.053 -1.2679 -0.3402 -0.3751
  102SAPE   HN310299   3.847   4.854   9.047  0.5538  0.3703  1.3074
  102SAPE   C1210300   3.725   4.862   9.217  0.0707 -0.2540  0.1725
  102SAPE  H12A10301   3.617   4.885   9.227  0.5826  2.3159  0.5825
  102SAPE  H12B10302   3.784   4.937   9.275 -0.1507 -0.3984  0.5858
  102SAPE   C1110303   3.760   4.718   9.263 -0.9980 -0.0200  0.4379
  102SAPE  H11A10304   3.749   4.712   9.374 -0.2523  3.4644  0.8256
  102SAPE  H11B10305   3.866   4.709   9.231 -0.9139  0.6987  0.4997
  102SAPE     P10306   3.710   4.485   9.159 -0.4387  0.2061  0.5395
  102SAPE   O1310307   3.817   4.434   9.245 -0.2922 -0.3004 -0.2755
  102SAPE   O1410308   3.587   4.406   9.139 -0.5636 -0.4384  0.1304
  102SAPE   O1210309   3.668   4.625   9.208 -0.5343  0.5780 -0.5460
  102SAPE   O1110310   3.768   4.521   9.011  0.4573  0.2674 -0.5292
  102SAPE    C110311   3.904   4.557   8.978  0.4822 -0.3545  0.0205
  102SAPE    HA10312   3.898   4.635   8.899  0.3939  0.0064  0.3828
  102SAPE    HB10313   3.951   4.609   9.064 -0.6446 -0.0588  0.4772
  102SAPE    C210314   3.983   4.429   8.932 -0.4397 -0.2792  0.0023
  102SAPE    HS10315   3.952   4.352   9.006  3.5559 -1.4253  0.7313
  102SAPE   O2110316   4.125   4.452   8.929  0.0723  0.1315 -0.5066
  102SAPE   C2110317   4.198   4.356   8.989 -0.0726 -0.0766  0.3995
  102SAPE   O2210318   4.157   4.259   9.055  0.0455  0.9461  0.1923
  102SAPE   C2210319   4.341   4.381   8.969  0.8141  0.6275 -0.2094
  102SAPE   H2R10320   4.355   4.491   8.973  0.6252  0.7459 -2.0186
  102SAPE   H2S10321   4.400   4.335   9.051  1.3723 -0.4866 -1.2126
  102SAPE    C310322   3.931   4.381   8.797  0.2813  0.1562  0.2428
  102SAPE    HX10323   3.972   4.448   8.718 -2.5528  1.4650 -0.2610
  102SAPE    HY10324   3.823   4.407   8.789 -0.1555 -1.5207  0.3453
  102SAPE   O3110325   3.967   4.240   8.779  0.1600 -0.1992 -0.3716
  102SAPE   C3110326   3.971   4.172   8.670 -0.1705  0.0125  0.0022
  102SAPE   O3210327   3.942   4.215   8.557  0.0854  0.0034  0.0282
  102SAPE   C3210328   4.051   4.042   8.703  0.0937  0.3820 -0.1019
  102SAPE   H2X10329   3.971   3.965   8.697  0.8272 -0.4398  0.4782
  102SAPE   H2Y10330   4.083   4.037   8.809  0.4203 -0.1960 -0.2183
  102SAPE   C2310331   4.394   4.329   8.835 -0.1478 -0.2052 -0.0075
  102SAPE   H3R10332   4.468   4.398   8.789  1.9877 -2.2560  0.1768
  102SAPE   H3S10333   4.315   4.330   8.757 -1.1823 -4.0655  0.7904
  102SAPE   C2410334   4.457   4.185   8.840  0.2968 -0.2765  0.2396
  102SAPE   H4R10335   4.455   4.141   8.738 -0.8512 -0.4355  0.3195
  102SAPE   H4S10336   4.396   4.113   8.899  0.2623  0.6076  1.3105
  102SAPE   C2510337   4.608   4.183   8.871 -0.6854 -0.5051 -0.3228
  102SAPE   H5R10338   4.641   4.249   8.954 -0.6681  0.5107 -1.1121
  102SAPE   C2610339   4.702   4.119   8.799  0.2567  0.0189 -0.5490
  102SAPE   H6R10340   4.800   4.129   8.846 -0.7427  2.5586  1.2342
  102SAPE   C2710341   4.679   4.014   8.690  0.0247  0.4267  0.4796
  102SAPE   H7R10342   4.583   4.026   8.635  0.5996  0.4924 -0.5363
  102SAPE   H7S10343   4.665   3.912   8.732 -0.0341 -0.0381 -0.6392
  102SAPE   C2810344   4.785   4.022   8.588 -0.2670 -0.0882  0.3036
  102SAPE   H8R10345   4.885   3.995   8.626 -0.3743 -0.3944  0.3718
  102SAPE   C2910346   4.776   4.053   8.458 -0.0358  0.6085 -0.6863
  102SAPE   H9R10347   4.871   4.051   8.404  0.4754 -1.2275  0.1990
  102SAPE  C21010348   4.651   4.100   8.387 -0.2227 -0.0286  0.5079
  102SAPE  H10R10349   4.554   4.089   8.439 -0.1890 -0.2634  0.5184
  102SAPE  H10S10350   4.647   4.033   8.299 -0.9283  2.8258 -1.7810
  102SAPE  C21110351   4.683   4.248   8.349 -0.8694  0.3680 -0.2842
  102SAPE  H11R10352   4.747   4.269   8.262  1.4396  0.0286  1.2432
  102SAPE  C21210353   4.615   4.354   8.405  0.3338  0.9230  0.4955
  102SAPE  H12R10354   4.650   4.452   8.369 -0.7591  0.3952 -2.1856
  102SAPE  C21310355   4.510   4.353   8.513 -1.0875 -0.8974  0.7688
  102SAPE  H13R10356   4.556   4.419   8.589 -0.0332  0.7173 -1.1720
  102SAPE  H13S10357   4.481   4.257   8.561 -0.3917 -0.8346  1.3301
  102SAPE  C21410358   4.381   4.410   8.460  0.1026  0.6718 -0.1926
  102SAPE  H14R10359   4.338   4.340   8.387  2.7045 -0.8612 -0.3836
  102SAPE  C21510360   4.322   4.532   8.477 -0.3753  0.0385  0.8905
  102SAPE  H15R10361   4.235   4.549   8.412  1.0425  0.7769 -0.8960
  102SAPE  C21610362   4.372   4.641   8.566 -0.4372 -0.5237 -0.1012
  102SAPE  H16R10363   4.407   4.727   8.505 -1.6732  0.5703  0.6600
  102SAPE  H16S10364   4.457   4.612   8.632  0.7824 -3.5462 -2.7602
  102SAPE  C21710365   4.268   4.688   8.666  0.0858 -0.1530 -0.9785
  102SAPE  H17R10366   4.318   4.751   8.744 -2.3358 -0.0920  0.6342
  102SAPE  H17S10367   4.234   4.600   8.724  0.9418  0.8694  1.1985
  102SAPE  C21810368   4.150   4.774   8.617  0.7612  0.0351 -0.0380
  102SAPE  H18R10369   4.108   4.709   8.538  0.0027 -1.3310  1.4539
  102SAPE  H18S10370   4.169   4.874   8.572 -2.5423  1.0885  0.6144
  102SAPE  C21910371   4.026   4.785   8.702 -0.8557  0.2736 -0.0397
  102SAPE  H19R10372   4.051   4.843   8.793 -0.8539 -0.3304  0.3566
  102SAPE  H19S10373   3.989   4.683   8.730 -0.1353  0.1648  0.5655
  102SAPE  C22010374   3.910   4.858   8.641 -0.1103  0.1508 -0.0812
  102SAPE  H20R10375   3.863   4.800   8.559 -0.3611 -0.3485  0.4125
  102SAPE  H20S10376   3.958   4.949   8.598  0.2642 -1.3030 -2.9774
  102SAPE  H20T10377   3.827   4.877   8.712 -0.4004 -2.9373  0.5191
  102SAPE   C3310378   4.160   4.017   8.599 -0.2359  0.9075 -0.1776
  102SAPE   H3X10379   4.247   4.085   8.616  0.2752  1.6556 -4.5192
  102SAPE   H3Y10380   4.121   4.053   8.501  2.4332  3.1605 -0.5510
  102SAPE   C3410381   4.207   3.875   8.588  0.0107  0.4086 -0.3480
  102SAPE   H4X10382   4.120   3.814   8.556  0.1578 -0.0318  0.0873
  102SAPE   H4Y10383   4.245   3.839   8.686  1.0612  0.7599 -0.6213
  102SAPE   C3510384   4.326   3.848   8.494  0.3421  0.3718 -0.3318
  102SAPE   H5X10385   4.355   3.748   8.532  0.3344  1.4302  2.8082
  102SAPE   H5Y10386   4.411   3.918   8.502 -0.2209  0.8406  2.6901
  102SAPE   C3610387   4.290   3.846   8.347  1.3055 -1.1447  0.2633
  102SAPE   H6X10388   4.242   3.943   8.325  1.0166 -1.7520 -1.9915
  102SAPE   H6Y10389   4.225   3.759   8.323  0.5582 -0.7800  0.9032
  102SAPE   C3710390   4.416   3.852   8.245 -0.3009  0.1377 -0.9059
  102SAPE   H7X10391   4.492   3.777   8.277 -1.3002  0.3375  2.2578
  102SAPE   H7Y10392   4.455   3.956   8.248 -0.0325  0.0176  0.3830
  102SAPE   C3810393   4.384   3.815   8.096  0.1643 -0.3302 -0.2898
  102SAPE   H8X10394   4.306   3.886   8.061 -0.0701  0.0521  0.9751
  102SAPE   H8Y10395   4.337   3.715   8.084  2.9782 -1.8102  0.1598
  102SAPE   C3910396   4.510   3.845   8.015 -0.0850 -0.1026 -0.3041
  102SAPE   H9X10397   4.580   3.768   8.054  0.6483  0.3572 -0.6950
  102SAPE   H9Y10398   4.556   3.945   8.029 -1.1594  0.3947 -0.1927
  102SAPE  C31010399   4.483   3.834   7.859 -0.2527  0.7864 -0.5879
  102SAPE  H10X10400   4.416   3.917   7.827  0.1184  0.7516 -1.4766
  102SAPE  H10Y10401   4.440   3.733   7.843  0.6690  0.1363  0.7511
  102SAPE  C31110402   4.612   3.827   7.771  0.3938  0.0184 -0.2048
  102SAPE  H11X10403   4.678   3.741   7.797  1.5151  0.2889 -1.9943
  102SAPE  H11Y10404   4.670   3.921   7.783 -0.1992  0.1552  2.0613
  102SAPE  C31210405   4.579   3.799   7.628 -0.4097  0.3751  0.3362
  102SAPE  H12X10406   4.500   3.857   7.575  0.7609  1.6278 -0.1084
  102SAPE  H12Y10407   4.539   3.696   7.625  2.3947 -0.9461  2.9379
  102SAPE  C31310408   4.708   3.809   7.539  0.1274 -0.0265 -0.1549
  102SAPE  H13X10409   4.772   3.727   7.577  1.2437  1.0911  0.4627
  102SAPE  H13Y10410   4.762   3.902   7.565 -0.4561  0.4866 -0.7266
  102SAPE  C31410411   4.677   3.776   7.394 -0.7389 -0.4370 -0.1754
  102SAPE  H14X10412   4.618   3.682   7.400  1.5969 -1.9924 -0.1785
  102SAPE  H14Y10413   4.778   3.773   7.348  0.1292  2.0220  1.3916
  102SAPE  C31510414   4.616   3.894   7.316 -0.0953 -0.8809  0.6042
  102SAPE  H15X10415   4.654   3.990   7.355 -0.8960 -0.2539 -0.1265
  102SAPE  H15Y10416   4.507   3.902   7.336  0.0764  1.4253  0.8361
  102SAPE  C31610417   4.633   3.884   7.162  0.0908  0.2125  0.3734
  102SAPE  H16X10418   4.741   3.870   7.141  0.3546  0.4078  1.4928
  102SAPE  H16Y10419   4.589   3.965   7.101 -2.7922  0.1824  2.2062
  102SAPE  C31710420   4.558   3.764   7.111 -0.2139  0.2790 -0.1733
  102SAPE  H17X10421   4.448   3.776   7.121 -0.4859 -1.2191 -1.0287
  102SAPE  H17Y10422   4.586   3.675   7.172  0.3553  1.1021  0.7951
  102SAPE  C31810423   4.582   3.724   6.966 -0.4908  0.0229  0.2111
  102SAPE  H18X10424   4.510   3.645   6.936 -0.6409  0.6679 -1.2340
  102SAPE  H18Y10425   4.688   3.711   6.934 -1.0090  3.1030 -3.6540
  102SAPE  H18Z10426   4.548   3.813   6.908  1.8841  0.1565 -1.1208
  103SAPE     N10427   4.416   1.998   3.274  0.2798  0.3895 -0.0003
  103SAPE   HN110428   4.469   2.058   3.340  0.7381 -1.7276  1.6536
  103SAPE   HN210429   4.439   2.016   3.174 -0.3240  1.1222 -0.0207
  103SAPE   HN310430   4.316   2.026   3.280 -0.1638 -1.3894  2.8454
  103SAPE   C1210431   4.433   1.864   3.337  0.3425 -0.1637 -0.4682
  103SAPE  H12A10432   4.534   1.855   3.383  0.1083 -2.7852 -0.2659
  103SAPE  H12B10433   4.418   1.783   3.261  1.7232 -2.4107  1.4995
  103SAPE   C1110434   4.326   1.842   3.436  0.6641  0.2466 -0.2281
  103SAPE  H11A10435   4.345   1.903   3.527 -0.2900 -1.1582  0.9690
  103SAPE  H11B10436   4.323   1.738   3.474 -0.7830  0.3699  0.0416
  103SAPE     P10437   4.094   1.773   3.316  0.4086  0.4100 -0.1237
  103SAPE   O1310438   3.978   1.846   3.257  0.5743  0.3921  0.6402
  103SAPE   O1410439   4.162   1.676   3.229 -0.5894  0.0270 -0.0235
  103SAPE   O1210440   4.198   1.873   3.381 -0.1843  0.0682 -0.4764
  103SAPE   O1110441   4.043   1.693   3.442  0.6506 -0.3170 -0.0737
  103SAPE    C110442   4.101   1.568   3.469  0.0841  0.2339 -0.3849
  103SAPE    HA10443   4.206   1.549   3.437  0.1860 -2.0766  1.0652
  103SAPE    HB10444   4.107   1.553   3.579  0.8898  1.1487 -0.2934
  103SAPE    C210445   4.031   1.448   3.396 -0.1879  0.7790  0.6420
  103SAPE    HS10446   4.050   1.446   3.287  1.2972 -0.1924  0.8780
  103SAPE   O2110447   3.891   1.435   3.432 -0.3933  0.6650 -0.2279
  103SAPE   C2110448   3.826   1.345   3.356 -0.1385 -0.1046  0.7069
  103SAPE   O2210449   3.868   1.306   3.249 -0.4358  0.0960  0.7772
  103SAPE   C2210450   3.694   1.313   3.421 -0.7073 -0.2914 -0.2931
  103SAPE   H2R10451   3.724   1.257   3.513 -4.0738  0.5921  1.5092
  103SAPE   H2S10452   3.631   1.398   3.455  0.6888 -0.5227  3.3017
  103SAPE    C310453   4.116   1.311   3.437  0.6770 -0.3089  0.0171
  103SAPE    HX10454   4.213   1.322   3.384  1.0536  1.1113  0.9422
  103SAPE    HY10455   4.061   1.225   3.392  0.8983 -0.2763 -0.3181
  103SAPE   O3110456   4.145   1.293   3.571  0.6030 -0.2086 -0.2487
  103SAPE   C3110457   4.040   1.249   3.650  0.4810  0.3863  0.1678
  103SAPE   O3210458   3.941   1.194   3.607 -0.4518 -0.5471  0.2075
  103SAPE   C3210459   4.078   1.252   3.793  0.0512 -0.5580 -0.2453
  103SAPE   H2X10460   4.178   1.299   3.800  0.3256 -1.1423 -0.2126
  103SAPE   H2Y10461   4.087   1.145   3.821  2.8599  0.2262  2.4074
  103SAPE   C2310462   3.611   1.214   3.331 -0.8571  0.3098  0.1400
  103SAPE   H3R10463   3.679   1.128   3.316 -0.9543  0.3442 -0.5512
  103SAPE   H3S10464   3.588   1.265   3.234 -0.2876 -1.9998 -1.2887
  103SAPE   C2410465   3.471   1.172   3.386 -0.5018  0.3561  0.1026
  103SAPE   H4R10466   3.420   1.119   3.304 -2.0721 -0.6729  1.6706
  103SAPE   H4S10467   3.415   1.264   3.415  0.8857  0.5978  2.3237
  103SAPE   C2510468   3.495   1.076   3.499  0.0317  0.5800 -0.1789
  103SAPE   H5R10469   3.549   0.982   3.478 -0.5205  0.2262 -0.0102
  103SAPE   C2610470   3.456   1.091   3.625  0.2702  0.4204  0.1376
  103SAPE   H6R10471   3.472   1.012   3.701  0.0219 -0.2732 -0.5163
  103SAPE   C2710472   3.392   1.202   3.693 -0.0630 -0.1866 -0.0645
  103SAPE   H7R10473   3.284   1.177   3.703 -0.5858  1.4571 -1.1343
  103SAPE   H7S10474   3.385   1.293   3.630 -1.0012 -0.2693 -0.1043
  103SAPE   C2810475   3.454   1.252   3.822 -0.2332  0.4094  0.2262
  103SAPE   H8R10476   3.564   1.250   3.825 -0.1828  0.7665 -0.8905
  103SAPE   C2910477   3.403   1.315   3.925 -0.3374 -0.0292  0.5009
  103SAPE   H9R10478   3.453   1.342   4.020 -1.0488  0.8831  0.6289
  103SAPE  C21010479   3.256   1.353   3.934  0.4707 -0.3937 -0.3094
  103SAPE  H10R10480   3.209   1.286   4.009 -0.0961  0.9420  0.5829
  103SAPE  H10S10481   3.207   1.335   3.836  1.8751 -0.3553 -1.0466
  103SAPE  C21110482   3.235   1.493   3.983 -0.8981 -0.0886 -0.1614
  103SAPE  H11R10483   3.242   1.579   3.914  0.1404  0.4369  0.5809
  103SAPE  C21210484   3.225   1.527   4.116  0.2052 -1.0243 -0.1129
  103SAPE  H12R10485   3.218   1.634   4.141  0.9976 -1.1262  0.6096
  103SAPE  C21310486   3.226   1.439   4.236 -0.2000 -0.2898 -0.1572
  103SAPE  H13R10487   3.295   1.354   4.217 -0.3349 -0.6319  0.8287
  103SAPE  H13S10488   3.122   1.401   4.248  0.1557 -1.6317 -1.0259
  103SAPE  C21410489   3.269   1.500   4.361  0.0043  0.0695  0.6204
  103SAPE  H14R10490   3.368   1.547   4.348 -0.9939  1.6936 -2.0809
  103SAPE  C21510491   3.208   1.493   4.481  0.8776 -0.1429  0.0945
  103SAPE  H15R10492   3.247   1.549   4.567  0.1074  1.2251 -0.4288
  103SAPE  C21610493   3.081   1.422   4.522  0.3040 -0.1585 -0.3762
  103SAPE  H16R10494   3.037   1.367   4.436 -0.5581 -0.8147  0.4712
  103SAPE  H16S10495   3.008   1.499   4.554  0.5575 -0.1521  0.1912
  103SAPE  C21710496   3.093   1.312   4.631 -0.0054  0.7703  0.1246
  103SAPE  H17R10497   3.144   1.359   4.718 -0.9674  0.0582  1.0961
  103SAPE  H17S10498   3.167   1.232   4.610  0.1968  0.4304  1.9751
  103SAPE  C21810499   2.966   1.243   4.679 -0.1250 -0.7011  0.3505
  103SAPE  H18R10500   2.921   1.182   4.598  0.2592 -1.0670  0.4070
  103SAPE  H18S10501   2.890   1.319   4.708  1.4183  0.3049  1.9832
  103SAPE  C21910502   2.983   1.146   4.793  0.2360 -1.0044  0.5074
  103SAPE  H19R10503   3.051   1.184   4.872 -1.9611 -0.8621  2.4284
  103SAPE  H19S10504   3.033   1.058   4.747  1.2837  0.3275 -0.9999
  103SAPE  C22010505   2.859   1.084   4.866 -0.9852  0.0392 -0.1689
  103SAPE  H20R10506   2.796   1.170   4.897 -0.6504  0.2049  0.0635
  103SAPE  H20S10507   2.900   1.029   4.953  2.8877  3.9216  0.8274
  103SAPE  H20T10508   2.797   1.036   4.787  3.3208 -1.2473 -3.1509
  103SAPE   C3310509   3.969   1.308   3.893  1.0857  0.0889  0.0173
  103SAPE   H3X10510   3.995   1.285   3.998  1.4621 -0.3178 -0.1583
  103SAPE   H3Y10511   3.879   1.244   3.889  2.0096 -1.2834  0.3420
  103SAPE   C3410512   3.940   1.448   3.847  0.2711 -0.7050 -0.8000
  103SAPE   H4X10513   3.913   1.458   3.739 -2.2724 -1.9579 -0.3650
  103SAPE   H4Y10514   4.020   1.519   3.877 -0.5771 -0.5526  1.2167
  103SAPE   C3510515   3.813   1.508   3.917  0.4402 -0.1044 -0.3992
  103SAPE   H5X10516   3.720   1.458   3.882  0.4554 -0.0891 -0.4614
  103SAPE   H5Y10517   3.784   1.615   3.902  0.0128  0.2156  2.1311
  103SAPE   C3610518   3.811   1.484   4.071 -0.5026 -0.6235 -0.3468
  103SAPE   H6X10519   3.908   1.514   4.115 -1.3654  1.6147  0.1749
  103SAPE   H6Y10520   3.817   1.376   4.098 -0.8579 -0.9788 -1.6237
  103SAPE   C3710521   3.687   1.550   4.132 -0.1814  0.3840  0.4759
  103SAPE   H7X10522   3.598   1.535   4.068 -0.4897  0.8168  0.7944
  103SAPE   H7Y10523   3.704   1.660   4.130 -0.8593  0.5525  2.1613
  103SAPE   C3810524   3.650   1.499   4.272  0.0854 -0.2172 -0.4228
  103SAPE   H8X10525   3.654   1.388   4.270  2.2534 -0.1673 -1.1828
  103SAPE   H8Y10526   3.551   1.545   4.294  0.9365  0.4601  2.4743
  103SAPE   C3910527   3.751   1.552   4.377 -0.1444 -0.0909 -0.3472
  103SAPE   H9X10528   3.750   1.662   4.390  1.0648 -0.1676  0.6071
  103SAPE   H9Y10529   3.852   1.522   4.340 -1.0201 -1.7557 -1.5292
  103SAPE  C31010530   3.717   1.495   4.515 -0.1397 -0.4846 -0.4086
  103SAPE  H10X10531   3.783   1.538   4.594 -0.1994  3.1411 -2.1131
  103SAPE  H10Y10532   3.726   1.384   4.519 -1.4882 -0.5867  2.4759
  103SAPE  C31110533   3.584   1.554   4.560 -0.8368 -0.1306  0.2992
  103SAPE  H11X10534   3.509   1.479   4.526  1.2454 -1.5708 -1.3642
  103SAPE  H11Y10535   3.566   1.644   4.498 -0.9657 -1.7098 -2.0948
  103SAPE  C31210536   3.566   1.570   4.712 -0.9554 -0.4480  0.3906
  103SAPE  H12X10537   3.507   1.663   4.706  1.9597  1.5945  1.1592
  103SAPE  H12Y10538   3.654   1.610   4.767 -0.2741 -1.9616  0.4531
  103SAPE  C31310539   3.522   1.444   4.788 -0.1158  0.2657  0.2060
  103SAPE  H13X10540   3.590   1.362   4.755 -1.1490 -0.2514 -0.7300
  103SAPE  H13Y10541   3.422   1.409   4.755  0.2186 -0.1184 -0.4269
  103SAPE  C31410542   3.534   1.466   4.938  0.1275 -0.0063 -0.0145
  103SAPE  H14X10543   3.467   1.553   4.956  2.5805  1.7472  1.2914
  103SAPE  H14Y10544   3.630   1.502   4.981 -1.4495  3.3732  1.0366
  103SAPE  C31510545   3.502   1.345   5.034  0.1167  0.0872  0.5281
  103SAPE  H15X10546   3.575   1.264   5.014 -0.5804 -0.7447  1.2871
  103SAPE  H15Y10547   3.400   1.307   5.012  0.4948 -0.1379 -0.9408
  103SAPE  C31610548   3.514   1.368   5.183  0.3029  0.6440 -0.1932
  103SAPE  H16X10549   3.460   1.457   5.221 -0.4776  0.8353 -1.6694
  103SAPE  H16Y10550   3.621   1.382   5.211  0.6034 -2.1792  0.4260
  103SAPE  C31710551   3.480   1.247   5.273  0.1100  0.9202 -0.4023
  103SAPE  H17X10552   3.387   1.200   5.234  0.5072 -0.8415  0.6264
  103SAPE  H17Y10553   3.463   1.280   5.378 -1.7350  2.7777 -1.2137
  103SAPE  C31810554   3.585   1.126   5.271 -0.4207 -0.0805 -0.2734
  103SAPE  H18X10555   3.687   1.162   5.295 -0.0845 -0.6166 -0.8407
  103SAPE  H18Y10556   3.579   1.079   5.170 -0.2735  1.8568 -1.2398
  103SAPE  H18Z10557   3.545   1.059   5.350 -1.9594  1.8732  0.6689
  104SAPE     N10558   4.729   4.521   3.977  0.0708 -0.0515 -0.4435
  104SAPE   HN110559   4.696   4.615   3.948 -1.5674 -0.1040  1.1195
  104SAPE   HN210560   4.831   4.521   3.998 -0.0989 -0.6698  0.4127
  104SAPE   HN310561   4.715   4.452   3.900  1.4519 -0.2099 -0.5912
  104SAPE   C1210562   4.646   4.497   4.093 -0.2893  0.6541 -0.3820
  104SAPE  H12A10563   4.694   4.558   4.172  1.5968 -0.1165 -0.8782
  104SAPE  H12B10564   4.658   4.388   4.112 -1.2086  0.7382  0.7440
  104SAPE   C1110565   4.505   4.535   4.064  0.2380  0.3144 -0.0291
  104SAPE  H11A10566   4.500   4.646   4.071  2.0642  0.4053  0.3401
  104SAPE  H11B10567   4.452   4.478   4.143  0.8521  0.3895  0.4449
  104SAPE     P10568   4.345   4.560   3.855  0.3979 -0.0512 -0.4429
  104SAPE   O1310569   4.397   4.695   3.833 -0.1488  0.4712  0.0009
  104SAPE   O1410570   4.307   4.492   3.728 -0.1817  0.7786 -0.2776
  104SAPE   O1210571   4.468   4.493   3.928 -0.4675 -0.0505 -0.2308
  104SAPE   O1110572   4.235   4.569   3.967  0.9508  0.1203 -0.0646
  104SAPE    C110573   4.099   4.599   3.939  0.3308  0.2891 -0.4833
  104SAPE    HA10574   4.092   4.668   3.852  2.1048  0.8441 -0.2247
  104SAPE    HB10575   4.045   4.503   3.922 -1.0692  0.6776  1.3897
  104SAPE    C210576   4.028   4.661   4.068 -0.2832  0.3132  0.2872
  104SAPE    HS10577   4.039   4.771   4.072 -0.5982  0.3411  0.3540
  104SAPE   O2110578   4.089   4.613   4.189  0.0407  0.7941 -0.0444
  104SAPE   C2110579   4.197   4.672   4.227 -0.2114 -0.5166  0.2154
  104SAPE   O2210580   4.265   4.751   4.161  0.3547  0.0967  0.4779
  104SAPE   C2210581   4.247   4.605   4.353  0.0065 -0.6855  0.0137
  104SAPE   H2R10582   4.271   4.506   4.307  0.6016 -0.7160  0.3904
  104SAPE   H2S10583   4.341   4.655   4.383 -0.7947  0.2328  1.0474
  104SAPE    C310584   3.881   4.641   4.076 -0.2021  0.5008 -0.0918
  104SAPE    HX10585   3.878   4.531   4.070  0.9847  0.5151 -1.6695
  104SAPE    HY10586   3.838   4.682   3.982 -0.1884  1.8792  0.4710
  104SAPE   O3110587   3.814   4.695   4.191 -0.2062 -0.7385  0.0922
  104SAPE   C3110588   3.684   4.666   4.200  0.0639 -0.1057  0.5144
  104SAPE   O3210589   3.620   4.590   4.126  0.0996  0.3072  0.2867
  104SAPE   C3210590   3.618   4.760   4.298  0.2821 -0.1001  0.0638
  104SAPE   H2X10591   3.516   4.764   4.255  0.4523 -4.2300 -1.2119
  104SAPE   H2Y10592   3.658   4.863   4.304  1.8579 -0.6303 -0.6718
  104SAPE   C2310593   4.138   4.586   4.460 -0.4896 -0.0638  0.3499
  104SAPE   H3R10594   4.187   4.535   4.546 -0.8596 -0.6995  0.1860
  104SAPE   H3S10595   4.046   4.526   4.442 -1.7570  1.9688 -0.3373
  104SAPE   C2410596   4.086   4.722   4.512 -0.2852 -0.4803 -0.4131
  104SAPE   H4R10597   3.995   4.717   4.575  0.5107  0.9299  0.9165
  104SAPE   H4S10598   4.048   4.788   4.431 -0.1218 -0.8358 -0.7814
  104SAPE   C2510599   4.187   4.800   4.587  0.2276 -0.3347  0.0915
  104SAPE   H5R10600   4.278   4.832   4.534 -0.9136 -0.3107 -1.9268
  104SAPE   C2610601   4.168   4.851   4.710  0.0478 -0.4749  0.6340
  104SAPE   H6R10602   4.254   4.914   4.739  0.5036 -0.3972 -0.7923
  104SAPE   C2710603   4.064   4.836   4.809  0.5917  0.4001 -0.5457
  104SAPE   H7R10604   3.966   4.868   4.768  0.9353  2.1379 -0.0680
  104SAPE   H7S10605   4.084   4.899   4.898 -1.7562 -0.5402  0.7420
  104SAPE   C2810606   4.053   4.693   4.864 -0.6479 -0.2579  0.0259
  104SAPE   H8R10607   4.128   4.619   4.835  0.8367  1.5749 -0.9940
  104SAPE   C2910608   3.960   4.671   4.962 -0.0531  0.0837  0.8192
  104SAPE   H9R10609   3.941   4.572   5.008  0.6643 -0.3709  0.1425
  104SAPE  C21010610   3.860   4.775   5.015 -0.4295 -0.2476 -0.0413
  104SAPE  H10R10611   3.762   4.762   4.963 -2.2643  0.5688  2.9945
  104SAPE  H10S10612   3.900   4.878   5.005  1.6149 -1.1283 -1.5877
  104SAPE  C21110613   3.833   4.761   5.161  0.0764  0.0298 -0.6245
  104SAPE  H11R10614   3.732   4.725   5.186  0.3177 -0.9415 -0.9714
  104SAPE  C21210615   3.912   4.799   5.264  0.5885  0.5194  0.0586
  104SAPE  H12R10616   3.869   4.793   5.366  0.0124  2.3283 -0.0419
  104SAPE  C21310617   4.050   4.861   5.257 -0.4830 -0.2094  0.1517
  104SAPE  H13R10618   4.058   4.941   5.334 -0.0507 -1.0472  1.0046
  104SAPE  H13S10619   4.065   4.907   5.157  1.2333 -0.5049  0.2549
  104SAPE  C21410620   4.156   4.752   5.268 -0.1862 -0.2309 -0.0721
  104SAPE  H14R10621   4.186   4.706   5.172  1.3696  1.2865 -0.3490
  104SAPE  C21510622   4.215   4.694   5.373  0.4291 -0.5228 -0.1315
  104SAPE  H15R10623   4.272   4.605   5.346 -0.2817 -0.2979 -2.6909
  104SAPE  C21610624   4.190   4.739   5.515 -0.3507  0.0281  0.1100
  104SAPE  H16R10625   4.171   4.652   5.581  0.4179  1.4567  2.3491
  104SAPE  H16S10626   4.103   4.808   5.518  1.0344  1.8162  2.2160
  104SAPE  C21710627   4.310   4.822   5.573  0.0419  0.0969 -0.0825
  104SAPE  H17R10628   4.336   4.895   5.494  1.4093  1.3571  1.4660
  104SAPE  H17S10629   4.401   4.761   5.591 -0.0476 -0.4692 -1.4582
  104SAPE  C21810630   4.278   4.905   5.699  0.2116 -0.7919 -0.3148
  104SAPE  H18R10631   4.250   4.835   5.780  2.1405  0.2203  1.3037
  104SAPE  H18S10632   4.191   4.969   5.673  0.1362 -1.1096 -0.8846
  104SAPE  C21910633   4.393   4.981   5.747 -0.6145  0.7690 -0.0110
  104SAPE  H19R10634   4.402   5.069   5.680 -1.4669 -0.5441 -1.9502
  104SAPE  H19S10635   4.488   4.924   5.737 -1.3401 -1.3799  3.5061
  104SAPE  C22010636   4.375   5.027   5.889  0.5079  0.0848  0.3197
  104SAPE  H20R10637   4.282   5.088   5.895 -0.1107 -0.7903 -0.1624
  104SAPE  H20S10638   4.457   5.090   5.932  0.2129  0.4265  0.3925
  104SAPE  H20T10639   4.352   4.945   5.960  0.0292 -0.0979 -0.0468
  104SAPE   C3310640   3.626   4.700   4.440 -0.7145 -0.0204 -0.3949
  104SAPE   H3X10641   3.733   4.701   4.469 -1.0498  1.6786  0.9178
  104SAPE   H3Y10642   3.597   4.594   4.454 -0.9432  0.1435  0.4065
  104SAPE   C3410643   3.546   4.779   4.543 -0.0898 -0.5276  0.5087
  104SAPE   H4X10644   3.435   4.785   4.539 -0.1381 -0.4824  1.6620
  104SAPE   H4Y10645   3.568   4.887   4.531  1.9972 -1.0360 -0.5904
  104SAPE   C3510646   3.581   4.748   4.692  0.4373  0.3952 -0.5478
  104SAPE   H5X10647   3.690   4.730   4.693  0.4362 -0.1258 -2.9091
  104SAPE   H5Y10648   3.533   4.649   4.710  1.6761 -0.1808 -0.3363
  104SAPE   C3610649   3.529   4.855   4.787 -0.0481  0.2689 -0.3745
  104SAPE   H6X10650   3.552   4.953   4.739  0.5990  1.0072  1.3737
  104SAPE   H6Y10651   3.586   4.865   4.881  0.2020  2.2512 -0.6829
  104SAPE   C3710652   3.381   4.841   4.816  0.2325 -0.8479 -0.3836
  104SAPE   H7X10653   3.383   4.741   4.864  0.6610 -0.8764 -0.4598
  104SAPE   H7Y10654   3.314   4.832   4.727 -0.7296 -0.3884  0.2774
  104SAPE   C3810655   3.323   4.945   4.908  1.0183  0.5605 -0.4054
  104SAPE   H8X10656   3.214   4.938   4.888  0.9105 -0.2526  0.4059
  104SAPE   H8Y10657   3.358   5.049   4.889  0.2063  0.9424  0.1512
  104SAPE   C3910658   3.356   4.906   5.060  0.8465 -0.5597 -0.1361
  104SAPE   H9X10659   3.382   4.798   5.072  2.5297 -0.2113 -0.4045
  104SAPE   H9Y10660   3.254   4.901   5.105 -0.0222 -0.4331 -2.0297
  104SAPE  C31010661   3.460   5.000   5.130 -0.5253  0.3876 -1.1647
  104SAPE  H10X10662   3.427   5.106   5.138 -1.6279 -0.0517  0.4332
  104SAPE  H10Y10663   3.550   4.993   5.065 -0.1416  1.5648 -0.7842
  104SAPE  C31110664   3.487   4.938   5.272  0.1550 -0.0866  0.1097
  104SAPE  H11X10665   3.522   4.835   5.248 -0.4955 -0.0982 -0.8581
  104SAPE  H11Y10666   3.394   4.942   5.333  1.0813 -2.3595  1.8164
  104SAPE  C31210667   3.593   5.010   5.354 -0.5983 -0.1853 -0.3686
  104SAPE  H12X10668   3.551   5.112   5.371 -1.5221 -0.4905 -0.7466
  104SAPE  H12Y10669   3.687   5.005   5.296 -0.3703 -2.5004  0.1267
  104SAPE  C31310670   3.602   4.942   5.493 -0.1333 -0.3244  0.2631
  104SAPE  H13X10671   3.623   4.834   5.476 -0.2087 -0.0578 -1.7452
  104SAPE  H13Y10672   3.503   4.952   5.544 -0.1674  0.6711  0.0252
  104SAPE  C31410673   3.705   4.989   5.591 -0.1545  0.2318 -0.3670
  104SAPE  H14X10674   3.804   4.988   5.540  0.5520 -0.4306  0.9665
  104SAPE  H14Y10675   3.688   4.920   5.676 -2.9840  1.6115  0.2946
  104SAPE  C31510676   3.684   5.135   5.644 -0.5963 -0.0822  0.1925
  104SAPE  H15X10677   3.579   5.137   5.681 -1.4760  0.2854 -2.1247
  104SAPE  H15Y10678   3.691   5.208   5.560 -2.9481  0.5650  0.4726
  104SAPE  C31610679   3.786   5.174   5.756  0.8043 -0.1579  0.8344
  104SAPE  H16X10680   3.882   5.195   5.706  0.4871  1.7865  0.9445
  104SAPE  H16Y10681   3.808   5.081   5.811 -0.1998 -0.5779  0.5605
  104SAPE  C31710682   3.728   5.284   5.830  0.1309 -0.2753 -0.1951
  104SAPE  H17X10683   3.642   5.249   5.891 -0.4158  1.7807  0.2912
  104SAPE  H17Y10684   3.678   5.365   5.774  0.6346  0.3370  0.2235
  104SAPE  C31810685   3.820   5.341   5.931 -0.2876 -0.0066 -0.0184
  104SAPE  H18X10686   3.918   5.367   5.885  0.6529 -0.8465  1.4343
  104SAPE  H18Y10687   3.842   5.275   6.017 -1.2441  1.0820  1.1087
  104SAPE  H18Z10688   3.791   5.435   5.983  3.4697  1.1819  0.3046
  105SAPE     N10689   1.352   4.786   2.812  0.8113 -0.1619  0.2037
  105SAPE   HN110690   1.396   4.848   2.883 -1.3392 -0.6565  2.0848
  105SAPE   HN210691   1.388   4.692   2.835  0.9439 -0.5847 -1.6106
  105SAPE   HN310692   1.383   4.821   2.719 -2.2621  1.1419 -0.4886
  105SAPE   C1210693   1.206   4.790   2.820  0.0855  0.5305  0.5183
  105SAPE  H12A10694   1.165   4.722   2.898  1.0101 -1.1226 -0.3669
  105SAPE  H12B10695   1.168   4.741   2.728 -0.3082 -1.1146  1.5026
  105SAPE   C1110696   1.158   4.933   2.833  0.4376  0.4867 -0.7016
  105SAPE  H11A10697   1.061   4.937   2.779  1.1961  0.1500 -2.1407
  105SAPE  H11B10698   1.221   5.001   2.772 -2.3047  1.2584 -2.9222
  105SAPE     P10699   1.073   5.103   3.004 -0.1121  0.5487  0.0674
  105SAPE   O1310700   1.140   5.208   2.924  0.2547  0.3201 -0.0197
  105SAPE   O1410701   0.923   5.092   3.006  0.5694  0.3144 -0.2770
  105SAPE   O1210702   1.135   4.958   2.977 -0.0487 -0.2807 -0.2618
  105SAPE   O1110703   1.114   5.125   3.159 -0.1923 -0.0988 -0.3040
  105SAPE    C110704   1.168   5.245   3.208 -0.0881 -0.5294 -1.0440
  105SAPE    HA10705   1.274   5.230   3.239 -0.0418  2.1920  0.3599
  105SAPE    HB10706   1.167   5.325   3.131  0.0707  0.0308 -0.4701
  105SAPE    C210707   1.093   5.298   3.326  0.1409  0.3855 -0.4142
  105SAPE    HS10708   1.087   5.409   3.315 -2.0925  0.0829 -3.1811
  105SAPE   O2110709   1.161   5.266   3.447 -0.4624  0.2284  0.0076
  105SAPE   C2110710   1.253   5.357   3.473 -0.1550 -0.2865 -0.5224
  105SAPE   O2210711   1.278   5.457   3.409 -0.3204 -0.2890  0.2638
  105SAPE   C2210712   1.329   5.324   3.604  0.0894 -0.3208  0.4696
  105SAPE   H2R10713   1.326   5.214   3.623  1.0658 -0.7868 -1.7980
  105SAPE   H2S10714   1.435   5.348   3.579  0.8265  0.9787  4.1946
  105SAPE    C310715   0.949   5.239   3.336 -0.2712 -0.2347 -0.3997
  105SAPE    HX10716   0.957   5.134   3.369 -1.8415 -0.2570 -0.0057
  105SAPE    HY10717   0.909   5.247   3.233  0.6302  2.1789 -0.6284
  105SAPE   O3110718   0.861   5.318   3.424 -0.0640  0.1125 -0.6043
  105SAPE   C3110719   0.859   5.277   3.547  0.0032  0.0471 -0.3509
  105SAPE   O3210720   0.915   5.177   3.595  0.0965 -0.0219 -0.5047
  105SAPE   C3210721   0.780   5.379   3.621 -0.0034  0.5635  0.3721
  105SAPE   H2X10722   0.678   5.377   3.575 -0.0735  1.2488  0.4820
  105SAPE   H2Y10723   0.818   5.482   3.601  2.9774 -0.6007 -0.3573
  105SAPE   C2310724   1.267   5.399   3.725  0.6496  0.4809 -0.0642
  105SAPE   H3R10725   1.162   5.363   3.738  0.8054  0.2915  0.7248
  105SAPE   H3S10726   1.264   5.508   3.702 -1.5687  0.3920 -0.4508
  105SAPE   C2410727   1.347   5.370   3.853  0.7279  0.3024 -0.2515
  105SAPE   H4R10728   1.343   5.259   3.855 -1.8437  0.3455  1.3142
  105SAPE   H4S10729   1.284   5.396   3.940  0.1985 -0.1751 -0.4838
  105SAPE   C2510730   1.491   5.407   3.862  0.1314 -0.2694 -0.0858
  105SAPE   H5R10731   1.547   5.382   3.771 -0.7413 -1.9859 -0.2009
  105SAPE   C2610732   1.545   5.463   3.973  0.1533  0.6532  0.2387
  105SAPE   H6R10733   1.642   5.515   3.968 -0.2623  1.3462 -1.0986
  105SAPE   C2710734   1.466   5.485   4.098 -0.5987  0.4576 -0.0159
  105SAPE   H7R10735   1.468   5.384   4.145 -1.2661 -0.8086 -2.5458
  105SAPE   H7S10736   1.355   5.488   4.092 -0.7331 -2.0261  0.1666
  105SAPE   C2810737   1.523   5.598   4.189  0.0265  0.2989 -0.1421
  105SAPE   H8R10738   1.525   5.702   4.151  2.1503  0.4031  0.1400
  105SAPE   C2910739   1.586   5.590   4.312 -0.0842  0.6325 -0.2406
  105SAPE   H9R10740   1.615   5.681   4.366 -0.8715  1.1819 -0.7227
  105SAPE  C21010741   1.598   5.460   4.393 -0.1734  0.4130  0.1100
  105SAPE  H10R10742   1.538   5.383   4.339  0.5342  1.2907 -2.0424
  105SAPE  H10S10743   1.554   5.491   4.490 -3.0296 -0.8324 -0.6670
  105SAPE  C21110744   1.746   5.418   4.404  0.5498 -0.3344  0.3419
  105SAPE  H11R10745   1.791   5.386   4.309 -2.0250  2.5431 -2.0725
  105SAPE  C21210746   1.828   5.408   4.515 -0.3491 -0.0176  0.0873
  105SAPE  H12R10747   1.925   5.356   4.509  0.5814  1.6140  0.3850
  105SAPE  C21310748   1.792   5.437   4.657  0.1506 -1.2777  0.5293
  105SAPE  H13R10749   1.800   5.335   4.700  1.1692 -0.0502  3.5476
  105SAPE  H13S10750   1.687   5.473   4.666  0.7670  0.6335  0.6849
  105SAPE  C21410751   1.876   5.537   4.731 -0.2383  0.2720 -0.8202
  105SAPE  H14R10752   1.946   5.588   4.664 -0.6021  0.9238 -0.7092
  105SAPE  C21510753   1.891   5.539   4.860 -0.6530 -0.2593 -0.5525
  105SAPE  H15R10754   1.948   5.621   4.906  2.4879 -0.4956 -3.6217
  105SAPE  C21610755   1.829   5.455   4.966 -0.6334 -0.9606 -0.4487
  105SAPE  H16R10756   1.901   5.419   5.042 -1.6710 -2.1502  0.0131
  105SAPE  H16S10757   1.781   5.369   4.916 -0.7076 -1.5282  0.5747
  105SAPE  C21710758   1.708   5.522   5.046  0.6793 -0.2236  0.4101
  105SAPE  H17R10759   1.650   5.442   5.097 -2.7837 -0.3410 -3.1802
  105SAPE  H17S10760   1.642   5.569   4.970  0.6346  0.3184  0.7792
  105SAPE  C21810761   1.753   5.638   5.131 -0.1436  0.1295 -0.8033
  105SAPE  H18R10762   1.818   5.711   5.078  0.4757  2.4363  2.7594
  105SAPE  H18S10763   1.818   5.601   5.214 -2.0196  0.7541  1.0181
  105SAPE  C21910764   1.647   5.716   5.213 -0.7543 -0.1089  0.1151
  105SAPE  H19R10765   1.578   5.770   5.144 -0.5975 -2.8247 -2.3811
  105SAPE  H19S10766   1.694   5.788   5.283 -2.9287  1.2774  0.2625
  105SAPE  C22010767   1.567   5.621   5.301  0.6144 -0.1851 -0.1671
  105SAPE  H20R10768   1.488   5.568   5.244 -0.1787  0.4490  0.3122
  105SAPE  H20S10769   1.517   5.696   5.367  0.5901  0.0238 -0.4200
  105SAPE  H20T10770   1.632   5.563   5.370  0.2060  0.1782  0.5371
  105SAPE   C3310771   0.764   5.348   3.775 -0.0593 -0.0027  0.4165
  105SAPE   H3X10772   0.749   5.238   3.783 -0.3227  0.1389  2.4194
  105SAPE   H3Y10773   0.676   5.407   3.807  0.8066  1.9976 -0.7012
  105SAPE   C3410774   0.883   5.404   3.852 -0.5801 -0.3583  0.3239
  105SAPE   H4X10775   0.877   5.514   3.840 -0.5891 -0.2638  1.1559
  105SAPE   H4Y10776   0.971   5.353   3.808 -1.0281 -1.4345  0.6499
  105SAPE   C3510777   0.882   5.375   4.005  0.3745 -0.5046 -0.4694
  105SAPE   H5X10778   0.794   5.423   4.053  1.8041 -1.7877  3.9364
  105SAPE   H5Y10779   0.963   5.432   4.055 -1.2629 -0.1834  2.0384
  105SAPE   C3610780   0.903   5.228   4.034  1.0264 -0.1745  0.2329
  105SAPE   H6X10781   0.827   5.172   3.976  0.1530  1.8104 -0.5962
  105SAPE   H6Y10782   0.880   5.219   4.143  1.6193  0.6827  0.4378
  105SAPE   C3710783   1.047   5.177   4.029  0.2673 -0.2092 -0.0359
  105SAPE   H7X10784   1.104   5.228   4.109 -2.5227  2.5676  0.3964
  105SAPE   H7Y10785   1.091   5.226   3.939 -0.9514  0.1784 -0.4497
  105SAPE   C3810786   1.063   5.028   4.023 -0.1808 -0.5109  0.0380
  105SAPE   H8X10787   1.171   5.013   4.002 -0.4156  0.6922 -2.4924
  105SAPE   H8Y10788   1.005   4.979   3.943 -0.8926 -0.8363  0.7418
  105SAPE   C3910789   1.015   4.950   4.151  0.1740 -0.5433  0.3631
  105SAPE   H9X10790   1.019   4.840   4.133 -0.9633 -0.3083 -1.5999
  105SAPE   H9Y10791   0.909   4.978   4.167  0.1937 -0.0784 -0.2924
  105SAPE  C31010792   1.089   4.976   4.276 -0.1867  0.4043  0.9676
  105SAPE  H10X10793   1.068   5.081   4.305 -2.0883  0.0927  0.8354
  105SAPE  H10Y10794   1.198   4.956   4.266  0.2225  3.2886 -3.7680
  105SAPE  C31110795   1.033   4.901   4.398  0.3921  0.0490 -0.7953
  105SAPE  H11X10796   1.025   4.791   4.385  3.0844 -0.3867  0.5057
  105SAPE  H11Y10797   0.936   4.952   4.419  0.8782  1.6429 -2.1161
  105SAPE  C31210798   1.113   4.937   4.525 -0.3905  0.0133  0.1077
  105SAPE  H12X10799   1.128   5.046   4.517  1.4433 -0.1730  0.5309
  105SAPE  H12Y10800   1.214   4.891   4.513 -1.0591 -1.9028  1.3317
  105SAPE  C31310801   1.046   4.901   4.662 -0.5112 -0.2174 -0.3452
  105SAPE  H13X10802   1.027   4.792   4.660 -2.4017  0.0898 -2.1506
  105SAPE  H13Y10803   0.950   4.957   4.671 -0.3056 -0.0222  0.7475
  105SAPE  C31410804   1.138   4.942   4.779  0.4309 -0.0013 -0.1954
  105SAPE  H14X10805   1.186   5.039   4.754  0.8557 -0.2432 -0.3370
  105SAPE  H14Y10806   1.220   4.867   4.789 -0.6516 -1.4567 -1.7649
  105SAPE  C31510807   1.060   4.949   4.915  0.2509  0.4181  0.2357
  105SAPE  H15X10808   0.964   4.992   4.879 -0.4560  0.2822  1.8819
  105SAPE  H15Y10809   1.113   5.008   4.992  1.9115  0.0584 -0.5917
  105SAPE  C31610810   1.022   4.810   4.973  0.5371 -0.1116  0.4102
  105SAPE  H16X10811   1.100   4.802   5.051  0.1037  0.3016  0.8945
  105SAPE  H16Y10812   1.033   4.734   4.893  0.6750  1.5178 -1.1599
  105SAPE  C31710813   0.877   4.804   5.029  0.2465 -0.1121  0.2646
  105SAPE  H17X10814   0.865   4.703   5.074  4.2662 -0.9711 -0.2270
  105SAPE  H17Y10815   0.809   4.815   4.942  1.6756 -2.3747 -1.2458
  105SAPE  C31810816   0.856   4.912   5.130 -0.0069 -0.6091  0.4720
  105SAPE  H18X10817   0.869   5.014   5.087  1.1929 -1.2099 -0.6569
  105SAPE  H18Y10818   0.929   4.906   5.213  0.7090 -0.2517 -0.1202
  105SAPE  H18Z10819   0.752   4.911   5.169 -0.0031 -0.8648  0.4776
  106SAPE     N10820   6.254   1.915   3.056 -0.2900  0.0554 -0.3476
  106SAPE   HN110821   6.210   1.927   2.963 -0.1902 -0.2690 -0.4405
  106SAPE   HN210822   6.281   2.004   3.102  2.0837 -0.5892 -0.3748
  106SAPE   HN310823   6.330   1.844   3.052 -2.1142 -2.4017  2.8057
  106SAPE   C1210824   6.168   1.850   3.162  0.0451 -0.5354 -0.1308
  106SAPE  H12A10825   6.227   1.820   3.251  0.3988  2.3815  0.7271
  106SAPE  H12B10826   6.133   1.758   3.109 -1.0523 -0.6001  0.6672
  106SAPE   C1110827   6.047   1.938   3.198  1.0156  0.2203 -0.6256
  106SAPE  H11A10828   6.092   2.029   3.243  0.2768  0.0198  0.5690
  106SAPE  H11B10829   5.985   1.883   3.272  0.8166 -0.2519 -1.1410
  106SAPE     P10830   5.874   1.887   2.999 -0.0081 -0.0482  0.4014
  106SAPE   O1310831   5.771   1.970   2.946  0.1690  0.0176  0.3779
  106SAPE   O1410832   5.944   1.806   2.895  0.1566 -0.0873 -0.3143
  106SAPE   O1210833   5.971   1.976   3.083 -0.0024  0.3151  0.0439
  106SAPE   O1110834   5.820   1.779   3.101  0.9869 -0.5406  0.1758
  106SAPE    C110835   5.694   1.804   3.175  0.1121  0.4509  0.0676
  106SAPE    HA10836   5.666   1.911   3.186 -0.7186  0.0847  1.8340
  106SAPE    HB10837   5.618   1.740   3.125 -0.4731  0.4624  0.9185
  106SAPE    C210838   5.701   1.734   3.315  0.4713 -0.2731  0.7214
  106SAPE    HS10839   5.600   1.748   3.358 -0.8883  0.3935 -2.3630
  106SAPE   O2110840   5.798   1.802   3.401 -0.0316 -0.0203  0.0386
  106SAPE   C2110841   5.763   1.921   3.449  0.5945  1.1623 -0.2021
  106SAPE   O2210842   5.657   1.976   3.436  0.1948  0.1150  0.9125
  106SAPE   C2210843   5.883   1.961   3.536 -0.0243  0.5645 -0.1668
  106SAPE   H2R10844   5.926   1.866   3.575 -1.1033 -0.1741 -0.7516
  106SAPE   H2S10845   5.961   1.992   3.463 -1.1514  1.4988 -1.0182
  106SAPE    C310846   5.740   1.586   3.302  0.0333 -1.2131  0.1914
  106SAPE    HX10847   5.839   1.571   3.255  0.4008 -1.2681  0.9741
  106SAPE    HY10848   5.661   1.542   3.237  0.4444 -0.1026 -1.1086
  106SAPE   O3110849   5.737   1.526   3.433  0.2439 -0.5770 -0.4764
  106SAPE   C3110850   5.846   1.496   3.489 -0.0170 -0.0464 -0.2922
  106SAPE   O3210851   5.954   1.484   3.430  0.2659  0.1983 -0.4562
  106SAPE   C3210852   5.821   1.474   3.636  0.1220 -0.4870  0.2673
  106SAPE   H2X10853   5.822   1.363   3.639 -0.1854 -0.4725  1.7118
  106SAPE   H2Y10854   5.729   1.513   3.683  0.7242  1.9952 -0.4705
  106SAPE   C2310855   5.857   2.062   3.651  1.0450 -0.5536  0.0618
  106SAPE   H3R10856   5.798   2.146   3.609  0.0460  0.1287  2.6564
  106SAPE   H3S10857   5.961   2.095   3.670  1.5470 -2.8860  1.8796
  106SAPE   C2410858   5.778   2.000   3.766  0.1085 -0.3827 -0.4877
  106SAPE   H4R10859   5.682   1.971   3.719  0.0909 -0.4252 -0.4270
  106SAPE   H4S10860   5.753   2.083   3.836  0.8471 -1.7905  1.5558
  106SAPE   C2510861   5.831   1.881   3.848 -0.0145 -0.6371  1.1681
  106SAPE   H5R10862   5.826   1.785   3.794 -1.7378 -0.5145  1.0664
  106SAPE   C2610863   5.883   1.879   3.966 -0.2123  0.3333 -0.4654
  106SAPE   H6R10864   5.926   1.781   3.992  1.5478  1.3300  0.5992
  106SAPE   C2710865   5.919   1.994   4.058 -0.7778 -1.1426 -0.5898
  106SAPE   H7R10866   5.842   1.989   4.138  0.6748  0.8227  1.0416
  106SAPE   H7S10867   5.902   2.094   4.011  0.3817 -0.3935  0.5183
  106SAPE   C2810868   6.060   1.991   4.115 -0.8153  0.2513  1.0590
  106SAPE   H8R10869   6.150   1.997   4.053  0.8111  1.8555  3.3926
  106SAPE   C2910870   6.083   1.968   4.244 -0.5292  0.3775 -0.2561
  106SAPE   H9R10871   6.183   1.975   4.289 -1.3176  2.4251  1.3115
  106SAPE  C21010872   5.979   1.951   4.358 -0.3774  0.8497 -0.1701
  106SAPE  H10R10873   6.022   1.869   4.419  0.2083  0.2619 -1.3419
  106SAPE  H10S10874   5.884   1.912   4.313 -0.3668 -0.2112  0.6992
  106SAPE  C21110875   5.962   2.084   4.437  0.0715  0.0203  0.4054
  106SAPE  H11R10876   5.914   2.164   4.379 -1.2478 -0.1896  1.1699
  106SAPE  C21210877   6.010   2.109   4.564 -0.3092  0.6343 -0.2706
  106SAPE  H12R10878   6.003   2.208   4.610  1.1648  0.4199  0.5055
  106SAPE  C21310879   6.076   2.009   4.659  0.3803 -0.5870 -0.1219
  106SAPE  H13R10880   6.103   1.913   4.610 -0.2344 -0.4936 -0.6639
  106SAPE  H13S10881   6.004   1.983   4.739  1.4252 -0.2924  0.9517
  106SAPE  C21410882   6.210   2.063   4.718  0.2733 -0.9541  0.0565
  106SAPE  H14R10883   6.291   2.075   4.643 -1.0180 -1.7465 -1.5320
  106SAPE  C21510884   6.236   2.111   4.844  0.0481  0.4910 -0.6664
  106SAPE  H15R10885   6.338   2.148   4.860  0.2383  0.3062 -1.3960
  106SAPE  C21610886   6.144   2.117   4.966  0.0948  0.0951  1.0667
  106SAPE  H16R10887   6.039   2.103   4.932  0.5417 -1.3633  0.2109
  106SAPE  H16S10888   6.139   2.220   5.007  0.8716  0.2521  0.7828
  106SAPE  C21710889   6.177   2.020   5.082  1.1730  0.7872  0.7021
  106SAPE  H17R10890   6.083   2.006   5.140 -0.1669 -0.7335 -1.6813
  106SAPE  H17S10891   6.255   2.060   5.150  0.9488 -0.5007  1.7534
  106SAPE  C21810892   6.204   1.875   5.047 -0.4593  0.5528  0.0517
  106SAPE  H18R10893   6.311   1.860   5.024 -0.2415  1.4312  0.4397
  106SAPE  H18S10894   6.151   1.853   4.952 -0.3321 -1.5257  0.4280
  106SAPE  C21910895   6.172   1.761   5.151 -0.8521 -0.8639  0.5607
  106SAPE  H19R10896   6.198   1.665   5.101 -2.4251 -1.3167  0.5736
  106SAPE  H19S10897   6.066   1.757   5.181 -1.1692  1.8714  0.1131
  106SAPE  C22010898   6.255   1.783   5.278  0.4352  0.4049 -0.2757
  106SAPE  H20R10899   6.213   1.720   5.359 -4.2240  3.4549  0.0263
  106SAPE  H20S10900   6.227   1.886   5.310 -0.9748 -0.0095 -0.0975
  106SAPE  H20T10901   6.364   1.766   5.262 -0.2089 -1.4494 -3.6050
  106SAPE   C3310902   5.945   1.513   3.728 -0.2953  0.3852 -0.1714
  106SAPE   H3X10903   5.982   1.614   3.700  1.2935 -0.3295 -0.7824
  106SAPE   H3Y10904   6.024   1.449   3.684 -2.0677 -0.6306 -2.0107
  106SAPE   C3410905   5.948   1.477   3.882 -0.7608 -0.5905 -0.4668
  106SAPE   H4X10906   5.907   1.374   3.890  2.2400 -1.8865 -0.7235
  106SAPE   H4Y10907   5.876   1.548   3.928 -0.0006 -0.3376  0.3554
  106SAPE   C3510908   6.085   1.473   3.942  0.0219 -0.3003 -0.6439
  106SAPE   H5X10909   6.106   1.582   3.941 -3.1885  0.4605  1.1981
  106SAPE   H5Y10910   6.152   1.415   3.874  0.3612  1.7659 -2.1534
  106SAPE   C3610911   6.096   1.426   4.094 -0.2948  0.8857 -1.0868
  106SAPE   H6X10912   6.201   1.399   4.121 -0.5271  1.8807  0.9193
  106SAPE   H6Y10913   6.026   1.341   4.110 -0.8270  1.6185  0.5819
  106SAPE   C3710914   6.063   1.536   4.188  0.1884  0.1141 -0.4741
  106SAPE   H7X10915   5.960   1.569   4.162  1.1581  2.8922 -1.1494
  106SAPE   H7Y10916   6.130   1.623   4.175  1.1506 -0.2058  1.8938
  106SAPE   C3810917   6.066   1.494   4.332  0.3130  0.0369  0.1022
  106SAPE   H8X10918   5.993   1.412   4.354 -0.2490  0.7059  0.7855
  106SAPE   H8Y10919   6.014   1.566   4.399  0.8853 -0.9285  1.6278
  106SAPE   C3910920   6.205   1.453   4.377  0.1819  0.4921 -0.4631
  106SAPE   H9X10921   6.280   1.502   4.311 -1.0430 -0.3416 -2.5675
  106SAPE   H9Y10922   6.221   1.345   4.359 -0.5539  0.4243 -0.7279
  106SAPE  C31010923   6.255   1.493   4.517 -0.1736  0.1020 -1.1562
  106SAPE  H10X10924   6.345   1.438   4.551 -0.3329 -0.4849 -1.6737
  106SAPE  H10Y10925   6.179   1.478   4.596  1.8752  0.4868  0.9757
  106SAPE  C31110926   6.284   1.636   4.549  0.1205 -1.0517 -0.8640
  106SAPE  H11X10927   6.205   1.697   4.502  2.1181  0.7842 -2.0453
  106SAPE  H11Y10928   6.375   1.677   4.500 -0.7604  0.3620 -1.3789
  106SAPE  C31210929   6.286   1.683   4.696 -0.0123  0.1357 -0.0815
  106SAPE  H12X10930   6.218   1.614   4.752  0.5059 -1.5512 -1.4587
  106SAPE  H12Y10931   6.251   1.788   4.708  0.0766  0.2489 -0.7868
  106SAPE  C31310932   6.430   1.676   4.746  0.4694 -0.7360  0.6090
  106SAPE  H13X10933   6.443   1.750   4.828 -1.0139 -0.1730  0.3703
  106SAPE  H13Y10934   6.508   1.707   4.673  2.3033 -1.4182  2.2009
  106SAPE  C31410935   6.466   1.545   4.817  0.9336 -0.0393 -0.7349
  106SAPE  H14X10936   6.569   1.552   4.860  0.4637  0.2745  0.3912
  106SAPE  H14Y10937   6.458   1.450   4.762  0.0024 -0.4485  0.0770
  106SAPE  C31510938   6.378   1.524   4.953 -0.6384  0.3050  0.6934
  106SAPE  H15X10939   6.273   1.559   4.948 -0.7334  0.4141  2.7649
  106SAPE  H15Y10940   6.432   1.591   5.023 -0.7489 -0.1042  1.1770
  106SAPE  C31610941   6.389   1.384   5.021 -0.7432 -0.1371 -0.2148
  106SAPE  H16X10942   6.497   1.361   5.013 -0.8981 -1.7573  1.5945
  106SAPE  H16Y10943   6.337   1.301   4.969 -2.0248  0.6980 -0.3052
  106SAPE  C31710944   6.334   1.373   5.168 -0.5943  0.5003  0.3445
  106SAPE  H17X10945   6.305   1.269   5.194 -2.8801  1.0895  0.3736
  106SAPE  H17Y10946   6.241   1.430   5.153 -1.0828 -0.6723 -1.4506
  106SAPE  C31810947   6.427   1.432   5.276 -0.2015  0.0594 -0.1726
  106SAPE  H18X10948   6.531   1.394   5.262 -0.5436 -0.6760 -0.6934
  106SAPE  H18Y10949   6.390   1.409   5.378  1.8502  1.9747  1.1263
  106SAPE  H18Z10950   6.437   1.543   5.271 -2.8792  0.3170 -1.4594
  107SAPE     N10951   0.192   0.882   2.650 -0.2251 -0.3500 -0.1415
  107SAPE   HN110952   0.187   0.817   2.731 -1.2177 -2.0026 -1.4697
  107SAPE   HN210953   0.291   0.910   2.634 -0.1873 -1.1944 -1.4746
  107SAPE   HN310954   0.141   0.966   2.685 -0.8103 -0.4479 -0.7491
  107SAPE   C1210955   0.135   0.827   2.522  0.1715  0.1093 -0.1554
  107SAPE  H12A10956   0.203   0.855   2.438 -0.3206  0.6001 -0.3941
  107SAPE  H12B10957   0.036   0.876   2.512  1.0804  1.9194 -0.9354
  107SAPE   C1110958   0.112   0.680   2.554 -0.4183  0.6453 -0.8821
  107SAPE  H11A10959   0.213   0.645   2.585  0.1740  2.6552 -0.4041
  107SAPE  H11B10960   0.081   0.619   2.466 -0.0516  0.8799 -1.1794
  107SAPE     P10961  -0.117   0.617   2.651 -0.0831  0.1076 -0.0001
  107SAPE   O1310962  -0.173   0.706   2.552  0.1021 -0.2825 -0.0750
  107SAPE   O1410963  -0.133   0.470   2.624 -0.9982  0.3319  0.0425
  107SAPE   O1210964   0.037   0.635   2.668  0.2777 -0.8869 -0.0163
  107SAPE   O1110965  -0.176   0.646   2.797 -0.8408  0.4563 -0.2206
  107SAPE    C110966  -0.134   0.570   2.911  0.1180 -0.6491  0.4758
  107SAPE    HA10967  -0.194   0.598   3.001  0.9431  0.3607  0.7441
  107SAPE    HB10968  -0.161   0.464   2.894  0.7356 -0.6185 -0.8573
  107SAPE    C210969   0.013   0.587   2.953 -0.0351 -0.4342  0.2806
  107SAPE    HS10970   0.071   0.546   2.867 -0.3269 -1.8981  0.7561
  107SAPE   O2110971   0.032   0.501   3.065  0.6241  0.1158 -0.3249
  107SAPE   C2110972   0.157   0.441   3.091  0.1821 -0.0560 -0.5497
  107SAPE   O2210973   0.251   0.457   3.022 -0.3362 -0.2590  0.6270
  107SAPE   C2210974   0.148   0.358   3.213  0.6374  0.0522 -0.9404
  107SAPE   H2R10975   0.075   0.277   3.190 -0.2448  0.4618  0.3057
  107SAPE   H2S10976   0.247   0.312   3.234 -0.0625 -1.0167  0.1076
  107SAPE    C310977   0.063   0.730   2.986  0.2180 -0.9532 -0.2405
  107SAPE    HX10978  -0.018   0.765   3.053  0.4247 -1.1780  0.1343
  107SAPE    HY10979   0.056   0.794   2.896 -0.3034 -2.2315 -1.1370
  107SAPE   O3110980   0.184   0.744   3.064  0.2758 -0.9260  0.0647
  107SAPE   C3110981   0.301   0.743   2.998  0.5179  0.0299 -0.6960
  107SAPE   O3210982   0.305   0.732   2.879 -0.3592  0.1946  0.5192
  107SAPE   C3210983   0.420   0.724   3.093 -0.4598 -0.2648 -0.5409
  107SAPE   H2X10984   0.509   0.758   3.036  1.3797 -2.2642  1.0041
  107SAPE   H2Y10985   0.421   0.613   3.100 -1.5165 -0.2930 -0.6945
  107SAPE   C2310986   0.097   0.439   3.336 -0.6594 -0.0257  0.1131
  107SAPE   H3R10987   0.061   0.382   3.424 -0.1362 -2.3565 -1.1208
  107SAPE   H3S10988   0.023   0.518   3.310 -0.1143  0.2566 -0.6349
  107SAPE   C2410989   0.203   0.535   3.390 -1.1954  0.2056  0.1408
  107SAPE   H4R10990   0.253   0.591   3.308 -0.2707  1.8677  1.7779
  107SAPE   H4S10991   0.290   0.471   3.418 -2.2640 -2.0490 -1.3857
  107SAPE   C2510992   0.164   0.629   3.512  0.3772  1.0891  1.0349
  107SAPE   H5R10993   0.095   0.709   3.482  0.4610  0.4711 -0.9855
  107SAPE   C2610994   0.215   0.624   3.644  0.3720 -0.3159  0.2114
  107SAPE   H6R10995   0.181   0.700   3.717  0.1696 -0.7580  0.5822
  107SAPE   C2710996   0.315   0.520   3.680  0.3943  0.1368 -0.1624
  107SAPE   H7R10997   0.384   0.547   3.763  1.1293  0.4832 -0.8708
  107SAPE   H7S10998   0.395   0.498   3.606 -0.1835 -1.4445 -0.3560
  107SAPE   C2810999   0.250   0.385   3.700 -0.3375 -0.1038 -0.3986
  107SAPE   H8R11000   0.248   0.315   3.615 -3.1154 -1.9682  1.0647
  107SAPE   C2911001   0.197   0.354   3.818  0.6389 -0.3066 -0.1766
  107SAPE   H9R11002   0.152   0.255   3.835 -1.4223  0.5841 -0.1768
  107SAPE  C21011003   0.193   0.431   3.944 -0.5323 -0.4042  0.0591
  107SAPE  H10R11004   0.112   0.505   3.928  0.1906  0.2312 -0.7327
  107SAPE  H10S11005   0.278   0.503   3.943 -2.4334  2.0068  0.8527
  107SAPE  C21111006   0.169   0.349   4.065  0.3497  0.2243 -0.2911
  107SAPE  H11R11007   0.079   0.286   4.060  0.0902  0.6578 -1.1550
  107SAPE  C21211008   0.241   0.355   4.178 -0.1426 -0.2711  0.6389
  107SAPE  H12R11009   0.214   0.287   4.260  0.2584 -0.6807  0.4306
  107SAPE  C21311010   0.372   0.437   4.191  0.7774 -0.9054 -0.1088
  107SAPE  H13R11011   0.353   0.495   4.283 -0.5306  0.3607 -1.1347
  107SAPE  H13S11012   0.381   0.515   4.113  1.0895 -0.5968  0.2340
  107SAPE  C21411013   0.500   0.356   4.209 -0.2852  0.5312 -0.0157
  107SAPE  H14R11014   0.570   0.356   4.124  1.4510  0.8587  1.3648
  107SAPE  C21511015   0.539   0.298   4.320 -0.3704  0.2702  0.1440
  107SAPE  H15R11016   0.622   0.226   4.320 -1.0032 -0.4754  0.4157
  107SAPE  C21611017   0.456   0.281   4.448  0.0060 -0.2443 -0.0778
  107SAPE  H16R11018   0.477   0.177   4.481  0.8090  0.7877  2.9850
  107SAPE  H16S11019   0.346   0.291   4.441 -0.3447 -2.5133  1.1691
  107SAPE  C21711020   0.516   0.370   4.555 -0.1929 -0.0702 -0.3655
  107SAPE  H17R11021   0.509   0.480   4.540 -1.4354  0.1558  1.5143
  107SAPE  H17S11022   0.626   0.355   4.552  0.0163  1.1921  0.3079
  107SAPE  C21811023   0.455   0.337   4.686  0.1719  0.9533 -0.2910
  107SAPE  H18R11024   0.349   0.368   4.697  0.6464  2.0291  1.7288
  107SAPE  H18S11025   0.513   0.383   4.769  0.7821 -0.7438  0.2604
  107SAPE  C21911026   0.470   0.189   4.727  0.7133 -1.2337 -0.3451
  107SAPE  H19R11027   0.411   0.123   4.659  0.9412 -0.8428 -0.9244
  107SAPE  H19S11028   0.424   0.191   4.828 -1.2110  1.0815 -1.1608
  107SAPE  C22011029   0.610   0.130   4.731 -0.2507  0.0090 -0.0453
  107SAPE  H20R11030   0.596   0.030   4.779 -0.1233  0.8078  1.7094
  107SAPE  H20S11031   0.673   0.201   4.788  2.9316 -0.6498 -2.4741
  107SAPE  H20T11032   0.657   0.115   4.631  2.1418 -1.1285  1.1604
  107SAPE   C3311033   0.400   0.806   3.230  0.4606 -0.4383 -0.3947
  107SAPE   H3X11034   0.296   0.803   3.268  1.1326 -0.2676  1.5682
  107SAPE   H3Y11035   0.429   0.911   3.209 -2.0380  0.2011 -0.9711
  107SAPE   C3411036   0.492   0.745   3.340 -0.0201  0.6904  0.2546
  107SAPE   H4X11037   0.591   0.709   3.303  1.7811  1.4133  3.8479
  107SAPE   H4Y11038   0.455   0.650   3.384  2.1799 -0.3756 -0.0365
  107SAPE   C3511039   0.530   0.837   3.457  0.1882  0.4734 -0.5773
  107SAPE   H5X11040   0.429   0.873   3.484  0.4313  0.7625 -0.0334
  107SAPE   H5Y11041   0.602   0.920   3.442 -0.2551  1.0786  0.5445
  107SAPE   C3611042   0.583   0.752   3.575 -0.0937  0.0431 -0.1891
  107SAPE   H6X11043   0.683   0.714   3.548  0.7121  1.1295  1.1475
  107SAPE   H6Y11044   0.527   0.657   3.591 -1.3670  0.5463 -1.4064
  107SAPE   C3711045   0.594   0.834   3.700  0.1776 -0.2644 -0.4029
  107SAPE   H7X11046   0.495   0.870   3.735  0.5575 -1.0330  1.6080
  107SAPE   H7Y11047   0.665   0.919   3.704 -1.4236  1.0937  0.3510
  107SAPE   C3811048   0.638   0.743   3.821  1.0867 -0.6816 -0.4946
  107SAPE   H8X11049   0.731   0.691   3.789  2.1596 -0.1512  1.5587
  107SAPE   H8Y11050   0.565   0.660   3.831  0.1093  0.1873 -0.3013
  107SAPE   C3911051   0.660   0.811   3.957 -0.1089  0.3588  0.4405
  107SAPE   H9X11052   0.564   0.863   3.977 -0.3930 -0.6831  1.9201
  107SAPE   H9Y11053   0.749   0.879   3.954  1.5493 -1.7014  0.4976
  107SAPE  C31011054   0.695   0.710   4.067 -0.2050  0.1129  0.3197
  107SAPE  H10X11055   0.789   0.655   4.045  0.2614  0.1338  2.1246
  107SAPE  H10Y11056   0.615   0.634   4.054  0.7595 -0.6718 -1.2907
  107SAPE  C31111057   0.701   0.771   4.206 -0.2804 -0.0183 -0.1914
  107SAPE  H11X11058   0.600   0.818   4.206 -0.0069  0.5871 -0.6952
  107SAPE  H11Y11059   0.781   0.848   4.206  1.1476 -1.3817 -2.6519
  107SAPE  C31211060   0.733   0.670   4.313  0.1645 -0.6757 -0.0622
  107SAPE  H12X11061   0.831   0.623   4.292  0.4252 -0.4350  0.6108
  107SAPE  H12Y11062   0.657   0.589   4.318 -1.3430  0.6926 -0.0886
  107SAPE  C31311063   0.738   0.739   4.452  0.0435  0.1675  0.2381
  107SAPE  H13X11064   0.641   0.756   4.503 -0.3697  0.6142 -0.6648
  107SAPE  H13Y11065   0.791   0.834   4.427  1.3882 -1.0526 -1.8317
  107SAPE  C31411066   0.826   0.657   4.545  0.8060 -0.0913 -0.2436
  107SAPE  H14X11067   0.903   0.594   4.495  2.6991  0.3487  1.9478
  107SAPE  H14Y11068   0.759   0.590   4.602  1.4238  0.3292  1.0252
  107SAPE  C31511069   0.914   0.740   4.642  0.2363  0.3095  0.0571
  107SAPE  H15X11070   0.854   0.827   4.677 -0.3389  1.3058 -3.0745
  107SAPE  H15Y11071   0.993   0.784   4.577  2.1521 -3.0365 -0.0850
  107SAPE  C31611072   0.970   0.661   4.756 -1.1711  0.4260  0.2872
  107SAPE  H16X11073   1.048   0.722   4.806  2.4034 -2.1415 -1.6484
  107SAPE  H16Y11074   1.009   0.565   4.716  0.5512  0.9499  0.6334
  107SAPE  C31711075   0.854   0.627   4.853  1.0777  0.2279 -0.1454
  107SAPE  H17X11076   0.783   0.563   4.796  0.1909 -0.1521  1.3593
  107SAPE  H17Y11077   0.812   0.729   4.863 -1.1446 -0.6471  0.0326
  107SAPE  C31811078   0.912   0.571   4.977 -0.2093  0.5326 -0.2073
  107SAPE  H18X11079   0.990   0.638   5.018  1.2601  0.7938 -3.1083
  107SAPE  H18Y11080   0.954   0.473   4.944 -0.3915  1.6306 -4.3118
  107SAPE  H18Z11081   0.830   0.562   5.051 -2.1666  0.5885 -2.2721
  108SAPE     N11082   3.925   1.328   2.968  0.0673  0.0028  0.3435
  108SAPE   HN111083   3.930   1.331   3.072 -0.7307  3.0912  0.3708
  108SAPE   HN211084   3.827   1.349   2.941  0.8101 -0.2168 -2.9496
  108SAPE   HN311085   3.952   1.235   2.928  1.5132  0.8265 -0.6808
  108SAPE   C1211086   4.017   1.432   2.899  0.0801 -0.4285  0.3238
  108SAPE  H12A11087   3.998   1.414   2.791 -0.5344  0.3139  0.2964
  108SAPE  H12B11088   4.124   1.417   2.924  0.1206 -0.3570  0.1948
  108SAPE   C1111089   3.960   1.578   2.926 -0.0884 -0.1710  0.3978
  108SAPE  H11A11090   4.029   1.658   2.891 -0.4694  0.1949  0.4655
  108SAPE  H11B11091   3.948   1.583   3.036 -0.4101 -4.2257  0.6760
  108SAPE     P11092   3.783   1.724   2.797 -0.0426  0.4512  0.3238
  108SAPE   O1311093   3.802   1.832   2.895  0.1453  0.4987 -0.4297
  108SAPE   O1411094   3.852   1.741   2.672  0.3213 -0.0679  0.1514
  108SAPE   O1211095   3.831   1.587   2.864 -0.3305 -0.7336 -0.0255
  108SAPE   O1111096   3.630   1.694   2.770  0.3482  0.2090  0.1863
  108SAPE    C111097   3.579   1.562   2.788 -0.5834 -0.6465 -0.1906
  108SAPE    HA11098   3.484   1.572   2.731  0.9475  0.1513 -2.7522
  108SAPE    HB11099   3.634   1.485   2.730 -1.7178 -0.4307 -1.6155
  108SAPE    C211100   3.547   1.526   2.936 -0.4960 -0.4046  0.4181
  108SAPE    HS11101   3.640   1.510   2.994  0.0196 -1.8706 -0.7373
  108SAPE   O2111102   3.460   1.417   2.946 -0.2148  0.6426  0.8042
  108SAPE   C2111103   3.530   1.296   2.938  0.3776 -0.1970 -0.4251
  108SAPE   O2211104   3.647   1.285   2.905  0.6949 -0.4481  0.5420
  108SAPE   C2211105   3.433   1.182   2.976  0.0834  0.5721 -0.4933
  108SAPE   H2R11106   3.372   1.214   3.063 -0.5866  2.1195 -1.4949
  108SAPE   H2S11107   3.359   1.174   2.894  0.7911  1.7012 -1.2803
  108SAPE    C311108   3.482   1.646   3.006 -0.2771  0.1059 -0.3908
  108SAPE    HX11109   3.386   1.689   2.970 -0.7097  0.8670  1.5639
  108SAPE    HY11110   3.545   1.737   3.012  0.8537 -0.4448 -2.6616
  108SAPE   O3111111   3.468   1.598   3.146 -0.0398  0.1434  0.3108
  108SAPE   C3111112   3.422   1.685   3.235 -0.0801  0.5118  0.6453
  108SAPE   O3211113   3.395   1.799   3.206 -0.1524 -0.1622  0.0593
  108SAPE   C3211114   3.386   1.618   3.371 -0.0041 -0.0201  0.3169
  108SAPE   H2X11115   3.455   1.656   3.449  0.7165  0.4587 -0.5309
  108SAPE   H2Y11116   3.387   1.508   3.365  2.6088 -0.1741  2.0836
  108SAPE   C2311117   3.512   1.054   2.996 -0.5489  0.0781  0.2701
  108SAPE   H3R11118   3.594   1.058   3.071 -1.6216 -1.6946  1.6263
  108SAPE   H3S11119   3.559   1.036   2.897 -0.9233  1.3089 -0.1533
  108SAPE   C2411120   3.433   0.923   3.033  0.5084  0.0560 -0.6195
  108SAPE   H4R11121   3.449   0.913   3.142  0.1093 -2.3220 -0.7166
  108SAPE   H4S11122   3.491   0.840   2.986  4.1406  1.1358  1.5656
  108SAPE   C2511123   3.289   0.928   2.976 -0.2599  0.3985  0.4337
  108SAPE   H5R11124   3.279   0.934   2.867  0.0228 -0.6881  0.3334
  108SAPE   C2611125   3.174   0.940   3.041  0.0338  0.1562  0.2216
  108SAPE   H6R11126   3.082   0.947   2.981  0.1485  1.7402  0.1935
  108SAPE   C2711127   3.138   0.945   3.190  0.4546  0.3520  0.2180
  108SAPE   H7R11128   3.202   0.886   3.258 -0.1255  1.4898  1.8218
  108SAPE   H7S11129   3.045   0.885   3.193  0.8977 -0.3850 -0.4704
  108SAPE   C2811130   3.108   1.080   3.251 -0.3393 -0.7723 -0.4085
  108SAPE   H8R11131   3.102   1.166   3.183 -0.0275  0.6445  1.2749
  108SAPE   C2911132   3.113   1.091   3.387  0.8524 -0.9622 -0.7102
  108SAPE   H9R11133   3.108   1.192   3.431 -2.2715 -1.0804 -0.5129
  108SAPE  C21011134   3.119   0.985   3.497  0.7089  0.0369 -0.5786
  108SAPE  H10R11135   3.177   1.036   3.578 -0.8413 -0.5779  0.9696
  108SAPE  H10S11136   3.171   0.896   3.455 -3.1206 -2.2943 -0.8608
  108SAPE  C21111137   2.979   0.963   3.552  0.6007  0.5267 -0.1952
  108SAPE  H11R11138   2.928   0.877   3.506  2.7127 -1.1443  0.4212
  108SAPE  C21211139   2.917   1.015   3.655  0.6846 -0.1181 -0.5225
  108SAPE  H12R11140   2.818   0.980   3.686  0.9169  1.0184  1.6942
  108SAPE  C21311141   2.982   1.116   3.749  1.1928  0.1437  0.0834
  108SAPE  H13R11142   2.901   1.167   3.807 -0.4917 -1.1531 -1.0044
  108SAPE  H13S11143   3.029   1.198   3.693  0.8268 -0.0239 -0.4757
  108SAPE  C21411144   3.068   1.053   3.861 -0.3919 -0.4132 -0.2372
  108SAPE  H14R11145   3.161   1.006   3.825  1.3282  2.3707  0.2780
  108SAPE  C21511146   3.043   1.052   3.994 -1.6744 -0.4358  0.3324
  108SAPE  H15R11147   3.118   1.003   4.057  0.5521  0.1754 -1.7231
  108SAPE  C21611148   2.932   1.119   4.060  0.4191 -0.4183 -0.0041
  108SAPE  H16R11149   2.845   1.153   4.000  0.4522  3.9185  1.9933
  108SAPE  H16S11150   2.962   1.216   4.106 -2.3525  0.0353  1.0885
  108SAPE  C21711151   2.868   1.031   4.176 -0.2902 -0.1535  0.0631
  108SAPE  H17R11152   2.836   0.932   4.137 -1.7678  0.0917  0.5602
  108SAPE  H17S11153   2.772   1.087   4.186 -0.8737 -0.8479 -1.2951
  108SAPE  C21811154   2.948   1.008   4.305 -0.7622 -0.1534 -0.0583
  108SAPE  H18R11155   2.984   1.100   4.355 -1.5380 -0.3434  0.8916
  108SAPE  H18S11156   3.045   0.970   4.268 -0.9714 -0.3557 -0.4106
  108SAPE  C21911157   2.883   0.919   4.407  0.5164  0.0259 -0.0675
  108SAPE  H19R11158   2.835   0.833   4.356  0.3101 -1.6670  2.7752
  108SAPE  H19S11159   2.800   0.975   4.457 -0.3016  1.8673 -3.2195
  108SAPE  C22011160   2.975   0.867   4.510 -0.1520 -0.1461  0.6741
  108SAPE  H20R11161   3.052   0.809   4.455 -0.3506  0.4052 -0.1999
  108SAPE  H20S11162   2.934   0.790   4.579 -4.1868  1.7650  0.7033
  108SAPE  H20T11163   3.034   0.935   4.575 -1.2663  0.1122  1.4499
  108SAPE   C3311164   3.236   1.658   3.397 -0.3564  0.0209 -0.4436
  108SAPE   H3X11165   3.162   1.625   3.322 -1.4819 -3.7603  2.0182
  108SAPE   H3Y11166   3.239   1.769   3.407  0.0848 -0.1286  1.3776
  108SAPE   C3411167   3.191   1.581   3.523  0.5563 -0.1334 -0.0157
  108SAPE   H4X11168   3.262   1.586   3.608 -0.6074 -0.6612  1.0239
  108SAPE   H4Y11169   3.193   1.472   3.504 -1.1258 -0.3440  0.8318
  108SAPE   C3511170   3.040   1.613   3.561 -0.9079  0.0416 -0.0093
  108SAPE   H5X11171   3.034   1.723   3.572  0.5907  0.1868 -0.4926
  108SAPE   H5Y11172   2.976   1.581   3.476  1.2822 -0.3144 -1.6036
  108SAPE   C3611173   3.003   1.547   3.694 -0.0517  0.4454  0.1539
  108SAPE   H6X11174   3.075   1.580   3.771 -1.6356 -0.1106  1.9440
  108SAPE   H6Y11175   3.016   1.438   3.683 -0.4164  0.5139 -1.2629
  108SAPE   C3711176   2.860   1.590   3.744 -0.3666  0.2333  0.4218
  108SAPE   H7X11177   2.785   1.550   3.673  0.8030  0.5067 -1.0296
  108SAPE   H7Y11178   2.860   1.700   3.761 -1.1422  0.0556  1.6841
  108SAPE   C3811179   2.832   1.520   3.874 -0.5219 -0.7796 -0.3040
  108SAPE   H8X11180   2.895   1.575   3.947  0.2106  0.3044 -1.7012
  108SAPE   H8Y11181   2.853   1.412   3.892 -0.1104 -0.6609 -0.0648
  108SAPE   C3911182   2.684   1.550   3.914 -0.7169  0.4458 -0.1325
  108SAPE   H9X11183   2.619   1.527   3.826 -0.4777 -0.0382 -0.1863
  108SAPE   H9Y11184   2.684   1.659   3.934 -1.9048  0.1790  1.4774
  108SAPE  C31011185   2.636   1.460   4.031  0.1189 -0.3977  0.3898
  108SAPE  H10X11186   2.643   1.352   4.005 -0.0757 -0.2135 -0.4642
  108SAPE  H10Y11187   2.527   1.481   4.038  0.3531  0.3274  2.9030
  108SAPE  C31111188   2.698   1.478   4.174  0.5476 -0.5488  0.2721
  108SAPE  H11X11189   2.686   1.586   4.197 -2.1362 -0.3312 -1.7339
  108SAPE  H11Y11190   2.808   1.458   4.177  0.5112 -0.8754 -0.4947
  108SAPE  C31211191   2.623   1.395   4.273  0.1295  0.2137 -0.4804
  108SAPE  H12X11192   2.586   1.304   4.222  0.1762 -0.8553  1.3084
  108SAPE  H12Y11193   2.535   1.450   4.314  1.9645  2.9276  0.0814
  108SAPE  C31311194   2.711   1.337   4.385 -0.3941 -0.3797 -0.0123
  108SAPE  H13X11195   2.733   1.414   4.463  2.1082  0.9640 -1.8936
  108SAPE  H13Y11196   2.807   1.304   4.339 -0.8168 -2.4946  0.5516
  108SAPE  C31411197   2.645   1.226   4.463  0.5317 -0.6431  0.8430
  108SAPE  H14X11198   2.725   1.163   4.507  1.4249  0.6941  1.2057
  108SAPE  H14Y11199   2.579   1.168   4.396 -1.6708  1.6335  0.8983
  108SAPE  C31511200   2.556   1.283   4.576 -0.0751 -0.7084  0.1134
  108SAPE  H15X11201   2.496   1.370   4.543  0.1150 -1.0060 -1.0516
  108SAPE  H15Y11202   2.617   1.325   4.659  0.0986  0.0810 -0.4042
  108SAPE  C31611203   2.461   1.180   4.627  0.7917 -0.1638 -0.7820
  108SAPE  H16X11204   2.516   1.100   4.681  0.5134  0.7114  0.8815
  108SAPE  H16Y11205   2.406   1.132   4.544 -3.2453  0.6603  1.1159
  108SAPE  C31711206   2.369   1.243   4.733 -0.4789 -0.2913 -0.6770
  108SAPE  H17X11207   2.298   1.312   4.684  0.2042 -0.3155 -1.7230
  108SAPE  H17Y11208   2.420   1.293   4.818 -1.5768 -2.2421  1.2294
  108SAPE  C31811209   2.274   1.133   4.796  0.0322 -0.2872 -0.4513
  108SAPE  H18X11210   2.187   1.193   4.832  0.3187  0.4376 -0.9433
  108SAPE  H18Y11211   2.330   1.072   4.870 -0.8133  0.4619  0.8408
  108SAPE  H18Z11212   2.235   1.075   4.709 -0.1155  1.3098 -1.5097
  109SAPE     N11213   0.868   1.881   2.624 -0.3798  0.0663 -0.1488
  109SAPE   HN111214   0.906   1.853   2.531 -2.8456  2.7856 -2.1621
  109SAPE   HN211215   0.769   1.852   2.632 -0.2531  0.1195  2.4326
  109SAPE   HN311216   0.873   1.985   2.620  0.7815  0.1737  2.1008
  109SAPE   C1211217   0.939   1.831   2.743 -0.3967  0.2204  0.2566
  109SAPE  H12A11218   0.925   1.903   2.827 -0.3784  0.2957  0.1955
  109SAPE  H12B11219   1.047   1.843   2.716 -0.5448  0.4147 -0.2638
  109SAPE   C1111220   0.912   1.680   2.773  0.8877  0.6638 -0.0573
  109SAPE  H11A11221   0.935   1.652   2.878  0.9044  2.5556  0.4847
  109SAPE  H11B11222   0.987   1.622   2.715  0.4579 -0.1434  0.1816
  109SAPE     P11223   0.685   1.553   2.813 -0.2422  0.0707 -0.3991
  109SAPE   O1311224   0.549   1.604   2.801 -0.2973  0.0568 -0.5035
  109SAPE   O1411225   0.711   1.419   2.756  0.9046 -0.6895 -0.9335
  109SAPE   O1211226   0.783   1.641   2.732 -0.2792  0.0726 -0.2654
  109SAPE   O1111227   0.728   1.571   2.961 -0.0974  0.5785 -0.1310
  109SAPE    C111228   0.674   1.668   3.050  0.9221  0.3218 -0.3124
  109SAPE    HA11229   0.696   1.765   3.000  0.8556  0.1409 -0.6907
  109SAPE    HB11230   0.563   1.671   3.058  0.8578  3.1095 -1.0873
  109SAPE    C211231   0.735   1.668   3.188  0.0367 -0.0577  0.4220
  109SAPE    HS11232   0.700   1.751   3.252 -1.2564 -0.4522  0.2615
  109SAPE   O2111233   0.877   1.655   3.173  0.2668 -0.4377 -0.5173
  109SAPE   C2111234   0.942   1.765   3.138  0.3258  0.2011 -0.2462
  109SAPE   O2211235   0.885   1.873   3.116  0.7224  0.3883 -0.0365
  109SAPE   C2211236   1.098   1.746   3.145 -0.3598  0.0030  0.5330
  109SAPE   H2R11237   1.130   1.648   3.103 -0.9940 -0.5093  1.2097
  109SAPE   H2S11238   1.146   1.819   3.076  0.4389 -1.0601 -0.0692
  109SAPE    C311239   0.678   1.550   3.270  0.1502 -0.2373  0.4836
  109SAPE    HX11240   0.712   1.457   3.219 -3.7588 -2.2852  1.1616
  109SAPE    HY11241   0.567   1.553   3.269  0.1468  1.6660 -1.9912
  109SAPE   O3111242   0.725   1.555   3.408 -0.4872  0.4485  0.7643
  109SAPE   C3111243   0.804   1.454   3.450 -0.1951  1.3171 -0.5375
  109SAPE   O3211244   0.821   1.349   3.393 -0.2523  0.2350  0.3219
  109SAPE   C3211245   0.857   1.487   3.592 -0.4513  0.0897  0.0401
  109SAPE   H2X11246   0.770   1.533   3.642  0.0890 -0.0722  1.1675
  109SAPE   H2Y11247   0.945   1.555   3.587  0.3874 -0.8985  0.7652
  109SAPE   C2311248   1.145   1.761   3.285 -0.0399 -0.3459  0.0350
  109SAPE   H3R11249   1.108   1.675   3.345  0.7467 -1.5696 -1.1774
  109SAPE   H3S11250   1.099   1.850   3.334  2.5089  0.9954  0.1451
  109SAPE   C2411251   1.290   1.749   3.301 -0.2394  0.0682 -0.3184
  109SAPE   H4R11252   1.327   1.684   3.218  0.1379  0.2247 -0.2738
  109SAPE   H4S11253   1.315   1.700   3.398 -1.0720  1.7414  0.7730
  109SAPE   C2511254   1.359   1.888   3.296 -0.5632  0.5142  0.6739
  109SAPE   H5R11255   1.349   1.949   3.205 -0.5766  0.2011  0.4640
  109SAPE   C2611256   1.439   1.937   3.394  0.1070  0.4932 -0.9162
  109SAPE   H6R11257   1.464   2.044   3.389  1.4134  0.4210  1.8683
  109SAPE   C2711258   1.477   1.883   3.532 -0.4001 -0.2158  0.2869
  109SAPE   H7R11259   1.563   1.937   3.575 -1.9037  2.2776  0.3531
  109SAPE   H7S11260   1.514   1.778   3.525  1.1484  0.3607 -0.5796
  109SAPE   C2811261   1.365   1.884   3.631 -0.0418  0.2703  0.3071
  109SAPE   H8R11262   1.279   1.949   3.609 -2.6722 -2.7049  1.0162
  109SAPE   C2911263   1.360   1.824   3.748  0.4250 -0.1449  0.4921
  109SAPE   H9R11264   1.266   1.825   3.805  0.7445 -2.5569  1.1516
  109SAPE  C21011265   1.467   1.743   3.821 -0.7267  0.3726 -0.1321
  109SAPE  H10R11266   1.492   1.791   3.918 -2.9691  3.1773 -0.7906
  109SAPE  H10S11267   1.559   1.739   3.759 -2.4927  0.1717 -2.9240
  109SAPE  C21111268   1.411   1.604   3.833  0.1324 -0.4206 -0.2631
  109SAPE  H11R11269   1.411   1.541   3.743  0.1177 -1.1522  0.2407
  109SAPE  C21211270   1.359   1.554   3.948  0.2324 -0.5347 -0.4975
  109SAPE  H12R11271   1.324   1.450   3.937  0.7755 -0.7131 -0.5427
  109SAPE  C21311272   1.359   1.613   4.085  0.4094  0.0138 -0.1601
  109SAPE  H13R11273   1.266   1.584   4.139  0.9224 -2.1189 -0.3352
  109SAPE  H13S11274   1.373   1.723   4.086 -0.2798  0.1085 -0.7890
  109SAPE  C21411275   1.476   1.551   4.157 -0.5005  1.3324 -0.2132
  109SAPE  H14R11276   1.546   1.490   4.097  1.8070  3.4569  0.1695
  109SAPE  C21511277   1.494   1.555   4.290  0.4322 -0.4470  0.1972
  109SAPE  H15R11278   1.576   1.500   4.338 -0.4394 -0.9905  1.1069
  109SAPE  C21611279   1.420   1.625   4.395  0.1019 -0.4366  0.1580
  109SAPE  H16R11280   1.313   1.637   4.371  0.2665  0.3793 -0.1995
  109SAPE  H16S11281   1.465   1.725   4.413 -3.1234  1.5613 -1.8835
  109SAPE  C21711282   1.436   1.545   4.528 -0.1860  0.3343  0.0452
  109SAPE  H17R11283   1.402   1.441   4.507 -0.0099  0.3421 -0.2838
  109SAPE  H17S11284   1.367   1.592   4.601  0.5639 -0.3060  1.2122
  109SAPE  C21811285   1.585   1.540   4.578  0.3703 -0.4436  0.0680
  109SAPE  H18R11286   1.650   1.618   4.533  0.1227 -1.0505 -1.4200
  109SAPE  H18S11287   1.639   1.448   4.545  1.0052 -0.1218  0.1976
  109SAPE  C21911288   1.582   1.544   4.730 -0.3219  0.6183 -0.5390
  109SAPE  H19R11289   1.515   1.465   4.770  1.6156 -0.6698  0.2909
  109SAPE  H19S11290   1.553   1.649   4.753  0.8427  1.1838 -1.5476
  109SAPE  C22011291   1.722   1.504   4.778  0.1042  0.3223  0.3771
  109SAPE  H20R11292   1.740   1.396   4.760 -1.1625  0.1133  0.2270
  109SAPE  H20S11293   1.739   1.522   4.886 -1.1157  0.7490  0.5142
  109SAPE  H20T11294   1.792   1.567   4.720  0.4004 -0.0927  0.2829
  109SAPE   C3311295   0.903   1.366   3.677  0.3277  0.0060 -0.8914
  109SAPE   H3X11296   0.995   1.314   3.641  0.5454 -1.8673  2.0009
  109SAPE   H3Y11297   0.831   1.282   3.682 -1.3357  1.4715  1.8054
  109SAPE   C3411298   0.920   1.413   3.821  0.0969 -0.2200  0.4123
  109SAPE   H4X11299   0.821   1.449   3.857 -0.9855 -1.5557 -1.0780
  109SAPE   H4Y11300   0.982   1.505   3.817 -0.1893 -0.0326  0.2429
  109SAPE   C3511301   0.993   1.311   3.899 -0.1836  0.5202  0.3160
  109SAPE   H5X11302   1.097   1.291   3.863 -0.6912 -0.3488 -0.7449
  109SAPE   H5Y11303   0.941   1.213   3.904 -0.2039  0.5308  0.3107
  109SAPE   C3611304   1.026   1.366   4.045 -0.0620  0.5894 -0.2854
  109SAPE   H6X11305   0.928   1.393   4.092  0.5938 -0.5758  1.8911
  109SAPE   H6Y11306   1.083   1.461   4.048 -1.1118  1.2248  2.2630
  109SAPE   C3711307   1.105   1.276   4.135  0.2998  0.0856  0.2588
  109SAPE   H7X11308   1.210   1.310   4.121  0.4157 -0.1744  0.4867
  109SAPE   H7Y11309   1.091   1.168   4.115  1.0457  0.0334  0.0064
  109SAPE   C3811310   1.064   1.294   4.286  0.8777  0.0873  0.5218
  109SAPE   H8X11311   0.958   1.261   4.298  0.6381  0.7660  0.3578
  109SAPE   H8Y11312   1.064   1.401   4.315  2.7293 -0.4649  2.8046
  109SAPE   C3911313   1.157   1.233   4.396 -0.2085 -0.0995  0.4130
  109SAPE   H9X11314   1.254   1.286   4.400  1.4496 -2.5985 -2.3266
  109SAPE   H9Y11315   1.197   1.132   4.371  0.4891 -0.0261  1.1790
  109SAPE  C31011316   1.101   1.216   4.544 -0.8952  0.5513 -0.3525
  109SAPE  H10X11317   1.040   1.127   4.568  0.5042 -0.1585  0.7573
  109SAPE  H10Y11318   1.029   1.300   4.547  0.0209  1.3534 -0.2440
  109SAPE  C31111319   1.207   1.247   4.657  0.3877  0.3495  0.2831
  109SAPE  H11X11320   1.156   1.258   4.755  2.5618 -0.0680  1.5407
  109SAPE  H11Y11321   1.237   1.352   4.639  2.5561 -0.5689 -2.0122
  109SAPE  C31211322   1.317   1.144   4.667  0.3412 -0.3655  0.0819
  109SAPE  H12X11323   1.362   1.134   4.566 -0.7606 -1.4877 -0.3171
  109SAPE  H12Y11324   1.268   1.047   4.689 -1.9433  1.3069  3.1298
  109SAPE  C31311325   1.414   1.177   4.787 -0.7579  0.0541 -0.7018
  109SAPE  H13X11326   1.355   1.183   4.881 -0.6092 -0.0463 -0.6027
  109SAPE  H13Y11327   1.459   1.276   4.762 -1.0911  0.1777 -0.8144
  109SAPE  C31411328   1.516   1.062   4.815  0.2976  0.2480  0.6900
  109SAPE  H14X11329   1.547   1.011   4.721 -0.9353 -1.6385  1.2560
  109SAPE  H14Y11330   1.461   0.985   4.873  0.7529 -1.5863 -1.1853
  109SAPE  C31511331   1.645   1.108   4.885  0.4323  0.4941  0.2353
  109SAPE  H15X11332   1.611   1.163   4.976 -1.0267 -0.6973  0.4416
  109SAPE  H15Y11333   1.714   1.171   4.825  1.5458  0.0182  0.9718
  109SAPE  C31611334   1.714   0.981   4.935  0.5874 -0.4755  0.2839
  109SAPE  H16X11335   1.659   0.920   5.010 -1.6536 -1.1980 -1.8326
  109SAPE  H16Y11336   1.803   1.016   4.992  0.4547 -0.0987  0.2571
  109SAPE  C31711337   1.760   0.898   4.815 -0.0620  0.7370 -0.4436
  109SAPE  H17X11338   1.817   0.960   4.742  3.7566 -1.7035  0.1582
  109SAPE  H17Y11339   1.666   0.865   4.766 -1.5634  1.4779  1.8008
  109SAPE  C31811340   1.837   0.775   4.863 -0.4410 -0.0969 -0.1104
  109SAPE  H18X11341   1.926   0.793   4.927 -0.7691  2.5205 -0.2883
  109SAPE  H18Y11342   1.867   0.702   4.785 -2.9173 -1.1174 -0.2186
  109SAPE  H18Z11343   1.768   0.721   4.931 -2.3286  3.0524  0.6561
  110SAPE     N11344   6.230   3.411   3.471  0.1787 -0.5501  0.4214
  110SAPE   HN111345   6.234   3.457   3.378 -0.1447 -0.0948  0.6268
  110SAPE   HN211346   6.324   3.374   3.494  0.2754 -0.4184  0.2380
  110SAPE   HN311347   6.162   3.333   3.460  0.0576 -0.4212  0.2595
  110SAPE   C1211348   6.188   3.511   3.573  0.2229  0.6648 -0.2587
  110SAPE  H12A11349   6.184   3.461   3.672  2.5520 -2.3954 -1.5736
  110SAPE  H12B11350   6.085   3.547   3.549  0.0539  0.5954  0.3504
  110SAPE   C1111351   6.284   3.629   3.586 -0.3564 -0.3804  1.0661
  110SAPE  H11A11352   6.386   3.596   3.614 -1.0134 -1.5108  2.2548
  110SAPE  H11B11353   6.251   3.690   3.674 -1.2792  1.6842 -0.6199
  110SAPE     P11354   6.265   3.866   3.471  0.0729  0.2330  0.3606
  110SAPE   O1311355   6.306   3.920   3.336  0.0065  0.4940 -0.0400
  110SAPE   O1411356   6.119   3.891   3.504 -0.6084 -0.1492  0.2389
  110SAPE   O1211357   6.290   3.705   3.471  0.1602 -0.3655 -0.1876
  110SAPE   O1111358   6.366   3.931   3.580  0.6957 -0.1194 -0.3976
  110SAPE    C111359   6.492   3.876   3.618 -0.8851  0.5394  0.3734
  110SAPE    HA11360   6.516   3.783   3.562  2.2574  1.6819 -0.3828
  110SAPE    HB11361   6.574   3.945   3.590  1.5961 -1.7843  1.5410
  110SAPE    C211362   6.503   3.855   3.773  0.5531 -0.3277 -0.2183
  110SAPE    HS11363   6.437   3.768   3.791 -1.5571  1.3850  0.8552
  110SAPE   O2111364   6.460   3.972   3.848 -0.6818  0.3503  0.2517
  110SAPE   C2111365   6.358   3.953   3.935 -0.9819 -0.1473 -0.3285
  110SAPE   O2211366   6.308   3.849   3.967 -0.7157  0.8099  0.0227
  110SAPE   C2211367   6.299   4.088   3.979 -0.4437 -0.0598  0.5362
  110SAPE   H2R11368   6.362   4.169   3.937  0.0290 -0.4520  0.4676
  110SAPE   H2S11369   6.194   4.093   3.944 -0.6110  0.6448  1.1325
  110SAPE    C311370   6.643   3.807   3.815  0.3613 -0.7039 -0.9000
  110SAPE    HX11371   6.670   3.712   3.764 -1.4055 -0.9140 -1.5154
  110SAPE    HY11372   6.712   3.889   3.788 -0.7553  0.5650 -0.0285
  110SAPE   O3111373   6.647   3.795   3.960  0.3063  0.2139  0.2236
  110SAPE   C3111374   6.595   3.677   4.007  0.6451 -0.3863  0.6926
  110SAPE   O3211375   6.557   3.586   3.935 -0.2781 -0.2606 -0.4474
  110SAPE   C3211376   6.602   3.679   4.160 -0.5434  0.2169  0.0140
  110SAPE   H2X11377   6.505   3.707   4.207 -0.7852  1.1228 -0.9982
  110SAPE   H2Y11378   6.682   3.743   4.201 -2.6830  1.5350  2.4054
  110SAPE   C2311379   6.290   4.091   4.133 -0.3002 -0.3337 -0.4455
  110SAPE   H3R11380   6.236   4.005   4.179 -0.8161  0.2436  0.0331
  110SAPE   H3S11381   6.226   4.178   4.157 -0.0205  0.1980 -1.5838
  110SAPE   C2411382   6.424   4.115   4.207 -0.1706  0.2681 -0.3734
  110SAPE   H4R11383   6.477   4.199   4.156 -1.2692  0.2830 -1.5392
  110SAPE   H4S11384   6.487   4.027   4.182 -1.8913 -1.1915  0.2376
  110SAPE   C2511385   6.405   4.141   4.357 -0.6065  0.5537  0.8303
  110SAPE   H5R11386   6.362   4.240   4.375  1.9259  1.5835  1.6630
  110SAPE   C2611387   6.432   4.060   4.463  0.4469  0.3912 -0.7472
  110SAPE   H6R11388   6.403   4.109   4.556  3.2529  1.9737 -0.6323
  110SAPE   C2711389   6.496   3.920   4.456  0.2297  0.9401 -0.6840
  110SAPE   H7R11390   6.579   3.906   4.528  0.3045  1.2947 -0.6964
  110SAPE   H7S11391   6.546   3.898   4.359  2.3029  1.7248  0.1466
  110SAPE   C2811392   6.390   3.820   4.498  0.1532  0.0331  0.6704
  110SAPE   H8R11393   6.338   3.774   4.413  0.6902  1.5342 -0.5267
  110SAPE   C2911394   6.346   3.787   4.620  0.0145 -0.2401 -0.8279
  110SAPE   H9R11395   6.264   3.715   4.638 -1.7036  1.4841 -1.4033
  110SAPE  C21011396   6.386   3.848   4.748  0.6469 -0.5762  0.4119
  110SAPE  H10R11397   6.297   3.887   4.801  1.0947 -0.6591  1.2630
  110SAPE  H10S11398   6.450   3.938   4.737  1.0506 -0.8465  0.5156
  110SAPE  C21111399   6.465   3.750   4.828 -0.2587  0.7851  0.0974
  110SAPE  H11R11400   6.544   3.695   4.775 -1.7961  0.1614 -1.6982
  110SAPE  C21211401   6.439   3.713   4.954  0.4676  0.0956  1.2646
  110SAPE  H12R11402   6.506   3.637   4.998  0.6958  0.5459  1.7110
  110SAPE  C21311403   6.333   3.766   5.049  0.1587 -0.6060  0.2577
  110SAPE  H13R11404   6.288   3.858   5.004 -1.6141 -0.9598  1.2341
  110SAPE  H13S11405   6.386   3.807   5.138 -2.0601  1.2766  0.8078
  110SAPE  C21411406   6.219   3.673   5.089 -0.3624 -0.0656 -0.9229
  110SAPE  H14R11407   6.149   3.636   5.013 -1.1303 -1.7716  0.5181
  110SAPE  C21511408   6.193   3.632   5.213 -0.1337 -0.4227  0.0914
  110SAPE  H15R11409   6.112   3.561   5.238  1.5823 -2.8204 -0.7998
  110SAPE  C21611410   6.262   3.667   5.338 -0.0769  0.5763 -0.3600
  110SAPE  H16R11411   6.201   3.695   5.427 -0.5448  1.9025 -1.0593
  110SAPE  H16S11412   6.335   3.751   5.332  0.5676 -0.0494 -1.3670
  110SAPE  C21711413   6.340   3.542   5.383 -1.5345  0.5367 -0.2733
  110SAPE  H17R11414   6.270   3.460   5.412 -0.1860 -0.8104 -0.7110
  110SAPE  H17S11415   6.395   3.574   5.475 -0.4237  0.2314 -0.8146
  110SAPE  C21811416   6.452   3.489   5.281  0.5688  0.9165 -0.1279
  110SAPE  H18R11417   6.472   3.568   5.205 -0.6725  1.1780 -0.2064
  110SAPE  H18S11418   6.402   3.406   5.226  0.5610  1.2714 -0.6675
  110SAPE  C21911419   6.582   3.443   5.350 -0.5964 -0.2499  0.2843
  110SAPE  H19R11420   6.628   3.531   5.400  0.3492 -1.7987  2.3002
  110SAPE  H19S11421   6.659   3.401   5.283 -1.4867 -2.3176  0.4529
  110SAPE  C22011422   6.574   3.339   5.467  0.6489 -0.0844 -0.7382
  110SAPE  H20R11423   6.508   3.393   5.538  1.6320  0.4553 -0.2202
  110SAPE  H20S11424   6.668   3.320   5.523  0.4184  0.9006  0.0072
  110SAPE  H20T11425   6.527   3.244   5.433  3.5795 -1.3840 -1.5200
  110SAPE   C3311426   6.629   3.530   4.202 -0.9128  0.6110  0.5665
  110SAPE   H3X11427   6.730   3.495   4.173 -0.8738  2.2411 -1.5419
  110SAPE   H3Y11428   6.561   3.465   4.143 -0.6454 -0.3283  1.2743
  110SAPE   C3411429   6.623   3.516   4.355 -0.2871  0.5309 -1.6026
  110SAPE   H4X11430   6.621   3.409   4.385  0.4211  1.0776  0.6468
  110SAPE   H4Y11431   6.525   3.551   4.394 -0.0248  0.1842 -0.5957
  110SAPE   C3511432   6.742   3.591   4.426 -0.5856  0.7161 -0.5797
  110SAPE   H5X11433   6.742   3.701   4.413  0.5222  1.0937  1.9268
  110SAPE   H5Y11434   6.839   3.552   4.390 -1.8919  0.4580 -4.1709
  110SAPE   C3611435   6.733   3.581   4.581 -0.5713  0.1314  0.0750
  110SAPE   H6X11436   6.627   3.570   4.611 -0.8524 -3.5845 -1.6838
  110SAPE   H6Y11437   6.766   3.674   4.631  0.7434 -1.5691  2.6128
  110SAPE   C3711438   6.794   3.454   4.654 -0.5352 -0.1484 -0.2615
  110SAPE   H7X11439   6.905   3.447   4.642 -0.4665 -2.1094  1.1274
  110SAPE   H7Y11440   6.745   3.367   4.605 -0.6812  0.6005 -1.4829
  110SAPE   C3811441   6.756   3.460   4.803 -0.6924  0.4366  0.1808
  110SAPE   H8X11442   6.648   3.479   4.818 -0.9062 -0.4653 -0.1189
  110SAPE   H8Y11443   6.808   3.545   4.853  1.6910 -2.1867  2.5699
  110SAPE   C3911444   6.795   3.336   4.874 -1.1297  0.0090  0.3441
  110SAPE   H9X11445   6.904   3.329   4.897 -0.7756  0.5030 -1.0555
  110SAPE   H9Y11446   6.769   3.245   4.815 -2.2436  0.1388  0.6135
  110SAPE  C31011447   6.733   3.311   5.013 -0.1131 -0.4826 -0.4535
  110SAPE  H10X11448   6.623   3.326   5.003  0.1751  1.3349 -1.3692
  110SAPE  H10Y11449   6.782   3.378   5.087  2.5247 -0.3953 -2.1427
  110SAPE  C31111450   6.758   3.169   5.056 -0.2633  0.5269 -0.8572
  110SAPE  H11X11451   6.864   3.141   5.038  0.2539  2.2812 -0.7622
  110SAPE  H11Y11452   6.702   3.098   4.993 -0.9368  0.8894 -0.6803
  110SAPE  C31211453   6.718   3.133   5.197  0.0555  0.2085 -0.7155
  110SAPE  H12X11454   6.607   3.127   5.195 -0.1916  2.7153  1.0068
  110SAPE  H12Y11455   6.741   3.214   5.270 -0.3998 -0.7225  0.5160
  110SAPE  C31311456   6.763   3.000   5.265  0.6576 -0.2792  0.4381
  110SAPE  H13X11457   6.751   2.916   5.194  0.0223 -0.4429  0.7288
  110SAPE  H13Y11458   6.683   2.988   5.342  0.9615  2.7591  1.3589
  110SAPE  C31411459   6.907   3.002   5.323  0.0674 -0.2753 -0.1143
  110SAPE  H14X11460   6.911   3.088   5.392 -1.8457  0.4162 -0.7832
  110SAPE  H14Y11461   6.984   3.018   5.244  0.0683 -0.6791 -0.2008
  110SAPE  C31511462   6.949   2.866   5.394  0.2730  0.0346  0.0834
  110SAPE  H15X11463   7.057   2.842   5.378  0.5342  0.1935  1.4920
  110SAPE  H15Y11464   6.888   2.784   5.351  0.2168  0.3878 -0.5198
  110SAPE  C31611465   6.915   2.862   5.547  0.2245 -1.0338 -0.3795
  110SAPE  H16X11466   6.805   2.845   5.544 -0.0217  0.5742 -1.8647
  110SAPE  H16Y11467   6.928   2.964   5.588  1.7438 -1.0127 -0.8546
  110SAPE  C31711468   6.988   2.758   5.629 -0.3428 -0.1302  0.5997
  110SAPE  H17X11469   7.096   2.784   5.632 -0.4248  0.0742  2.3150
  110SAPE  H17Y11470   6.972   2.657   5.586  1.0217 -1.1664  2.4172
  110SAPE  C31811471   6.940   2.756   5.777  0.7097  0.1780  0.9903
  110SAPE  H18X11472   6.830   2.738   5.772  0.9408 -1.2700 -3.0909
  110SAPE  H18Y11473   6.958   2.843   5.844  2.6326  0.8315 -0.2817
  110SAPE  H18Z11474   6.986   2.668   5.826 -0.6233 -0.4954  1.0893
  111SAPE     N11475   3.578   4.426   3.929  0.4601 -0.4345  0.1871
  111SAPE   HN111476   3.597   4.499   4.001  0.2841  2.6652 -2.6713
  111SAPE   HN211477   3.633   4.339   3.946 -0.2297 -1.1174 -0.9451
  111SAPE   HN311478   3.619   4.453   3.838 -0.7541  0.4161 -0.1435
  111SAPE   C1211479   3.434   4.396   3.906  0.1806 -0.0248 -0.5103
  111SAPE  H12A11480   3.392   4.485   3.855 -0.7168 -0.8054 -1.1808
  111SAPE  H12B11481   3.375   4.376   3.998 -0.8758  1.7361 -0.7628
  111SAPE   C1111482   3.435   4.268   3.816 -0.2629 -0.8079 -0.7100
  111SAPE  H11A11483   3.441   4.292   3.708  1.6991 -1.8479 -0.8760
  111SAPE  H11B11484   3.331   4.230   3.805 -2.0977  3.2674  0.5726
  111SAPE     P11485   3.487   4.020   3.880  0.0142  0.2409 -0.6369
  111SAPE   O1311486   3.375   3.987   3.789  0.0250  0.2345  0.0962
  111SAPE   O1411487   3.606   3.931   3.865  0.6162  0.9062  0.2326
  111SAPE   O1211488   3.532   4.168   3.852  0.0747  0.4051  0.0454
  111SAPE   O1111489   3.440   4.026   4.024 -0.0537  0.3533 -0.3708
  111SAPE    C111490   3.480   3.944   4.130 -0.3758 -0.0589 -0.1475
  111SAPE    HA11491   3.382   3.916   4.175 -0.6996 -1.2932 -1.5229
  111SAPE    HB11492   3.518   3.845   4.098 -2.0640 -0.6384 -0.4400
  111SAPE    C211493   3.576   4.017   4.230 -0.0887 -0.8467 -0.1262
  111SAPE    HS11494   3.677   4.016   4.184 -0.5797  2.7358 -1.5827
  111SAPE   O2111495   3.581   3.947   4.353  0.0211 -0.3282 -0.1370
  111SAPE   C2111496   3.649   3.833   4.352 -0.1552  0.3175  0.4210
  111SAPE   O2211497   3.709   3.791   4.253  0.0573  0.9026 -0.3065
  111SAPE   C2211498   3.659   3.770   4.488  1.1787 -0.5741  0.1282
  111SAPE   H2R11499   3.736   3.690   4.496  1.9921  0.3562  2.9015
  111SAPE   H2S11500   3.677   3.852   4.560 -1.8741 -0.7184  1.2168
  111SAPE    C311501   3.537   4.170   4.245  0.4617  0.3435 -0.2878
  111SAPE    HX11502   3.430   4.166   4.215 -0.1259 -3.1705  1.6980
  111SAPE    HY11503   3.579   4.235   4.165 -0.1063  0.7079 -0.2909
  111SAPE   O3111504   3.580   4.224   4.373  0.1345 -0.5540  0.1264
  111SAPE   C3111505   3.484   4.222   4.464 -0.7779  0.2132 -0.5007
  111SAPE   O3211506   3.381   4.163   4.443  0.1327  0.0839 -0.4730
  111SAPE   C3211507   3.510   4.314   4.576 -0.3792 -1.0934 -0.3506
  111SAPE   H2X11508   3.473   4.412   4.539  1.6882 -0.6156 -1.3132
  111SAPE   H2Y11509   3.617   4.321   4.604 -0.1363 -3.1805 -0.5422
  111SAPE   C2311510   3.517   3.710   4.526 -0.3864  0.4414 -0.0559
  111SAPE   H3R11511   3.519   3.620   4.461  1.6549 -0.0108  0.5478
  111SAPE   H3S11512   3.442   3.787   4.498 -1.9153 -1.1805 -0.6205
  111SAPE   C2411513   3.496   3.677   4.675  0.0298 -0.1913 -0.3884
  111SAPE   H4R11514   3.488   3.776   4.724  1.4419 -0.7815  1.1196
  111SAPE   H4S11515   3.588   3.635   4.719  2.3764  3.8250 -0.9458
  111SAPE   C2511516   3.372   3.588   4.701 -0.6459 -0.2531 -0.0259
  111SAPE   H5R11517   3.311   3.563   4.614 -2.4156  1.6847  0.5785
  111SAPE   C2611518   3.321   3.559   4.828 -0.4990 -0.7344  0.6875
  111SAPE   H6R11519   3.228   3.500   4.826 -0.8844 -0.3524 -3.9588
  111SAPE   C2711520   3.377   3.596   4.961 -0.4438 -0.3334  0.2575
  111SAPE   H7R11521   3.322   3.676   5.016 -1.6140 -0.4826 -0.6612
  111SAPE   H7S11522   3.475   3.644   4.937  0.0085 -1.3552  0.0066
  111SAPE   C2811523   3.408   3.472   5.039  0.5279  0.2131  0.2794
  111SAPE   H8R11524   3.490   3.415   4.995 -1.4420 -0.9237 -2.1862
  111SAPE   C2911525   3.348   3.434   5.153 -0.3356 -0.4233 -0.0011
  111SAPE   H9R11526   3.389   3.347   5.205 -0.1583 -1.4889 -1.8709
  111SAPE  C21011527   3.224   3.493   5.223  0.0266  0.6098  0.7439
  111SAPE  H10R11528   3.163   3.415   5.273 -2.6727  3.1137  1.6416
  111SAPE  H10S11529   3.156   3.526   5.142 -2.4881 -3.0412  1.1119
  111SAPE  C21111530   3.264   3.596   5.326  0.1124 -0.3803 -0.6013
  111SAPE  H11R11531   3.320   3.686   5.295  0.0443 -0.2547 -0.3557
  111SAPE  C21211532   3.222   3.592   5.455  0.4317 -0.8983  0.0288
  111SAPE  H12R11533   3.254   3.667   5.529 -0.7457 -1.3678  1.0685
  111SAPE  C21311534   3.137   3.487   5.518  0.6936 -0.1532 -0.0369
  111SAPE  H13R11535   3.162   3.502   5.625  3.4260  0.7859 -0.7278
  111SAPE  H13S11536   3.169   3.384   5.493  1.9012  0.5892 -1.8391
  111SAPE  C21411537   2.990   3.517   5.508 -0.1065  0.0796 -0.1377
  111SAPE  H14R11538   2.958   3.611   5.461 -2.4023  0.5767  2.2310
  111SAPE  C21511539   2.888   3.437   5.542 -0.0703 -0.7229  0.2414
  111SAPE  H15R11540   2.786   3.476   5.534  0.7582  1.4409 -0.3048
  111SAPE  C21611541   2.905   3.300   5.602  0.7820  0.0263 -0.1965
  111SAPE  H16R11542   2.970   3.244   5.532 -0.8468 -1.0945 -0.8761
  111SAPE  H16S11543   2.808   3.246   5.608  0.2809  0.9023 -0.2009
  111SAPE  C21711544   2.948   3.298   5.751 -0.5281 -0.3012 -0.0556
  111SAPE  H17R11545   2.879   3.364   5.810  1.0007  1.5667 -0.2732
  111SAPE  H17S11546   3.036   3.363   5.770 -0.5369 -0.2359 -0.2355
  111SAPE  C21811547   2.968   3.159   5.812 -0.0976  0.2822 -0.4408
  111SAPE  H18R11548   2.873   3.102   5.818  0.0363  0.0315 -0.6797
  111SAPE  H18S11549   2.995   3.179   5.918 -1.0634  1.2308 -0.3599
  111SAPE  C21911550   3.079   3.074   5.751  0.0658  0.2572  0.1072
  111SAPE  H19R11551   3.143   3.032   5.831  1.1327  1.2695 -0.1881
  111SAPE  H19S11552   3.140   3.138   5.683 -0.1279 -0.0234 -0.3371
  111SAPE  C22011553   3.029   2.950   5.666 -0.1865 -0.2270 -1.0320
  111SAPE  H20R11554   3.120   2.907   5.620 -0.0504 -0.5031 -0.5174
  111SAPE  H20S11555   2.962   2.986   5.585 -0.2117  1.2100 -0.4007
  111SAPE  H20T11556   2.979   2.875   5.732  0.1354  1.1831  0.8850
  111SAPE   C3311557   3.433   4.267   4.704 -0.7205  0.1963 -0.1758
  111SAPE   H3X11558   3.466   4.168   4.741  0.7299  0.7478  0.0688
  111SAPE   H3Y11559   3.327   4.256   4.676 -0.9571 -1.3274  1.1915
  111SAPE   C3411560   3.434   4.368   4.821  0.6769 -0.0125  0.2702
  111SAPE   H4X11561   3.347   4.357   4.889  0.6267 -0.7537  0.0861
  111SAPE   H4Y11562   3.417   4.473   4.787 -1.2418 -0.3565  0.0719
  111SAPE   C3511563   3.557   4.358   4.909  0.3795 -0.8041 -0.0639
  111SAPE   H5X11564   3.646   4.412   4.868  0.1295  0.7791  1.3710
  111SAPE   H5Y11565   3.583   4.253   4.935 -0.1986 -0.7393  0.8069
  111SAPE   C3611566   3.523   4.434   5.039  0.2702 -0.6345  0.0732
  111SAPE   H6X11567   3.433   4.383   5.080 -1.2351 -0.3712 -2.6342
  111SAPE   H6Y11568   3.485   4.534   5.008 -0.4815 -1.4699 -1.8715
  111SAPE   C3711569   3.638   4.424   5.139 -1.0422  0.2247  0.3946
  111SAPE   H7X11570   3.719   4.496   5.112 -1.8691  1.8222  1.9267
  111SAPE   H7Y11571   3.689   4.326   5.152 -0.2157  0.6437  0.3794
  111SAPE   C3811572   3.579   4.455   5.284 -0.2091 -0.5865 -0.3890
  111SAPE   H8X11573   3.492   4.387   5.296 -1.3998  0.3774 -2.9274
  111SAPE   H8Y11574   3.547   4.561   5.288  0.4796 -0.2971 -1.9004
  111SAPE   C3911575   3.681   4.436   5.396  0.1157 -0.2310 -0.5916
  111SAPE   H9X11576   3.786   4.445   5.363 -0.5709  0.5214 -2.7334
  111SAPE   H9Y11577   3.673   4.332   5.434 -0.9088 -0.4145 -1.2699
  111SAPE  C31011578   3.659   4.526   5.519  0.1351  0.0112 -0.1293
  111SAPE  H10X11579   3.673   4.632   5.488 -0.9318  1.0908  2.7507
  111SAPE  H10Y11580   3.725   4.488   5.600  0.0665 -0.9453 -0.5188
  111SAPE  C31111581   3.521   4.519   5.589  0.7969  0.1257 -0.2175
  111SAPE  H11X11582   3.483   4.420   5.621  0.5163 -0.3239 -1.8365
  111SAPE  H11Y11583   3.449   4.556   5.513  1.2023  1.2434 -0.0734
  111SAPE  C31211584   3.519   4.628   5.699 -0.3057 -0.0111  0.4653
  111SAPE  H12X11585   3.565   4.722   5.661 -1.8107 -0.2951 -2.3261
  111SAPE  H12Y11586   3.589   4.604   5.782  2.4927  1.2744 -1.3487
  111SAPE  C31311587   3.374   4.666   5.745 -0.1852 -0.0071 -0.1531
  111SAPE  H13X11588   3.316   4.578   5.781 -0.2273  0.4187  0.8737
  111SAPE  H13Y11589   3.323   4.700   5.652 -0.3757  0.2969  0.0564
  111SAPE  C31411590   3.373   4.785   5.851  0.5075  0.2404  0.5208
  111SAPE  H14X11591   3.268   4.820   5.857 -0.0040 -0.7168 -1.6233
  111SAPE  H14Y11592   3.437   4.857   5.794  0.4786 -0.0525  0.1087
  111SAPE  C31511593   3.431   4.746   5.984  0.1380 -0.5430  0.5482
  111SAPE  H15X11594   3.452   4.637   5.985  1.0554 -0.3729  1.4429
  111SAPE  H15Y11595   3.360   4.776   6.064  1.3936 -0.2759  1.5897
  111SAPE  C31611596   3.559   4.819   6.016  0.8386 -0.2867  0.6502
  111SAPE  H16X11597   3.530   4.925   6.027  0.1934 -0.7195  4.0785
  111SAPE  H16Y11598   3.629   4.810   5.930 -2.1847 -1.4513 -1.8556
  111SAPE  C31711599   3.634   4.775   6.141 -0.7866  0.5224  0.5906
  111SAPE  H17X11600   3.726   4.837   6.138  0.3235 -1.0156  1.3669
  111SAPE  H17Y11601   3.662   4.669   6.123 -1.1562  0.0385  2.6695
  111SAPE  C31811602   3.568   4.771   6.275 -0.0158 -1.0973  0.6672
  111SAPE  H18X11603   3.637   4.739   6.356  0.2403 -1.3404  0.3559
  111SAPE  H18Y11604   3.471   4.717   6.271 -0.4597 -0.3056  0.5029
  111SAPE  H18Z11605   3.527   4.874   6.288  0.3970 -0.8700  0.2159
  112SAPE     N11606   2.147   3.233   3.662  0.3399 -0.2926  0.2014
  112SAPE   HN111607   2.243   3.232   3.622  0.5897  1.3076  0.6959
  112SAPE   HN211608   2.085   3.229   3.579 -0.3077 -0.6897  0.6891
  112SAPE   HN311609   2.130   3.322   3.714  0.0553 -0.1542 -0.1234
  112SAPE   C1211610   2.115   3.116   3.744 -0.1412 -0.4770 -0.6982
  112SAPE  H12A11611   2.011   3.115   3.783 -0.1698  3.8493 -0.2184
  112SAPE  H12B11612   2.185   3.123   3.831 -1.8694 -0.0706  0.7277
  112SAPE   C1111613   2.147   2.985   3.664 -0.5742  0.1203  0.5019
  112SAPE  H11A11614   2.070   2.977   3.584 -2.0672  1.3296  1.7646
  112SAPE  H11B11615   2.141   2.899   3.733  0.9096  0.2285  0.8016
  112SAPE     P11616   2.316   2.985   3.463  0.0478  0.2517 -0.0846
  112SAPE   O1311617   2.259   3.111   3.405 -0.1806 -0.3282  0.5802
  112SAPE   O1411618   2.463   2.956   3.449  0.8579  0.3470 -0.9098
  112SAPE   O1211619   2.282   2.986   3.617  0.0891  0.2556  0.4966
  112SAPE   O1111620   2.230   2.874   3.410 -0.2804  0.2296 -0.1277
  112SAPE    C111621   2.273   2.736   3.417  0.3019 -0.2172  0.2634
  112SAPE    HA11622   2.325   2.703   3.325 -0.8702  0.0567 -0.5144
  112SAPE    HB11623   2.351   2.711   3.492  0.2491 -0.5545  0.2057
  112SAPE    C211624   2.159   2.630   3.438 -0.4202  0.7741 -0.0687
  112SAPE    HS11625   2.093   2.629   3.349 -1.9232 -1.1777  0.9898
  112SAPE   O2111626   2.099   2.665   3.560 -0.0089 -0.3854 -0.0824
  112SAPE   C2111627   1.968   2.673   3.562 -0.2348 -0.2838  0.0970
  112SAPE   O2211628   1.902   2.641   3.468  0.4685 -0.3024  0.6637
  112SAPE   C2211629   1.920   2.718   3.701 -0.3024 -0.3772  0.3314
  112SAPE   H2R11630   1.917   2.829   3.698 -1.1110 -0.3341  1.6998
  112SAPE   H2S11631   1.811   2.697   3.705 -0.3709 -0.7625 -1.9890
  112SAPE    C311632   2.214   2.493   3.458 -0.2383  0.0554  0.0301
  112SAPE    HX11633   2.278   2.483   3.368 -0.2668 -0.5010  0.0710
  112SAPE    HY11634   2.125   2.427   3.447  0.1968 -0.9860  2.1773
  112SAPE   O3111635   2.289   2.466   3.581  0.1917  0.1634  0.3565
  112SAPE   C3111636   2.221   2.400   3.672 -0.1024 -0.0291 -0.0734
  112SAPE   O3211637   2.102   2.376   3.676  0.2032 -0.3155  0.2519
  112SAPE   C3211638   2.324   2.354   3.773  0.1757  0.4389  0.4526
  112SAPE   H2X11639   2.363   2.440   3.830  1.2092  0.0272  0.3875
  112SAPE   H2Y11640   2.409   2.307   3.718 -0.1388  1.1005 -0.6308
  112SAPE   C2311641   1.990   2.662   3.821 -0.1330  0.1451  0.3287
  112SAPE   H3R11642   2.099   2.642   3.813  0.3807  2.0144  1.8690
  112SAPE   H3S11643   1.948   2.560   3.832 -2.4169  0.9266 -0.5852
  112SAPE   C2411644   1.971   2.732   3.952  0.6729  0.0960 -0.4129
  112SAPE   H4R11645   2.033   2.825   3.949  0.0115  0.5709  0.2386
  112SAPE   H4S11646   2.019   2.675   4.034 -1.6700 -0.5765  0.5713
  112SAPE   C2511647   1.830   2.771   3.988  0.0036  0.9858 -0.4923
  112SAPE   H5R11648   1.769   2.827   3.915  1.6512 -0.0988 -2.8629
  112SAPE   C2611649   1.762   2.717   4.102  0.3938 -0.7474  0.4811
  112SAPE   H6R11650   1.659   2.753   4.120  1.2148  2.7014 -0.9520
  112SAPE   C2711651   1.818   2.622   4.200 -0.6919  0.4441  0.3932
  112SAPE   H7R11652   1.903   2.559   4.168 -1.6847 -2.0370  2.2992
  112SAPE   H7S11653   1.740   2.552   4.238 -1.7328  1.7426  0.7248
  112SAPE   C2811654   1.869   2.698   4.317  1.2312 -0.3987  0.2129
  112SAPE   H8R11655   1.941   2.778   4.299  0.8297 -0.2083 -0.5749
  112SAPE   C2911656   1.814   2.688   4.439 -0.1086  0.8224  0.2025
  112SAPE   H9R11657   1.846   2.759   4.517  0.5323 -1.5693  2.2960
  112SAPE  C21011658   1.686   2.610   4.472  0.3923  0.0942  0.7114
  112SAPE  H10R11659   1.614   2.606   4.388 -0.6419  0.2758  1.5674
  112SAPE  H10S11660   1.635   2.652   4.561 -0.6166  0.9980 -0.2587
  112SAPE  C21111661   1.733   2.470   4.510  0.6678  0.6036  0.2589
  112SAPE  H11R11662   1.810   2.431   4.441  0.6297  1.4627 -0.2822
  112SAPE  C21211663   1.705   2.397   4.615 -0.4178 -0.6420  0.3146
  112SAPE  H12R11664   1.748   2.299   4.636 -1.5760 -1.0657  0.8136
  112SAPE  C21311665   1.603   2.428   4.725  0.2008  0.6206  0.4919
  112SAPE  H13R11666   1.541   2.338   4.746 -0.9404  1.3998  0.5600
  112SAPE  H13S11667   1.524   2.501   4.698 -1.1687 -0.2356  1.9517
  112SAPE  C21411668   1.687   2.481   4.846 -0.4085 -0.0691 -0.0181
  112SAPE  H14R11669   1.749   2.569   4.824 -0.6438  0.5401  1.6249
  112SAPE  C21511670   1.678   2.441   4.979  0.6358  0.3794  0.7339
  112SAPE  H15R11671   1.737   2.492   5.057  0.6491  0.1908  0.8488
  112SAPE  C21611672   1.587   2.333   5.036 -0.6233  0.5559  0.4121
  112SAPE  H16R11673   1.655   2.253   5.070 -0.4331 -0.0319 -1.2397
  112SAPE  H16S11674   1.530   2.279   4.957  3.4072 -1.4176 -1.4727
  112SAPE  C21711675   1.492   2.376   5.144 -0.0157  0.2373 -0.4654
  112SAPE  H17R11676   1.442   2.472   5.117 -2.3043 -0.7596  0.0222
  112SAPE  H17S11677   1.553   2.413   5.229 -0.3614  1.2278 -0.6261
  112SAPE  C21811678   1.389   2.264   5.177  0.8836  0.2747 -0.5814
  112SAPE  H18R11679   1.438   2.167   5.198  0.7131  0.0979 -0.9864
  112SAPE  H18S11680   1.330   2.251   5.083  1.6780  0.7164 -1.1574
  112SAPE  C21911681   1.286   2.292   5.295  0.3713 -0.0149  0.4769
  112SAPE  H19R11682   1.351   2.299   5.385  1.3818  1.7894 -0.3385
  112SAPE  H19S11683   1.216   2.206   5.305 -1.0216  0.9545 -0.5906
  112SAPE  C22011684   1.206   2.419   5.284  0.4187  0.0118 -0.4195
  112SAPE  H20R11685   1.156   2.427   5.383  2.1977 -0.5223  0.5717
  112SAPE  H20S11686   1.133   2.419   5.201  0.2433  2.4325 -0.3232
  112SAPE  H20T11687   1.274   2.506   5.271  1.6464 -0.8684 -0.1007
  112SAPE   C3311688   2.265   2.261   3.878 -0.4537 -0.6641 -0.2974
  112SAPE   H3X11689   2.346   2.193   3.912 -0.6471 -0.4186  0.7000
  112SAPE   H3Y11690   2.185   2.195   3.841  1.5694 -2.0966 -2.3352
  112SAPE   C3411691   2.203   2.337   4.000  1.0237  0.1138 -0.1381
  112SAPE   H4X11692   2.103   2.369   3.963 -0.3938 -1.0590  2.4481
  112SAPE   H4Y11693   2.259   2.429   4.028 -0.3030  0.6130  1.0048
  112SAPE   C3511694   2.203   2.252   4.129  0.6761  0.0089  0.1295
  112SAPE   H5X11695   2.298   2.198   4.144  1.0131  0.9541  1.7362
  112SAPE   H5Y11696   2.118   2.180   4.132  0.2042  0.4741 -1.1063
  112SAPE   C3611697   2.177   2.347   4.253 -0.8803 -0.3896  0.3898
  112SAPE   H6X11698   2.081   2.395   4.223 -0.3956  0.3009 -0.1033
  112SAPE   H6Y11699   2.249   2.431   4.256 -2.5403  1.1881 -1.4176
  112SAPE   C3711700   2.176   2.273   4.385  0.6204  0.3292  0.7280
  112SAPE   H7X11701   2.263   2.205   4.401  2.7961  2.4093 -1.3534
  112SAPE   H7Y11702   2.075   2.226   4.389  0.5228  0.5303  0.6254
  112SAPE   C3811703   2.211   2.362   4.506 -0.3600 -0.3538  0.2797
  112SAPE   H8X11704   2.307   2.415   4.487 -0.8420  0.8259  1.0728
  112SAPE   H8Y11705   2.228   2.304   4.600 -0.0547  1.2415  1.2469
  112SAPE   C3911706   2.100   2.460   4.540 -0.2277  0.3519  0.0189
  112SAPE   H9X11707   2.024   2.402   4.596 -0.2435 -0.2235 -0.5943
  112SAPE   H9Y11708   2.072   2.511   4.446  2.9058 -1.3596 -2.0094
  112SAPE  C31011709   2.157   2.568   4.638 -0.6903  0.6800 -0.9832
  112SAPE  H10X11710   2.116   2.670   4.621  1.2398  1.6857  0.0364
  112SAPE  H10Y11711   2.265   2.584   4.617 -0.0214 -1.7598  0.2122
  112SAPE  C31111712   2.151   2.533   4.786  0.8171 -0.3162  0.5267
  112SAPE  H11X11713   2.198   2.434   4.804  1.6747  0.2098  1.2272
  112SAPE  H11Y11714   2.043   2.522   4.808  0.2460 -0.0199 -1.8263
  112SAPE  C31211715   2.208   2.651   4.868 -0.3530  0.4512 -0.0593
  112SAPE  H12X11716   2.140   2.737   4.849 -0.6054  0.8794  2.4265
  112SAPE  H12Y11717   2.306   2.682   4.826  0.4799 -1.5703  0.3128
  112SAPE  C31311718   2.208   2.621   5.021  0.0134  0.1590 -0.0925
  112SAPE  H13X11719   2.237   2.715   5.071 -0.7008  0.3184  0.0309
  112SAPE  H13Y11720   2.289   2.554   5.056 -1.2909 -0.1001  2.6611
  112SAPE  C31411721   2.080   2.553   5.076 -0.2209  0.2715  0.1085
  112SAPE  H14X11722   2.097   2.443   5.068  1.3167  0.4896 -0.0004
  112SAPE  H14Y11723   1.988   2.591   5.027  0.7926  1.2742 -1.0912
  112SAPE  C31511724   2.074   2.566   5.234  0.4884 -0.3488 -0.7603
  112SAPE  H15X11725   2.132   2.659   5.252 -1.7709  0.9540  0.3331
  112SAPE  H15Y11726   2.104   2.466   5.273  0.3211 -0.0824  0.0787
  112SAPE  C31611727   1.937   2.597   5.284 -1.3554  0.4760  0.4538
  112SAPE  H16X11728   1.876   2.514   5.242 -0.5071 -0.5166  1.1461
  112SAPE  H16Y11729   1.887   2.688   5.244  0.1062  1.4022  0.6605
  112SAPE  C31711730   1.930   2.572   5.439 -0.2923 -0.5860  1.7373
  112SAPE  H17X11731   1.948   2.466   5.465 -1.5837 -1.0236  0.9262
  112SAPE  H17Y11732   1.827   2.596   5.471  0.4319  2.5002  2.1158
  112SAPE  C31811733   2.025   2.664   5.518  0.5036  0.4916  0.4084
  112SAPE  H18X11734   2.126   2.626   5.489 -0.5015 -2.8654  0.7874
  112SAPE  H18Y11735   2.020   2.649   5.628  2.1408 -0.2673  0.4156
  112SAPE  H18Z11736   2.002   2.769   5.491  0.0648  0.3896  0.3852
  113SAPE     N11737   4.348   2.620   3.289 -0.2178  0.0897 -0.4968
  113SAPE   HN111738   4.262   2.638   3.232 -1.3221 -0.1524  1.0348
  113SAPE   HN211739   4.417   2.586   3.219  0.5478 -1.5029  0.9467
  113SAPE   HN311740   4.326   2.539   3.350 -0.7321  0.2095 -0.5199
  113SAPE   C1211741   4.408   2.735   3.371 -1.0832  0.0202  0.5899
  113SAPE  H12A11742   4.326   2.787   3.426  0.7228  2.0133  1.4956
  113SAPE  H12B11743   4.449   2.812   3.303  1.8915  0.1845  2.4232
  113SAPE   C1111744   4.524   2.688   3.457 -0.2996 -0.9656  0.3266
  113SAPE  H11A11745   4.480   2.611   3.523  0.2228 -1.5939 -0.0373
  113SAPE  H11B11746   4.556   2.780   3.510 -1.3827  0.8602 -1.9911
  113SAPE     P11747   4.755   2.575   3.428  0.3147  0.0569 -0.2137
  113SAPE   O1311748   4.750   2.426   3.394 -0.3614 -0.0240 -0.3696
  113SAPE   O1411749   4.881   2.645   3.390 -1.0714  0.7608 -0.0870
  113SAPE   O1211750   4.629   2.638   3.371  0.2992  0.2397  0.9163
  113SAPE   O1111751   4.740   2.600   3.584 -0.2611 -0.5946  0.2456
  113SAPE    C111752   4.696   2.502   3.683 -0.0844  0.3499 -0.1799
  113SAPE    HA11753   4.589   2.476   3.671 -0.3332  1.1760  0.1395
  113SAPE    HB11754   4.765   2.416   3.676 -0.4308  0.0617 -0.0794
  113SAPE    C211755   4.718   2.549   3.828 -0.4326 -0.5918 -0.6833
  113SAPE    HS11756   4.731   2.459   3.891 -0.8217 -0.0652  0.1641
  113SAPE   O2111757   4.601   2.632   3.860  0.0888  0.6425  0.0842
  113SAPE   C2111758   4.515   2.578   3.946  0.7859 -0.4609  0.2952
  113SAPE   O2211759   4.536   2.472   4.002 -0.0544  0.1056  0.0427
  113SAPE   C2211760   4.395   2.667   3.963 -0.0241  0.1790  0.4301
  113SAPE   H2R11761   4.437   2.770   3.968  0.3535  0.0543 -0.0671
  113SAPE   H2S11762   4.335   2.666   3.869  0.1237  1.4192  0.3015
  113SAPE    C311763   4.852   2.619   3.845  0.3328  0.3680 -0.0121
  113SAPE    HX11764   4.857   2.702   3.772 -1.5106  1.4304  1.0045
  113SAPE    HY11765   4.935   2.547   3.827  0.8766  1.2911 -1.3513
  113SAPE   O3111766   4.864   2.667   3.978 -0.0459 -0.1484 -0.1704
  113SAPE   C3111767   4.923   2.786   3.991  0.5131  0.0351 -0.1414
  113SAPE   O3211768   4.983   2.841   3.906  0.1007  0.6141  0.3173
  113SAPE   C3211769   4.884   2.852   4.131 -0.4310  0.1052 -0.3451
  113SAPE   H2X11770   4.877   2.762   4.196  1.1432 -0.6764 -1.2060
  113SAPE   H2Y11771   4.784   2.897   4.115 -1.8273 -2.5180  0.5730
  113SAPE   C2311772   4.298   2.644   4.080 -0.4318  0.4712 -0.2240
  113SAPE   H3R11773   4.248   2.546   4.064  0.4836 -0.1156  0.4313
  113SAPE   H3S11774   4.224   2.726   4.083  1.3527  2.1953 -1.0900
  113SAPE   C2411775   4.362   2.641   4.225  0.6156 -0.0801  0.8627
  113SAPE   H4R11776   4.440   2.720   4.230  0.7450 -0.1954  0.6910
  113SAPE   H4S11777   4.426   2.550   4.230  0.3971 -0.3678 -0.8223
  113SAPE   C2511778   4.275   2.664   4.345  0.0257  0.3723  0.4381
  113SAPE   H5R11779   4.171   2.696   4.324 -0.8459 -1.3065  1.8693
  113SAPE   C2611780   4.309   2.659   4.476  0.2354  0.1021  0.6999
  113SAPE   H6R11781   4.233   2.673   4.555 -1.6593 -2.5421 -0.4944
  113SAPE   C2711782   4.449   2.624   4.527  0.4197  0.7901  0.3182
  113SAPE   H7R11783   4.476   2.714   4.587  0.7741 -0.0071  1.3849
  113SAPE   H7S11784   4.525   2.632   4.447  0.1027  0.6318 -0.0014
  113SAPE   C2811785   4.456   2.501   4.616 -0.1974  0.1546  0.3036
  113SAPE   H8R11786   4.376   2.427   4.601  0.7497 -0.6322 -1.2449
  113SAPE   C2911787   4.555   2.486   4.710  0.7412 -0.3420  0.3562
  113SAPE   H9R11788   4.547   2.397   4.774  1.6768 -0.6542  0.0481
  113SAPE  C21011789   4.672   2.576   4.730  0.2126  0.3068 -0.9965
  113SAPE  H10R11790   4.695   2.620   4.631 -0.6345 -1.2463 -1.9173
  113SAPE  H10S11791   4.759   2.514   4.762 -0.7011  0.2139  1.5370
  113SAPE  C21111792   4.639   2.685   4.829 -0.5346  0.2156  0.5976
  113SAPE  H11R11793   4.596   2.777   4.787  0.7872  0.9295  0.7307
  113SAPE  C21211794   4.634   2.678   4.962  0.2505 -0.0637  0.4094
  113SAPE  H12R11795   4.594   2.768   5.010 -1.2522 -0.3602 -0.2158
  113SAPE  C21311796   4.680   2.556   5.039 -0.1081 -0.2101  0.2548
  113SAPE  H13R11797   4.789   2.543   5.022  0.2002  0.4702  1.5593
  113SAPE  H13S11798   4.624   2.473   4.992  0.6828 -1.8578  2.0990
  113SAPE  C21411799   4.665   2.558   5.187 -0.6049  0.3316 -0.2500
  113SAPE  H14R11800   4.711   2.643   5.239  1.5888 -0.8995 -0.0357
  113SAPE  C21511801   4.614   2.457   5.265 -0.3604 -0.5857 -0.1911
  113SAPE  H15R11802   4.602   2.479   5.371 -0.4055  0.8490 -0.4808
  113SAPE  C21611803   4.568   2.322   5.233 -0.4209  0.2495 -0.0363
  113SAPE  H16R11804   4.605   2.258   5.316 -2.2135 -0.1065  0.5398
  113SAPE  H16S11805   4.607   2.303   5.131  0.7511 -0.8926  0.5968
  113SAPE  C21711806   4.410   2.313   5.243  0.2210 -0.3276 -0.4333
  113SAPE  H17R11807   4.371   2.357   5.337  1.1297 -1.5714  0.5511
  113SAPE  H17S11808   4.388   2.204   5.236 -0.0656 -0.1852 -2.3926
  113SAPE  C21811809   4.335   2.371   5.123  0.0801 -0.3453 -0.3715
  113SAPE  H18R11810   4.375   2.474   5.113  1.5922 -0.7036  1.5381
  113SAPE  H18S11811   4.231   2.371   5.162  0.5834  1.4679  1.0994
  113SAPE  C21911812   4.337   2.279   5.000 -0.6148  0.1655 -0.4872
  113SAPE  H19R11813   4.304   2.177   5.030  2.1456 -1.0728 -1.3183
  113SAPE  H19S11814   4.442   2.268   4.965 -0.4061 -2.0862  0.6380
  113SAPE  C22011815   4.260   2.334   4.876 -0.6533 -0.0338  0.6482
  113SAPE  H20R11816   4.281   2.274   4.785 -0.9054  1.0810 -0.1609
  113SAPE  H20S11817   4.286   2.442   4.867  0.2232 -0.2405  0.6645
  113SAPE  H20T11818   4.150   2.326   4.894 -1.0084  0.1399 -1.2634
  113SAPE   C3311819   4.997   2.952   4.173 -0.4916 -0.2672 -0.4523
  113SAPE   H3X11820   4.996   3.019   4.084  0.8858 -0.4177 -0.6013
  113SAPE   H3Y11821   5.092   2.895   4.172  0.1972  0.8477 -0.5064
  113SAPE   C3411822   4.976   3.020   4.301 -0.5803 -0.1842 -0.6834
  113SAPE   H4X11823   4.878   3.071   4.289 -0.0420  0.9848 -0.2970
  113SAPE   H4Y11824   5.056   3.094   4.322 -0.1669  0.1844 -3.2670
  113SAPE   C3511825   4.981   2.917   4.419  0.9915 -0.2665  1.1958
  113SAPE   H5X11826   5.083   2.875   4.431  2.0612  2.2415  1.5544
  113SAPE   H5Y11827   4.911   2.834   4.397 -0.3964  1.5963 -2.1340
  113SAPE   C3611828   4.949   2.987   4.554 -0.4451 -0.1056  0.0701
  113SAPE   H6X11829   4.861   3.054   4.540 -0.2359 -0.1395 -1.7027
  113SAPE   H6Y11830   5.039   3.049   4.572 -0.3680 -0.4758  1.0068
  113SAPE   C3711831   4.958   2.883   4.668  0.8139  0.3307  0.5479
  113SAPE   H7X11832   5.048   2.818   4.662  0.6296 -0.1304  2.2512
  113SAPE   H7Y11833   4.874   2.810   4.665  2.3175 -1.4994  0.8320
  113SAPE   C3811834   4.980   2.940   4.800 -0.3413  0.2715 -0.6268
  113SAPE   H8X11835   5.006   2.868   4.880  1.7729 -0.4599 -1.8922
  113SAPE   H8Y11836   5.069   3.006   4.804 -1.4406  1.8127 -0.5034
  113SAPE   C3911837   4.866   3.028   4.854  0.3588  0.2640  0.3761
  113SAPE   H9X11838   4.768   2.978   4.837 -0.4373  1.6659  0.7031
  113SAPE   H9Y11839   4.869   3.128   4.806  0.7341 -0.2683 -0.7403
  113SAPE  C31011840   4.878   3.051   5.004  0.1468  0.0150 -0.9730
  113SAPE  H10X11841   4.816   3.135   5.040  2.1843  1.0142  0.4552
  113SAPE  H10Y11842   4.983   3.083   5.024  0.2314  0.0845 -1.5089
  113SAPE  C31111843   4.835   2.936   5.097  0.2269  0.1511  0.6262
  113SAPE  H11X11844   4.887   2.844   5.061 -1.7891 -0.9815  0.4444
  113SAPE  H11Y11845   4.729   2.929   5.065  0.1105  1.8296  0.5902
  113SAPE  C31211846   4.846   2.951   5.245 -0.9859 -0.8571 -0.2206
  113SAPE  H12X11847   4.808   2.863   5.301 -0.1402 -0.4319  1.0777
  113SAPE  H12Y11848   4.780   3.038   5.268 -0.1558 -0.3045  0.0966
  113SAPE  C31311849   4.990   2.970   5.293 -0.8490  0.6076 -0.1555
  113SAPE  H13X11850   5.033   3.052   5.232  0.6010  0.2946  0.4145
  113SAPE  H13Y11851   5.043   2.874   5.281  0.4416  1.3030 -0.1832
  113SAPE  C31411852   4.996   3.025   5.433  0.2209  0.4822 -0.0685
  113SAPE  H14X11853   4.934   3.118   5.435 -0.0200  0.3240  2.0011
  113SAPE  H14Y11854   5.095   3.039   5.482  0.7869  0.3744 -1.1577
  113SAPE  C31511855   4.925   2.940   5.539  0.6257  0.4838 -0.1047
  113SAPE  H15X11856   4.968   2.838   5.531 -0.7638 -0.1360  0.2093
  113SAPE  H15Y11857   4.817   2.944   5.515  0.7514  1.0841 -0.6034
  113SAPE  C31611858   4.930   3.005   5.679 -0.1623  0.1869 -0.0063
  113SAPE  H16X11859   5.032   3.013   5.723  0.1619 -2.3083 -0.1392
  113SAPE  H16Y11860   4.874   2.937   5.747  1.0699 -0.5638  0.2848
  113SAPE  C31711861   4.864   3.151   5.689  0.1041  0.2060  0.5941
  113SAPE  H17X11862   4.934   3.210   5.627 -2.8200  1.0953 -2.1467
  113SAPE  H17Y11863   4.880   3.194   5.791  1.1610  0.5243  0.3040
  113SAPE  C31811864   4.720   3.164   5.657  0.7805 -0.5795  0.5368
  113SAPE  H18X11865   4.662   3.091   5.717 -0.2411  0.8957  1.3941
  113SAPE  H18Y11866   4.713   3.140   5.548  2.8448 -0.9572  0.4460
  113SAPE  H18Z11867   4.676   3.262   5.681  1.5286 -0.1731  0.2979
  114SAPE     N11868   4.831   2.180   3.465  0.6143  0.2366 -0.0477
  114SAPE   HN111869   4.767   2.148   3.541  0.9354 -0.5700 -0.1073
  114SAPE   HN211870   4.802   2.279   3.450 -1.5064 -0.2709  0.4694
  114SAPE   HN311871   4.814   2.129   3.376 -2.0166  2.3081 -0.8743
  114SAPE   C1211872   4.966   2.148   3.513 -0.2713  0.1241  0.6693
  114SAPE  H12A11873   5.042   2.163   3.434  1.3900  3.0534  2.6296
  114SAPE  H12B11874   4.956   2.038   3.525 -1.1663  0.1023 -0.1340
  114SAPE   C1111875   5.008   2.212   3.650 -0.0637  0.5528 -0.1615
  114SAPE  H11A11876   5.091   2.143   3.677  1.1565  0.9953 -2.4992
  114SAPE  H11B11877   4.925   2.201   3.723 -0.0336  0.9823 -0.0566
  114SAPE     P11878   5.198   2.379   3.604 -0.0591 -0.0040  0.1697
  114SAPE   O1311879   5.254   2.267   3.527 -0.6343 -0.5339  0.0428
  114SAPE   O1411880   5.200   2.513   3.538  0.1989 -0.2589 -0.0392
  114SAPE   O1211881   5.042   2.353   3.643 -0.4110  0.0282 -0.5273
  114SAPE   O1111882   5.264   2.390   3.751 -0.4496  0.2680 -0.1468
  114SAPE    C111883   5.236   2.489   3.852 -0.2924  0.1950 -0.0901
  114SAPE    HA11884   5.152   2.553   3.818  0.3894  2.2041  1.7764
  114SAPE    HB11885   5.204   2.436   3.944  0.3691  1.5991  0.9695
  114SAPE    C211886   5.355   2.575   3.892  0.7467 -0.0888  0.7819
  114SAPE    HS11887   5.397   2.624   3.802 -0.6978  0.3678  0.3236
  114SAPE   O2111888   5.450   2.489   3.955  0.3328 -0.3509 -0.6450
  114SAPE   C2111889   5.539   2.419   3.893 -0.5077  0.3357  0.0181
  114SAPE   O2211890   5.564   2.421   3.771 -0.4836  0.0018  0.1637
  114SAPE   C2211891   5.630   2.340   3.990  0.2733  0.3063  0.3091
  114SAPE   H2R11892   5.565   2.265   4.040  0.6026 -0.0708  0.1764
  114SAPE   H2S11893   5.698   2.283   3.923  0.3390  0.5457  0.1712
  114SAPE    C311894   5.308   2.701   3.972 -0.0582  0.0079 -0.1243
  114SAPE    HX11895   5.231   2.757   3.916 -0.5313 -0.1490  0.3666
  114SAPE    HY11896   5.386   2.778   3.989  2.3159 -2.3697  0.4858
  114SAPE   O3111897   5.258   2.664   4.098 -0.1455 -0.6969  0.5470
  114SAPE   C3111898   5.341   2.674   4.203 -0.5432  0.2327  0.0092
  114SAPE   O3211899   5.459   2.710   4.197  0.6584  0.4356 -0.2167
  114SAPE   C3211900   5.262   2.640   4.332 -0.1840 -0.0612  0.0670
  114SAPE   H2X11901   5.259   2.529   4.322 -1.3849 -0.1844  1.3590
  114SAPE   H2Y11902   5.154   2.665   4.328 -0.1557  0.0407 -0.0349
  114SAPE   C2311903   5.696   2.428   4.100 -0.6181  0.0821  0.0384
  114SAPE   H3R11904   5.616   2.490   4.147 -1.3556  0.8117 -2.0637
  114SAPE   H3S11905   5.766   2.503   4.056 -1.3549  1.9874  1.9217
  114SAPE   C2411906   5.751   2.331   4.213  0.3307 -0.5698 -0.2190
  114SAPE   H4R11907   5.830   2.261   4.177  2.6143  1.4387  0.5559
  114SAPE   H4S11908   5.668   2.261   4.230  0.0447 -0.2372 -0.2298
  114SAPE   C2511909   5.810   2.411   4.327 -0.0030 -0.2160  0.1873
  114SAPE   H5R11910   5.882   2.490   4.300  0.5637 -1.3369 -1.7243
  114SAPE   C2611911   5.765   2.426   4.451  0.1200  1.0484  0.2974
  114SAPE   H6R11912   5.801   2.507   4.517  1.5550  0.2329  0.5674
  114SAPE   C2711913   5.645   2.346   4.507  0.1566 -0.3119 -0.0056
  114SAPE   H7R11914   5.592   2.276   4.438  0.2617  0.9865 -1.4696
  114SAPE   H7S11915   5.580   2.431   4.537  0.7599 -0.3957  1.6011
  114SAPE   C2811916   5.673   2.267   4.637 -0.9614  0.2527 -0.8037
  114SAPE   H8R11917   5.672   2.157   4.624 -1.1503  0.1771 -0.1695
  114SAPE   C2911918   5.687   2.309   4.766  0.0295 -0.1664 -0.5904
  114SAPE   H9R11919   5.711   2.238   4.847  0.4495 -1.4869 -1.8285
  114SAPE  C21011920   5.690   2.449   4.810  0.2214 -0.3221 -0.8292
  114SAPE  H10R11921   5.645   2.516   4.734 -1.2016  0.1415  0.3807
  114SAPE  H10S11922   5.791   2.480   4.844 -0.2891 -1.2714  1.8215
  114SAPE  C21111923   5.593   2.450   4.922  0.8167 -0.1925 -0.2003
  114SAPE  H11R11924   5.491   2.477   4.891  0.7171  0.9397  1.0111
  114SAPE  C21211925   5.620   2.446   5.054  0.0530  0.0598  0.2329
  114SAPE  H12R11926   5.537   2.442   5.126 -0.7903  0.3828 -0.6976
  114SAPE  C21311927   5.755   2.435   5.119  0.1101 -0.2223  0.8655
  114SAPE  H13R11928   5.763   2.508   5.202 -1.7738  1.2800 -0.1877
  114SAPE  H13S11929   5.834   2.455   5.044 -0.8969 -0.7108 -0.3535
  114SAPE  C21411930   5.780   2.293   5.166 -0.0889  0.0313 -0.6647
  114SAPE  H14R11931   5.713   2.216   5.126  1.5790 -0.7045 -2.2258
  114SAPE  C21511932   5.881   2.259   5.253 -0.0056  0.3042  0.3393
  114SAPE  H15R11933   5.892   2.155   5.286  0.6577  0.9006  2.0943
  114SAPE  C21611934   5.988   2.351   5.311 -0.0675  0.4870  0.0884
  114SAPE  H16R11935   5.977   2.457   5.281 -1.6162 -0.0005 -1.2429
  114SAPE  H16S11936   6.090   2.325   5.275  0.0441  2.3673 -1.1189
  114SAPE  C21711937   6.003   2.351   5.459 -0.5189  1.3594 -0.5121
  114SAPE  H17R11938   6.000   2.245   5.492  2.4386  1.0605 -0.9009
  114SAPE  H17S11939   5.908   2.392   5.500 -1.0084  0.1793 -0.4354
  114SAPE  C21811940   6.127   2.437   5.514 -0.2220 -0.4851 -1.1469
  114SAPE  H18R11941   6.109   2.546   5.504 -2.9394 -0.7036  0.2908
  114SAPE  H18S11942   6.223   2.404   5.469 -0.1258 -0.7446 -0.7596
  114SAPE  C21911943   6.135   2.418   5.670  0.1753 -0.6904  0.1620
  114SAPE  H19R11944   6.116   2.316   5.710 -0.8077 -0.9235 -0.8443
  114SAPE  H19S11945   6.047   2.473   5.709  0.3391 -0.4563  0.2028
  114SAPE  C22011946   6.268   2.467   5.732 -0.0897 -0.1733  0.4208
  114SAPE  H20R11947   6.262   2.443   5.840 -1.7368 -0.8686  0.2040
  114SAPE  H20S11948   6.279   2.578   5.725 -0.5128 -0.2368 -2.4567
  114SAPE  H20T11949   6.358   2.420   5.687  1.8594  1.6240  2.2047
  114SAPE   C3311950   5.323   2.686   4.462  0.3374 -0.0310 -0.6302
  114SAPE   H3X11951   5.328   2.797   4.462  0.7696  0.0359 -3.3553
  114SAPE   H3Y11952   5.431   2.658   4.465  0.2389 -0.7025 -2.2673
  114SAPE   C3411953   5.250   2.631   4.583  0.3790 -0.3326 -0.7169
  114SAPE   H4X11954   5.261   2.521   4.592  0.6073 -0.6354 -3.5872
  114SAPE   H4Y11955   5.141   2.656   4.585  0.1380 -1.4014  0.6267
  114SAPE   C3511956   5.305   2.680   4.717 -0.0091 -0.5693  0.5010
  114SAPE   H5X11957   5.306   2.791   4.710 -0.1668 -0.5590  0.6180
  114SAPE   H5Y11958   5.415   2.677   4.728 -0.2010 -2.1794  2.8162
  114SAPE   C3611959   5.235   2.631   4.843 -0.6174 -0.6951 -0.0597
  114SAPE   H6X11960   5.259   2.522   4.851  5.2754  0.3034  0.7184
  114SAPE   H6Y11961   5.125   2.634   4.830 -0.4108 -0.8986 -2.0783
  114SAPE   C3711962   5.272   2.689   4.985 -0.0136  0.0742 -0.6620
  114SAPE   H7X11963   5.201   2.772   5.007 -1.4046 -1.4091  0.7593
  114SAPE   H7Y11964   5.375   2.732   4.980 -0.9047  2.3938 -0.3020
  114SAPE   C3811965   5.260   2.580   5.096  0.5931  0.1845  0.1287
  114SAPE   H8X11966   5.305   2.622   5.188  1.0923  0.0353 -0.0460
  114SAPE   H8Y11967   5.301   2.481   5.068  0.3398 -0.1312  0.8544
  114SAPE   C3911968   5.106   2.553   5.127 -0.7527  0.2253  0.1278
  114SAPE   H9X11969   5.055   2.504   5.041 -1.9026  0.4897  0.6371
  114SAPE   H9Y11970   5.062   2.655   5.128  0.0533  0.6845 -2.7668
  114SAPE  C31011971   5.080   2.468   5.250  0.8351 -0.3582 -0.1245
  114SAPE  H10X11972   5.154   2.385   5.236  1.4620 -0.0398  1.1721
  114SAPE  H10Y11973   4.977   2.427   5.245  0.7355 -0.5833  2.5439
  114SAPE  C31111974   5.094   2.552   5.376  0.3991  0.4598 -0.2792
  114SAPE  H11X11975   5.012   2.626   5.381  0.9030  1.0129 -0.0735
  114SAPE  H11Y11976   5.185   2.613   5.361 -0.4949  2.0267  0.4412
  114SAPE  C31211977   5.088   2.475   5.502  0.5634 -0.4312 -0.0954
  114SAPE  H12X11978   5.087   2.549   5.584 -0.5705  0.7421 -1.1053
  114SAPE  H12Y11979   5.173   2.403   5.504 -0.3198 -1.6662 -2.4912
  114SAPE  C31311980   4.954   2.396   5.510 -0.3472  0.0282  0.1786
  114SAPE  H13X11981   4.969   2.302   5.453  1.4634  0.2008  0.3060
  114SAPE  H13Y11982   4.868   2.449   5.463  0.6631  0.4875 -1.2455
  114SAPE  C31411983   4.924   2.336   5.653 -0.1327  0.0374  0.2832
  114SAPE  H14X11984   4.868   2.408   5.717 -3.7706 -2.9166  0.7920
  114SAPE  H14Y11985   5.021   2.316   5.703 -0.0727 -0.1334  0.1010
  114SAPE  C31511986   4.845   2.205   5.657 -0.4846  0.0681  0.1477
  114SAPE  H15X11987   4.832   2.177   5.764 -0.4014 -2.6349 -0.4871
  114SAPE  H15Y11988   4.906   2.125   5.611  0.6762  1.5018 -0.9148
  114SAPE  C31611989   4.712   2.203   5.588 -0.1533 -0.6524  0.3534
  114SAPE  H16X11990   4.678   2.097   5.596 -0.4837 -0.3991  4.3051
  114SAPE  H16Y11991   4.729   2.223   5.480  0.9454 -0.5109  0.5434
  114SAPE  C31711992   4.608   2.304   5.635  0.1124 -0.8452  0.1962
  114SAPE  H17X11993   4.650   2.399   5.596 -2.3377  1.0262  1.8568
  114SAPE  H17Y11994   4.614   2.313   5.745 -2.4263  1.5024  0.2501
  114SAPE  C31811995   4.467   2.271   5.594  0.0663 -0.0038 -0.0358
  114SAPE  H18X11996   4.407   2.365   5.596  2.3430  1.5484 -0.3069
  114SAPE  H18Y11997   4.431   2.194   5.666  1.6568 -0.9261 -0.1822
  114SAPE  H18Z11998   4.465   2.231   5.491  2.0283 -0.1010 -0.0598
  115SAPE     N11999   4.319   4.905   3.959 -0.7112  0.4782  0.7219
  115SAPE   HN112000   4.380   4.843   3.903 -0.6324  1.0661  0.1427
  115SAPE   HN212001   4.281   4.854   4.042 -1.8662 -1.0543 -0.6780
  115SAPE   HN312002   4.236   4.939   3.906  0.9771  2.5146 -0.7727
  115SAPE   C1212003   4.400   5.010   4.003  0.1497 -0.5044 -0.6338
  115SAPE  H12A12004   4.334   5.084   4.053 -0.8995 -1.3454 -0.7543
  115SAPE  H12B12005   4.431   5.070   3.915 -1.3439 -0.3258 -1.0700
  115SAPE   C1112006   4.511   4.965   4.106 -0.1340 -0.6267 -0.0489
  115SAPE  H11A12007   4.463   4.920   4.196 -2.6974 -0.6631 -1.3120
  115SAPE  H11B12008   4.558   5.058   4.143 -1.9652  0.0260  0.7872
  115SAPE     P12009   4.716   4.899   3.965 -0.3417 -0.2003 -0.1064
  115SAPE   O1312010   4.780   4.775   3.923 -0.2355 -0.3522 -0.3001
  115SAPE   O1412011   4.674   4.988   3.853 -0.2890  0.7110  0.5943
  115SAPE   O1212012   4.602   4.868   4.061  0.1327  0.2616 -0.4114
  115SAPE   O1112013   4.826   4.978   4.059  0.3906  0.1106 -0.2335
  115SAPE    C112014   4.880   4.909   4.175  0.1282 -0.5188  0.2914
  115SAPE    HA12015   4.842   4.805   4.182  1.8833 -1.3403 -1.4911
  115SAPE    HB12016   4.991   4.908   4.175  0.1785  1.1759  1.0464
  115SAPE    C212017   4.852   4.996   4.299  0.6550  0.0222 -0.3590
  115SAPE    HS12018   4.922   4.979   4.383 -0.0340 -0.1390  0.1959
  115SAPE   O2112019   4.717   4.961   4.345 -0.1206 -0.1095 -0.0619
  115SAPE   C2112020   4.708   4.859   4.427  0.4585 -0.4134  0.0337
  115SAPE   O2212021   4.796   4.780   4.456 -0.0793 -0.1150  1.2380
  115SAPE   C2212022   4.567   4.862   4.489  0.0884 -0.6167  0.7843
  115SAPE   H2R12023   4.538   4.968   4.505  0.4986 -0.4360  0.3556
  115SAPE   H2S12024   4.497   4.809   4.422  0.7000  1.1741 -1.3823
  115SAPE    C312025   4.846   5.142   4.266  0.3990 -0.4222 -0.5658
  115SAPE    HX12026   4.767   5.157   4.189  0.7775 -1.1019 -1.0955
  115SAPE    HY12027   4.942   5.174   4.220 -0.9378  0.9851 -2.5392
  115SAPE   O3112028   4.811   5.232   4.376  0.4320  0.0397 -0.3508
  115SAPE   C3112029   4.813   5.362   4.352 -0.5073 -0.0295  0.5330
  115SAPE   O3212030   4.847   5.417   4.251 -0.2684  0.3832  0.2169
  115SAPE   C3212031   4.767   5.450   4.472  0.8049 -0.0367 -0.0266
  115SAPE   H2X12032   4.660   5.476   4.459  1.1069  0.2237 -2.3654
  115SAPE   H2Y12033   4.816   5.550   4.469 -1.6266  1.1998 -0.4004
  115SAPE   C2312034   4.563   4.813   4.635 -0.3761  0.2185 -0.3658
  115SAPE   H3R12035   4.611   4.712   4.634 -1.0065 -0.0865 -0.1393
  115SAPE   H3S12036   4.460   4.797   4.673 -0.7385  0.5794 -1.1721
  115SAPE   C2412037   4.649   4.908   4.729 -0.3918 -0.0053  0.7219
  115SAPE   H4R12038   4.741   4.935   4.673  0.4362 -4.1788 -0.2625
  115SAPE   H4S12039   4.676   4.857   4.824  0.6539  2.4284  1.8126
  115SAPE   C2512040   4.573   5.036   4.756  0.3642  0.0246 -0.1475
  115SAPE   H5R12041   4.598   5.124   4.694 -4.9101  1.1491 -1.1979
  115SAPE   C2612042   4.490   5.057   4.857  0.0245  0.0142 -0.9260
  115SAPE   H6R12043   4.460   5.159   4.885 -1.8067 -1.4321  3.2154
  115SAPE   C2712044   4.446   4.949   4.958  0.4823 -0.1443  0.7889
  115SAPE   H7R12045   4.469   4.848   4.919 -1.2306 -0.1386 -0.3266
  115SAPE   H7S12046   4.336   4.947   4.969  0.5808 -1.4262  1.8072
  115SAPE   C2812047   4.512   4.947   5.090 -0.1806  0.0053  0.0062
  115SAPE   H8R12048   4.556   4.852   5.123 -3.8067 -2.6672 -2.1038
  115SAPE   C2912049   4.496   5.042   5.184 -0.1090 -0.1369  0.0786
  115SAPE   H9R12050   4.549   5.023   5.278 -0.1875 -1.6488 -0.1565
  115SAPE  C21012051   4.413   5.169   5.199  0.2554  0.5867 -0.3260
  115SAPE  H10R12052   4.435   5.249   5.125 -0.0380  0.9112 -0.0653
  115SAPE  H10S12053   4.437   5.208   5.300  0.9368  0.4758 -0.4410
  115SAPE  C21112054   4.265   5.146   5.207  0.5160 -0.7128  0.2414
  115SAPE  H11R12055   4.216   5.111   5.115 -3.0426 -0.5610  1.9005
  115SAPE  C21212056   4.178   5.179   5.304 -0.2059 -1.0021 -0.7320
  115SAPE  H12R12057   4.071   5.156   5.297 -0.9352  0.5338  2.8461
  115SAPE  C21312058   4.202   5.246   5.441  0.0089 -0.0626  0.4833
  115SAPE  H13R12059   4.310   5.239   5.465  0.2234  2.2999  0.4616
  115SAPE  H13S12060   4.152   5.196   5.527 -1.1243  0.2125  0.0049
  115SAPE  C21412061   4.160   5.389   5.447  0.5238 -0.4392  0.0064
  115SAPE  H14R12062   4.107   5.430   5.359  2.2183  0.7586 -0.4992
  115SAPE  C21512063   4.221   5.476   5.527 -0.0605  0.0610  0.7089
  115SAPE  H15R12064   4.188   5.581   5.520 -0.3022 -0.0942 -4.2116
  115SAPE  C21612065   4.314   5.452   5.632 -0.0738 -0.4468  0.2314
  115SAPE  H16R12066   4.418   5.441   5.598 -0.1091 -3.1519  0.7846
  115SAPE  H16S12067   4.289   5.356   5.682 -2.6148 -0.1125 -0.2186
  115SAPE  C21712068   4.302   5.570   5.737 -0.1046 -0.5805  0.5917
  115SAPE  H17R12069   4.202   5.556   5.783  0.5822 -1.9041  1.7501
  115SAPE  H17S12070   4.311   5.670   5.691 -2.6572  0.4871  2.1879
  115SAPE  C21812071   4.396   5.551   5.861 -0.5218 -0.2725  0.8196
  115SAPE  H18R12072   4.501   5.572   5.832 -0.4777 -1.4586  0.0531
  115SAPE  H18S12073   4.394   5.442   5.882  1.4228 -0.7614 -1.1966
  115SAPE  C21912074   4.370   5.612   6.001 -0.1947  0.3989  0.5975
  115SAPE  H19R12075   4.448   5.570   6.068  0.1728 -1.7631 -1.0589
  115SAPE  H19S12076   4.272   5.573   6.035 -0.4059 -0.4594 -0.8968
  115SAPE  C22012077   4.368   5.767   6.003 -0.0071  0.2873 -0.0431
  115SAPE  H20R12078   4.465   5.812   5.971  0.1305  0.9419  1.2195
  115SAPE  H20S12079   4.366   5.788   6.113 -0.8684  0.3322 -0.0659
  115SAPE  H20T12080   4.287   5.818   5.947  0.3875  1.0918  0.0957
  115SAPE   C3312081   4.801   5.379   4.600  0.7845  0.3650 -0.7169
  115SAPE   H3X12082   4.910   5.370   4.617  0.3742 -0.1851  2.1624
  115SAPE   H3Y12083   4.782   5.269   4.608  1.6399  0.2765  0.3155
  115SAPE   C3412084   4.738   5.444   4.719 -0.2244  0.3089 -0.1673
  115SAPE   H4X12085   4.627   5.449   4.716 -0.3649 -0.8267  1.3274
  115SAPE   H4Y12086   4.785   5.543   4.733 -0.7358  0.6819 -1.0696
  115SAPE   C3512087   4.779   5.367   4.845  0.0989  0.1513 -0.1704
  115SAPE   H5X12088   4.885   5.338   4.829 -0.1024 -1.9701  1.7573
  115SAPE   H5Y12089   4.714   5.277   4.856  0.9952 -0.4149  0.6824
  115SAPE   C3612090   4.783   5.452   4.970  0.2081 -0.3966 -0.1236
  115SAPE   H6X12091   4.676   5.479   4.979  0.7672  1.1949  3.5303
  115SAPE   H6Y12092   4.847   5.540   4.947 -0.6931  0.4871  0.6671
  115SAPE   C3712093   4.820   5.388   5.102  0.7445  0.1656 -0.1437
  115SAPE   H7X12094   4.929   5.365   5.097  0.9197  1.1532 -1.8688
  115SAPE   H7Y12095   4.771   5.289   5.112  0.3831  0.5203  1.9337
  115SAPE   C3812096   4.786   5.478   5.222 -0.3974  0.0037  0.0107
  115SAPE   H8X12097   4.679   5.503   5.235 -0.3016  0.9246 -0.8588
  115SAPE   H8Y12098   4.833   5.577   5.204 -0.5278  0.2150  0.7820
  115SAPE   C3912099   4.857   5.434   5.355 -0.0739 -0.7427 -0.3244
  115SAPE   H9X12100   4.967   5.444   5.345 -0.3156  0.5388 -2.4629
  115SAPE   H9Y12101   4.832   5.328   5.377 -2.4096 -0.1053  0.3412
  115SAPE  C31012102   4.824   5.526   5.475  0.2702 -0.1809  0.0609
  115SAPE  H10X12103   4.714   5.536   5.492  0.6869  0.1940  3.1018
  115SAPE  H10Y12104   4.867   5.626   5.457  1.8604 -0.8928 -0.2404
  115SAPE  C31112105   4.881   5.449   5.595  0.0465  0.0294 -0.0800
  115SAPE  H11X12106   4.992   5.448   5.595  0.0619  0.6675 -1.2975
  115SAPE  H11Y12107   4.846   5.343   5.598 -2.8943  0.9125  0.0550
  115SAPE  C31212108   4.842   5.508   5.730  0.4599 -0.6806 -0.3402
  115SAPE  H12X12109   4.734   5.535   5.720 -0.1540 -0.9701  3.8559
  115SAPE  H12Y12110   4.898   5.603   5.738  1.9504 -1.5978  0.4680
  115SAPE  C31312111   4.852   5.415   5.851  0.0902  0.1773 -0.2215
  115SAPE  H13X12112   4.835   5.472   5.945  0.7458  0.8644 -0.5087
  115SAPE  H13Y12113   4.953   5.370   5.843 -0.3950 -1.0967  0.5567
  115SAPE  C31412114   4.753   5.298   5.843 -0.0496  0.5396  0.2145
  115SAPE  H14X12115   4.776   5.226   5.763 -0.4210  0.4799  0.1617
  115SAPE  H14Y12116   4.654   5.337   5.810 -0.3824 -0.7246 -0.3132
  115SAPE  C31512117   4.730   5.224   5.978  0.4473  0.3508 -0.9984
  115SAPE  H15X12118   4.830   5.210   6.024  0.4113  0.1194 -0.9911
  115SAPE  H15Y12119   4.690   5.123   5.952 -0.2891 -0.0069  1.3341
  115SAPE  C31612120   4.637   5.297   6.076  0.6122 -0.9054 -0.6164
  115SAPE  H16X12121   4.541   5.327   6.029 -0.0449  2.6503  2.5231
  115SAPE  H16Y12122   4.685   5.391   6.110 -2.0527  0.8513 -1.3438
  115SAPE  C31712123   4.603   5.210   6.201 -0.3704 -0.3073  1.1057
  115SAPE  H17X12124   4.550   5.117   6.171  0.1308 -0.1592 -0.3171
  115SAPE  H17Y12125   4.537   5.273   6.265 -0.2132  3.0843 -1.7379
  115SAPE  C31812126   4.725   5.173   6.282 -0.1109 -0.0035  0.2817
  115SAPE  H18X12127   4.797   5.110   6.225  0.9015  0.4515  1.0263
  115SAPE  H18Y12128   4.699   5.107   6.367 -2.0340 -1.0120 -1.0111
  115SAPE  H18Z12129   4.774   5.262   6.327  0.9897 -0.2667 -0.3656
  116SAPE     N12130   5.233   4.185   3.670  0.3701 -0.3113  0.6751
  116SAPE   HN112131   5.230   4.088   3.632 -0.0034  0.5059 -1.5325
  116SAPE   HN212132   5.139   4.196   3.714 -0.2929 -1.4423 -0.3976
  116SAPE   HN312133   5.253   4.256   3.597 -1.0375  0.2505  0.7962
  116SAPE   C1212134   5.336   4.208   3.783 -0.2219  0.3260  0.5845
  116SAPE  H12A12135   5.435   4.218   3.735 -1.3670  0.4236 -1.8823
  116SAPE  H12B12136   5.341   4.123   3.854 -1.1584  0.6151  1.0170
  116SAPE   C1112137   5.314   4.332   3.871 -0.2892  0.1189  0.0714
  116SAPE  H11A12138   5.371   4.411   3.818  0.0939 -0.7292 -0.8103
  116SAPE  H11B12139   5.354   4.320   3.974 -3.5155  0.8745  1.5350
  116SAPE     P12140   5.134   4.522   3.920 -0.0721 -0.1767  0.1344
  116SAPE   O1312141   5.143   4.598   3.797 -0.5284  0.5253 -0.0904
  116SAPE   O1412142   5.000   4.530   3.989 -0.4002  0.4243 -0.9975
  116SAPE   O1212143   5.176   4.368   3.881  0.2344 -0.1056  0.1667
  116SAPE   O1112144   5.257   4.558   4.018 -0.0178  0.1569 -0.2890
  116SAPE    C112145   5.260   4.692   4.076  0.7675 -0.2119 -0.2912
  116SAPE    HA12146   5.356   4.744   4.055  0.2007  1.0648  0.2208
  116SAPE    HB12147   5.180   4.758   4.037  2.1313  0.9536 -1.2546
  116SAPE    C212148   5.258   4.689   4.238  0.4513 -0.1997  0.7416
  116SAPE    HS12149   5.253   4.792   4.280 -0.8745  0.3530 -0.6683
  116SAPE   O2112150   5.367   4.608   4.286 -0.3459  0.4280  0.2557
  116SAPE   C2112151   5.494   4.664   4.272 -0.3003  0.5694 -0.5535
  116SAPE   O2212152   5.510   4.775   4.216 -0.3713 -0.3962 -0.1298
  116SAPE   C2212153   5.604   4.586   4.324  0.8520  0.2971 -0.2946
  116SAPE   H2R12154   5.575   4.497   4.385  2.6409 -0.0306  0.1196
  116SAPE   H2S12155   5.663   4.558   4.234 -0.2240  1.5350 -1.4331
  116SAPE    C312156   5.118   4.626   4.281  0.2827 -0.1355 -0.1866
  116SAPE    HX12157   5.137   4.517   4.266 -0.5472 -0.7527  2.6358
  116SAPE    HY12158   5.036   4.660   4.214 -2.8742  0.7062  3.7688
  116SAPE   O3112159   5.082   4.649   4.420  0.0010  0.3028 -0.6435
  116SAPE   C3112160   5.055   4.557   4.496  1.3474  0.5960  0.1809
  116SAPE   O3212161   5.039   4.435   4.466 -0.1746 -0.5639  0.0194
  116SAPE   C3212162   5.041   4.620   4.635  0.1734  0.7102  0.5156
  116SAPE   H2X12163   4.978   4.711   4.624 -0.2076  0.4068  0.1736
  116SAPE   H2Y12164   5.141   4.648   4.676  1.2917 -1.4036 -0.5941
  116SAPE   C2312165   5.693   4.675   4.418  0.2182  0.7806  0.1903
  116SAPE   H3R12166   5.716   4.768   4.361  0.4333 -0.4186 -1.7864
  116SAPE   H3S12167   5.784   4.618   4.445 -1.3859 -1.1445  1.8425
  116SAPE   C2412168   5.608   4.718   4.543  0.9605 -0.3240  0.9239
  116SAPE   H4R12169   5.503   4.739   4.512  0.7988 -1.0847  0.9378
  116SAPE   H4S12170   5.640   4.821   4.573 -0.8319  0.6064 -0.1775
  116SAPE   C2512171   5.604   4.627   4.662 -1.1759  0.1440 -0.0568
  116SAPE   H5R12172   5.529   4.548   4.651 -0.1210 -0.5539 -3.6781
  116SAPE   C2612173   5.680   4.618   4.771 -0.5169  0.1546  0.2320
  116SAPE   H6R12174   5.662   4.535   4.841 -0.1570  1.0418  1.3892
  116SAPE   C2712175   5.789   4.718   4.823 -0.7341 -0.4904  0.2012
  116SAPE   H7R12176   5.745   4.820   4.832  1.6183  0.5849  0.3701
  116SAPE   H7S12177   5.864   4.730   4.742 -0.1456 -1.2780  0.6150
  116SAPE   C2812178   5.854   4.680   4.954  0.4281 -0.0206 -0.0952
  116SAPE   H8R12179   5.861   4.571   4.968  0.5397  0.0963  0.8367
  116SAPE   C2912180   5.898   4.752   5.058  0.3996 -0.4308  0.7709
  116SAPE   H9R12181   5.954   4.697   5.135  0.8599 -1.1626 -0.0520
  116SAPE  C21012182   5.896   4.908   5.074 -0.4493 -0.2475  0.3258
  116SAPE  H10R12183   5.999   4.942   5.098  0.5918 -0.1196 -3.5667
  116SAPE  H10S12184   5.841   4.930   5.167 -0.2231 -2.0672  0.9345
  116SAPE  C21112185   5.850   4.998   4.964 -0.2904  1.0840  0.3029
  116SAPE  H11R12186   5.910   4.991   4.872  2.0910  2.7361  1.6365
  116SAPE  C21212187   5.743   5.083   4.955  0.1859 -1.2701 -1.0551
  116SAPE  H12R12188   5.717   5.137   4.863  0.1653  1.6003  0.4820
  116SAPE  C21312189   5.638   5.095   5.071 -0.5202 -0.0095 -0.0262
  116SAPE  H13R12190   5.681   5.174   5.136  2.5124 -0.4727 -1.3075
  116SAPE  H13S12191   5.642   4.998   5.125  1.3790 -0.8179 -1.5026
  116SAPE  C21412192   5.495   5.123   5.031  0.1913 -0.2292 -0.1726
  116SAPE  H14R12193   5.470   5.099   4.927 -1.9360  0.0301  0.2358
  116SAPE  C21512194   5.394   5.161   5.117 -0.5651 -0.3391  0.3646
  116SAPE  H15R12195   5.295   5.187   5.077 -1.0510 -1.0597  1.0574
  116SAPE  C21612196   5.402   5.190   5.263 -0.1957  0.5460  0.1771
  116SAPE  H16R12197   5.319   5.257   5.295 -1.1954 -0.0418 -1.0888
  116SAPE  H16S12198   5.500   5.232   5.292 -0.9556  0.2548  3.6131
  116SAPE  C21712199   5.368   5.064   5.347  0.0531  0.5174 -0.3449
  116SAPE  H17R12200   5.440   4.982   5.327 -0.9771 -0.5274  0.1962
  116SAPE  H17S12201   5.275   5.014   5.316  0.1247  1.2866 -1.9442
  116SAPE  C21812202   5.364   5.088   5.499  0.4179  0.0712  0.6072
  116SAPE  H18R12203   5.281   5.160   5.514  1.1561  0.9992  0.3016
  116SAPE  H18S12204   5.460   5.120   5.546 -0.0086  0.3075  1.3399
  116SAPE  C21912205   5.327   4.962   5.575  0.2473 -0.1304 -0.1004
  116SAPE  H19R12206   5.392   4.879   5.541  1.1770  0.2068  0.8111
  116SAPE  H19S12207   5.220   4.931   5.576  0.9960 -3.2068 -1.9495
  116SAPE  C22012208   5.354   4.974   5.723 -1.0494 -0.2252 -0.4176
  116SAPE  H20R12209   5.341   4.884   5.786  0.7354 -2.1777 -2.6931
  116SAPE  H20S12210   5.293   5.059   5.762  1.6939  0.2555  3.4477
  116SAPE  H20T12211   5.458   5.006   5.744 -0.7764 -0.3334 -1.5760
  116SAPE   C3312212   4.982   4.526   4.742 -0.1355  0.4794  0.5695
  116SAPE   H3X12213   5.045   4.434   4.738 -2.4524 -1.1611 -0.4967
  116SAPE   H3Y12214   4.881   4.503   4.703  0.3267 -1.3880  0.3877
  116SAPE   C3412215   4.991   4.557   4.893  0.5805  0.6292  0.4138
  116SAPE   H4X12216   4.953   4.474   4.956 -1.1384  0.8504 -0.2721
  116SAPE   H4Y12217   4.932   4.650   4.907 -2.2604 -0.3038 -3.4803
  116SAPE   C3512218   5.135   4.577   4.946 -0.6185 -0.1458 -1.1075
  116SAPE   H5X12219   5.177   4.665   4.893  0.8140  0.2586  0.6228
  116SAPE   H5Y12220   5.196   4.485   4.935 -0.4009  0.1000 -1.9726
  116SAPE   C3612221   5.132   4.606   5.100 -0.5606 -0.1460 -0.5630
  116SAPE   H6X12222   5.076   4.701   5.114  1.0964  1.0722 -1.7437
  116SAPE   H6Y12223   5.238   4.631   5.125  0.3474 -1.2394 -2.9909
  116SAPE   C3712224   5.087   4.489   5.187  0.2751 -0.3754  0.1287
  116SAPE   H7X12225   5.138   4.397   5.151 -0.0500 -0.7625  0.6374
  116SAPE   H7Y12226   4.976   4.475   5.182  0.0678  1.0342  0.4192
  116SAPE   C3812227   5.133   4.518   5.333  0.7910 -0.1865  0.8990
  116SAPE   H8X12228   5.083   4.612   5.365 -0.9556 -0.5871 -0.4788
  116SAPE   H8Y12229   5.242   4.535   5.327  0.7793 -0.5630 -1.3597
  116SAPE   C3912230   5.113   4.399   5.431 -0.2886 -0.1445 -0.0298
  116SAPE   H9X12231   5.136   4.305   5.377  0.5722  0.3585 -0.5546
  116SAPE   H9Y12232   5.009   4.385   5.467  0.2378  1.5462  2.4266
  116SAPE  C31012233   5.209   4.419   5.552  0.3795 -0.6037  0.0333
  116SAPE  H10X12234   5.203   4.524   5.589  0.2182  0.8128 -3.6441
  116SAPE  H10Y12235   5.312   4.399   5.515 -0.0251 -0.0837 -1.4223
  116SAPE  C31112236   5.165   4.317   5.664  0.2790  0.1546  0.4609
  116SAPE  H11X12237   5.157   4.215   5.620  0.5415 -0.2618  1.3364
  116SAPE  H11Y12238   5.061   4.342   5.694  0.3527 -0.5947  1.4209
  116SAPE  C31212239   5.238   4.330   5.794 -0.3422  0.7938 -0.0484
  116SAPE  H12X12240   5.175   4.287   5.875  4.5343 -0.7688  3.3465
  116SAPE  H12Y12241   5.232   4.438   5.822  0.2712  1.1343 -1.1724
  116SAPE  C31312242   5.385   4.280   5.793 -0.0164 -0.3559  0.5552
  116SAPE  H13X12243   5.419   4.334   5.884 -1.1813  0.0939  0.7349
  116SAPE  H13Y12244   5.445   4.309   5.704  0.5755  0.0266  1.0772
  116SAPE  C31412245   5.402   4.125   5.810 -0.0422 -0.1764 -0.2398
  116SAPE  H14X12246   5.507   4.091   5.805  0.6707  1.6387  1.0341
  116SAPE  H14Y12247   5.340   4.076   5.732 -1.4440  0.5979  0.3453
  116SAPE  C31512248   5.350   4.076   5.943  0.0209 -0.7992 -0.8301
  116SAPE  H15X12249   5.347   3.965   5.951 -0.1420 -0.7379  0.1880
  116SAPE  H15Y12250   5.244   4.103   5.960  0.1145 -1.6609  1.5094
  116SAPE  C31612251   5.431   4.122   6.061  0.4231  0.5817 -0.0000
  116SAPE  H16X12252   5.464   4.227   6.050 -0.0556  0.6240 -1.3385
  116SAPE  H16Y12253   5.522   4.058   6.056  0.1922  0.2207  0.4096
  116SAPE  C31712254   5.363   4.121   6.195  0.0564 -0.1177  0.6387
  116SAPE  H17X12255   5.331   4.017   6.218 -3.0778  0.3297 -1.0175
  116SAPE  H17Y12256   5.274   4.185   6.174 -0.4303 -1.4104 -1.5867
  116SAPE  C31812257   5.442   4.194   6.306 -0.5709  0.7838  0.2727
  116SAPE  H18X12258   5.381   4.241   6.386 -1.5691  1.6251 -0.9553
  116SAPE  H18Y12259   5.503   4.275   6.261  0.0576  0.8485  1.2017
  116SAPE  H18Z12260   5.519   4.127   6.350  0.6580  0.0331 -2.7605
  117SOPE     N12261   6.053   3.330   8.962 -0.2276 -0.5992 -0.1975
  117SOPE   HN112262   6.028   3.430   8.977 -2.5365 -1.1242 -0.2728
  117SOPE   HN212263   6.146   3.311   9.005  0.2556  0.7283 -0.6241
  117SOPE   HN312264   6.056   3.309   8.860 -2.0126 -1.3587 -0.1185
  117SOPE   C1212265   5.946   3.243   9.023  0.4637 -0.5194  0.2420
  117SOPE  H12A12266   5.976   3.246   9.130  1.1432 -1.7575  0.1013
  117SOPE  H12B12267   5.956   3.139   8.986 -0.2756  0.0249 -1.6345
  117SOPE   C1112268   5.802   3.289   9.004  0.3865  0.1202 -0.6106
  117SOPE  H11A12269   5.789   3.397   9.028 -0.2654 -0.4730  2.0913
  117SOPE  H11B12270   5.744   3.227   9.076  0.8393  0.1491 -0.2123
  117SOPE     P12271   5.699   3.126   8.823 -0.0162  0.1887 -0.5217
  117SOPE   O1312272   5.581   3.101   8.917  0.0476  0.3624  0.5350
  117SOPE   O1412273   5.796   3.015   8.812 -0.3528 -0.3018 -0.2000
  117SOPE   O1212274   5.771   3.262   8.869  0.1997 -0.1294  0.2981
  117SOPE   O1112275   5.627   3.159   8.688 -0.1186 -0.6522  0.5648
  117SOPE    C112276   5.605   3.294   8.634 -0.4819 -0.4516  0.0070
  117SOPE    HA12277   5.699   3.342   8.600 -0.5086  0.2917  0.9342
  117SOPE    HB12278   5.564   3.362   8.711 -0.4924  1.0946 -1.3029
  117SOPE    C212279   5.509   3.300   8.513 -0.0509 -0.5450 -0.6132
  117SOPE    HS12280   5.494   3.409   8.494 -0.1748 -0.6512 -1.1434
  117SOPE   O2112281   5.387   3.233   8.550  0.3900  0.3380 -0.1811
  117SOPE   C2112282   5.306   3.312   8.617 -0.0929 -0.3527  0.1045
  117SOPE   O2212283   5.334   3.422   8.660 -0.3243 -0.0659  0.0801
  117SOPE   C2212284   5.178   3.244   8.646 -0.7619 -0.7872 -0.4960
  117SOPE   H2R12285   5.136   3.299   8.733  0.1557  1.5081 -1.4483
  117SOPE   H2S12286   5.191   3.136   8.669  0.6815 -0.7173 -0.8864
  117SOPE    C312287   5.563   3.226   8.392 -0.4210 -0.4916 -0.0664
  117SOPE    HX12288   5.572   3.117   8.409 -0.8981 -0.4358  0.5726
  117SOPE    HY12289   5.666   3.262   8.370 -0.6931 -1.2947 -3.2032
  117SOPE   O3112290   5.489   3.268   8.272  0.0254 -0.0773  0.6831
  117SOPE   C3112291   5.392   3.190   8.238 -0.6568 -0.0601  0.7580
  117SOPE   O3212292   5.361   3.086   8.297  0.5450  0.1731 -0.2561
  117SOPE   C3212293   5.317   3.252   8.120 -0.4885 -0.0037 -0.2867
  117SOPE   H2X12294   5.386   3.261   8.034 -0.7319 -2.5959 -0.8370
  117SOPE   H2Y12295   5.288   3.355   8.150 -0.2507 -0.4947  1.7596
  117SOPE   C2312296   5.078   3.249   8.525 -0.5532  0.2962 -0.1138
  117SOPE   H3R12297   5.109   3.183   8.441 -0.0459 -2.8214  2.3314
  117SOPE   H3S12298   5.059   3.355   8.498 -1.7201 -0.0968 -0.9323
  117SOPE   C2412299   4.940   3.191   8.567  0.2342  0.5220 -0.4522
  117SOPE   H4R12300   4.953   3.094   8.620  1.9131  1.0012  0.0804
  117SOPE   H4S12301   4.913   3.262   8.648 -1.8477  0.1703 -0.7872
  117SOPE   C2512302   4.831   3.179   8.467 -0.0145 -0.2256 -0.0127
  117SOPE   H5R12303   4.875   3.115   8.387  0.3742 -1.7756  1.3864
  117SOPE   H5S12304   4.756   3.119   8.522  1.5993 -0.5160  1.9989
  117SOPE   C2612305   4.776   3.304   8.405  0.1056  0.3730  0.3898
  117SOPE   H6R12306   4.734   3.375   8.479  1.1111 -0.1217  1.4561
  117SOPE   H6S12307   4.866   3.354   8.361 -1.0475  2.1045 -0.1181
  117SOPE   C2712308   4.666   3.275   8.304  0.3979 -0.2557 -0.0952
  117SOPE   H7R12309   4.693   3.204   8.222 -0.6653 -1.1501  0.2975
  117SOPE   H7S12310   4.584   3.222   8.357  1.2978 -1.0412  0.5361
  117SOPE   C2812311   4.596   3.397   8.230 -0.4458  1.0587 -0.0317
  117SOPE   H8R12312   4.491   3.367   8.208 -0.3657 -1.7009  2.7678
  117SOPE   H8S12313   4.600   3.481   8.302 -0.3587  0.9279  0.1154
  117SOPE   C2912314   4.670   3.424   8.109 -0.1256  0.6063  0.2341
  117SOPE   H9112315   4.761   3.483   8.129  1.7975 -1.6840 -1.1836
  117SOPE  C21012316   4.645   3.388   7.986  0.8686  0.5664  0.5052
  117SOPE  H10112317   4.715   3.406   7.903  1.7068 -0.5161  0.9508
  117SOPE  C21112318   4.530   3.298   7.948  0.1770 -0.3199 -0.5376
  117SOPE  H11R12319   4.429   3.344   7.957  1.3588  2.0727  1.7675
  117SOPE  H11S12320   4.534   3.208   8.014  0.1707  0.1461  0.1042
  117SOPE  C21212321   4.560   3.258   7.800  0.6036  0.5946  0.2942
  117SOPE  H12R12322   4.507   3.162   7.784  0.7159  0.5963 -0.1202
  117SOPE  H12S12323   4.666   3.227   7.787  0.3335  0.0847 -0.8704
  117SOPE  C21312324   4.529   3.375   7.699  0.1236  0.7347  0.9145
  117SOPE  H13R12325   4.619   3.439   7.692  1.4550 -1.1435 -0.6642
  117SOPE  H13S12326   4.447   3.443   7.729 -0.0165  1.0386 -0.1152
  117SOPE  C21412327   4.498   3.309   7.564  0.7106  0.3409 -0.8239
  117SOPE  H14R12328   4.403   3.253   7.581  0.4405  0.9857 -0.2154
  117SOPE  H14S12329   4.582   3.244   7.529 -0.8961 -3.1710  1.2935
  117SOPE  C21512330   4.476   3.413   7.460  0.0678 -0.9305  0.4608
  117SOPE  H15R12331   4.574   3.454   7.430 -0.6864  1.1953  0.7448
  117SOPE  H15S12332   4.414   3.494   7.503  1.9182 -0.6786  2.8705
  117SOPE  C21612333   4.405   3.352   7.345  0.1471  0.0341 -0.6962
  117SOPE  H16R12334   4.300   3.329   7.374 -0.6195 -0.9859 -3.9269
  117SOPE  H16S12335   4.453   3.259   7.307 -1.7474 -1.5425  0.5770
  117SOPE  C21712336   4.396   3.448   7.229 -0.8011  0.1199  0.0904
  117SOPE  H17R12337   4.501   3.453   7.194 -0.2943  0.6488  1.6036
  117SOPE  H17S12338   4.359   3.547   7.263 -1.3412  0.2782 -0.9204
  117SOPE  C21812339   4.303   3.399   7.125 -0.5823  0.1697  0.5054
  117SOPE  H18R12340   4.198   3.416   7.156 -0.3828 -1.2898  2.1349
  117SOPE  H18S12341   4.316   3.297   7.083  1.1871  0.4720  0.2515
  117SOPE  H18T12342   4.318   3.465   7.037 -1.8258  0.4750  0.4996
  117SOPE   C3312343   5.193   3.173   8.073  0.3168 -1.1254  0.5589
  117SOPE   H3X12344   5.112   3.247   8.056  0.8806 -0.2165  1.7403
  117SOPE   H3Y12345   5.152   3.104   8.149 -1.7382 -1.3896 -0.7255
  117SOPE   C3412346   5.226   3.090   7.941  0.1509  0.3065 -0.1114
  117SOPE   H4X12347   5.159   3.001   7.950 -0.0074  0.4111 -0.2388
  117SOPE   H4Y12348   5.327   3.048   7.958 -0.5407 -0.6694  1.9321
  117SOPE   C3512349   5.215   3.160   7.807  0.1002 -0.7652 -0.4795
  117SOPE   H5X12350   5.260   3.092   7.731  3.2162 -0.5836  1.0678
  117SOPE   H5Y12351   5.276   3.252   7.801  0.1137 -0.6748  0.7958
  117SOPE   C3612352   5.065   3.181   7.781 -0.2876 -0.8174  0.7677
  117SOPE   H6X12353   5.018   3.238   7.864 -0.5311 -1.7660  1.2996
  117SOPE   H6Y12354   5.028   3.078   7.764  2.4965 -1.5252 -1.7204
  117SOPE   C3712355   5.055   3.267   7.653  1.1022  0.0021  0.0972
  117SOPE   H7X12356   5.145   3.243   7.592  0.9401  0.2424 -0.2390
  117SOPE   H7Y12357   5.054   3.375   7.677  0.5575 -0.2509  1.3172
  117SOPE   C3812358   4.936   3.238   7.556  0.2134  0.4570  0.2365
  117SOPE   H8X12359   4.847   3.219   7.619  0.7008 -2.5276  0.1592
  117SOPE   H8Y12360   4.939   3.146   7.494 -1.8715  2.6744 -3.5553
  117SOPE   C3912361   4.917   3.359   7.461  0.2448  0.5126 -0.5774
  117SOPE   H9X12362   4.918   3.460   7.506  0.6005 -0.5708  2.0204
  117SOPE   H9Y12363   4.819   3.343   7.411  0.7434 -1.8972 -0.8968
  117SOPE  C31012364   5.019   3.348   7.347  0.6159  0.2386  0.1807
  117SOPE  H10X12365   5.052   3.245   7.321  0.5192  0.6985 -1.9127
  117SOPE  H10Y12366   5.117   3.395   7.373  0.6931  0.5470 -0.6436
  117SOPE  C31112367   4.969   3.427   7.221 -0.3007  0.1901 -0.5152
  117SOPE  H11X12368   4.980   3.532   7.257  0.3186 -1.1602  3.7150
  117SOPE  H11Y12369   4.862   3.398   7.207 -0.2528  0.5456 -1.7713
  117SOPE  C31212370   5.056   3.400   7.099  0.4393 -0.5813 -0.2286
  117SOPE  H12X12371   5.065   3.292   7.073  0.2062 -1.5682  3.3199
  117SOPE  H12Y12372   5.160   3.430   7.122  0.5072 -1.1661  0.2605
  117SOPE  C31312373   4.997   3.483   6.977  0.3681 -0.2370  0.3343
  117SOPE  H13X12374   5.017   3.591   6.988 -2.4392  0.6177 -1.8697
  117SOPE  H13Y12375   4.888   3.464   6.972  0.4776 -0.5993 -1.0097
  117SOPE  C31412376   5.042   3.429   6.837 -0.2731  1.2820 -0.7695
  117SOPE  H14X12377   4.994   3.333   6.809 -1.6813  1.4119  1.0273
  117SOPE  H14Y12378   5.151   3.406   6.838 -0.4108  0.5521  0.9688
  117SOPE  C31512379   5.014   3.529   6.728  0.2164  0.6052  0.2006
  117SOPE  H15X12380   5.069   3.623   6.751 -0.6644  0.9784  0.8772
  117SOPE  H15Y12381   4.905   3.549   6.741  0.4402  1.4347  0.9410
  117SOPE  C31612382   5.056   3.487   6.589  0.0739  0.1493  0.1406
  117SOPE  H16X12383   5.050   3.581   6.531  0.5770  0.5345  0.7142
  117SOPE  H16Y12384   4.981   3.415   6.548 -0.8042  0.6513  0.8194
  117SOPE  C31712385   5.193   3.425   6.571  0.0509 -0.0941  0.3602
  117SOPE  H17X12386   5.197   3.323   6.617 -2.1046  0.4173  1.8466
  117SOPE  H17Y12387   5.269   3.485   6.626  0.7253  0.1354 -0.7890
  117SOPE  C31812388   5.245   3.416   6.430 -0.3919  0.4529 -0.4142
  117SOPE  H18X12389   5.188   3.346   6.366  1.7350 -2.2445  0.4305
  117SOPE  H18Y12390   5.339   3.356   6.423 -0.9312 -0.8048  2.0611
  117SOPE  H18Z12391   5.257   3.513   6.377  0.4528  0.0646 -0.9667
  118SOPE     N12392   0.228   3.918   8.251  0.2797  0.9969  0.1809
  118SOPE   HN112393   0.247   3.863   8.164 -2.6304  1.9667 -1.2025
  118SOPE   HN212394   0.275   4.010   8.247  1.0143  0.6604  0.7711
  118SOPE   HN312395   0.264   3.865   8.333  0.5782 -0.0956 -0.6211
  118SOPE   C1212396   0.075   3.936   8.263  0.2408  0.5100  0.3818
  118SOPE  H12A12397   0.038   3.988   8.172  0.5675  2.4585  1.3205
  118SOPE  H12B12398   0.060   3.997   8.354  2.6067  3.2736 -0.9244
  118SOPE   C1112399   0.003   3.800   8.277  0.4626  0.4748 -0.1070
  118SOPE  H11A12400   0.034   3.737   8.191  0.3881  2.1342 -1.3991
  118SOPE  H11B12401  -0.104   3.816   8.299  0.7339  0.9534  0.9372
  118SOPE     P12402  -0.016   3.639   8.491 -0.0719 -0.6950  0.1325
  118SOPE   O1312403  -0.093   3.725   8.587 -0.5166  0.1706 -0.8866
  118SOPE   O1412404   0.066   3.532   8.551  0.1351  0.2082 -0.3499
  118SOPE   O1212405   0.063   3.734   8.397 -0.0509  0.2349 -0.1800
  118SOPE   O1112406  -0.109   3.557   8.394 -0.1506 -0.4015  0.1598
  118SOPE    C112407  -0.255   3.589   8.387 -0.2908  0.7323  0.0282
  118SOPE    HA12408  -0.269   3.700   8.393  3.0915  1.4246 -2.1478
  118SOPE    HB12409  -0.307   3.539   8.471  1.1877 -1.4059 -0.2688
  118SOPE    C212410  -0.323   3.541   8.255 -0.1738 -0.9118 -0.0938
  118SOPE    HS12411  -0.286   3.441   8.224 -0.4886 -0.6704 -1.2985
  118SOPE   O2112412  -0.289   3.639   8.159 -0.0385  0.4125  0.3943
  118SOPE   C2112413  -0.179   3.628   8.084  0.7413  0.7346 -0.0575
  118SOPE   O2212414  -0.102   3.537   8.092 -0.0641 -0.3814  0.2589
  118SOPE   C2212415  -0.183   3.721   7.963  0.4512  1.1170  0.0491
  118SOPE   H2R12416  -0.228   3.666   7.877  1.4833  1.4182 -0.7117
  118SOPE   H2S12417  -0.081   3.763   7.948  0.2838  1.8342  0.8604
  118SOPE    C312418  -0.475   3.537   8.278  0.6239 -0.3689 -0.2885
  118SOPE    HX12419  -0.526   3.635   8.279 -3.0323 -2.1087 -0.6634
  118SOPE    HY12420  -0.492   3.483   8.374 -0.8605  1.8143  0.7420
  118SOPE   O3112421  -0.535   3.457   8.167 -0.1362 -0.7131 -0.3835
  118SOPE   C3112422  -0.665   3.445   8.184  1.0014  0.3322  0.1155
  118SOPE   O3212423  -0.738   3.497   8.269 -0.8059 -0.3505  0.1998
  118SOPE   C3212424  -0.708   3.342   8.076  0.3669  0.0341 -0.2416
  118SOPE   H2X12425  -0.757   3.253   8.119 -1.8420  1.1714 -0.2709
  118SOPE   H2Y12426  -0.616   3.305   8.026  0.4060  0.5100 -0.5381
  118SOPE   C2312427  -0.253   3.855   7.995  0.3503  0.3793  0.1257
  118SOPE   H3R12428  -0.197   3.903   8.078  1.1351  0.4166 -0.4152
  118SOPE   H3S12429  -0.361   3.839   8.018  0.5315 -0.3153  0.5340
  118SOPE   C2412430  -0.247   3.954   7.875 -0.3273 -0.0921 -0.2406
  118SOPE   H4R12431  -0.302   4.046   7.903 -0.4519  0.3378 -1.7824
  118SOPE   H4S12432  -0.145   3.993   7.855 -0.3245  1.2635  2.0775
  118SOPE   C2512433  -0.303   3.906   7.741 -0.5818  0.5917  0.7457
  118SOPE   H5R12434  -0.279   3.984   7.667  2.2802 -1.0199 -0.1627
  118SOPE   H5S12435  -0.250   3.816   7.704  1.3676  2.5365 -1.4534
  118SOPE   C2612436  -0.453   3.872   7.737 -0.1041  0.5254  0.0054
  118SOPE   H6R12437  -0.468   3.792   7.813  1.8654  0.8023  0.7634
  118SOPE   H6S12438  -0.508   3.960   7.776 -1.3763  0.4874 -1.6285
  118SOPE   C2712439  -0.504   3.846   7.595 -0.3340  0.3775  0.4499
  118SOPE   H7R12440  -0.614   3.832   7.606 -0.8529  4.0410  1.4096
  118SOPE   H7S12441  -0.488   3.944   7.545  1.6996  0.7196  1.6499
  118SOPE   C2812442  -0.444   3.734   7.513 -0.3481  0.1778  0.2329
  118SOPE   H8R12443  -0.507   3.723   7.422 -1.2425  1.5112  0.6638
  118SOPE   H8S12444  -0.345   3.775   7.485 -0.2074 -1.2331 -1.5576
  118SOPE   C2912445  -0.422   3.606   7.584 -0.0760  0.1751  0.0123
  118SOPE   H9112446  -0.404   3.603   7.693  1.8953 -1.5764 -0.2954
  118SOPE  C21012447  -0.422   3.489   7.516 -0.2116  0.0161 -0.6429
  118SOPE  H10112448  -0.424   3.398   7.578  1.1829  0.7803  0.5702
  118SOPE  C21112449  -0.441   3.455   7.371 -0.1012 -0.1987  0.4120
  118SOPE  H11R12450  -0.457   3.543   7.304  1.3785  1.2728  1.8743
  118SOPE  H11S12451  -0.514   3.375   7.348 -0.8015  0.7852 -0.9692
  118SOPE  C21212452  -0.309   3.401   7.308  1.0026  0.0178 -0.7510
  118SOPE  H12R12453  -0.290   3.302   7.354 -0.9200  0.0344  0.2324
  118SOPE  H12S12454  -0.220   3.467   7.318  1.2355 -0.2895 -0.7911
  118SOPE  C21312455  -0.331   3.358   7.164 -0.2824 -0.2711  0.0089
  118SOPE  H13R12456  -0.360   3.452   7.112 -0.8725  0.3054  1.3315
  118SOPE  H13S12457  -0.412   3.282   7.157 -2.3959  1.9921 -3.1456
  118SOPE  C21412458  -0.204   3.297   7.095  0.0110 -0.3632  0.2841
  118SOPE  H14R12459  -0.189   3.192   7.129  1.9374 -0.8370 -1.7818
  118SOPE  H14S12460  -0.116   3.364   7.108 -1.0076  0.8991  1.0123
  118SOPE  C21512461  -0.221   3.297   6.940  0.2215 -0.2152 -0.0551
  118SOPE  H15R12462  -0.129   3.262   6.888  0.6093  1.5463 -0.6401
  118SOPE  H15S12463  -0.245   3.397   6.897 -0.5535  0.0678  1.0157
  118SOPE  C21612464  -0.338   3.197   6.891 -0.0842 -0.7423 -0.4837
  118SOPE  H16R12465  -0.435   3.232   6.931  0.6572 -1.6923  2.4572
  118SOPE  H16S12466  -0.322   3.097   6.938 -0.0823 -1.4556 -1.9534
  118SOPE  C21712467  -0.335   3.178   6.737  0.1387 -0.0435  0.0285
  118SOPE  H17R12468  -0.240   3.123   6.719 -0.4173 -0.8224 -0.5848
  118SOPE  H17S12469  -0.326   3.278   6.688 -1.4300  0.1186  0.0212
  118SOPE  C21812470  -0.449   3.091   6.688  0.4792  0.0836  0.8826
  118SOPE  H18R12471  -0.438   3.057   6.583  1.9158 -2.4323  1.7621
  118SOPE  H18S12472  -0.546   3.145   6.682  0.6565  0.2810 -0.4062
  118SOPE  H18T12473  -0.450   2.997   6.748  2.6122 -0.1492  0.6079
  118SOPE   C3312474  -0.806   3.412   7.975 -0.3304 -0.2601 -0.1542
  118SOPE   H3X12475  -0.760   3.510   7.951  2.2545 -1.3513 -0.0067
  118SOPE   H3Y12476  -0.907   3.430   8.020  0.1836  0.5094  0.7343
  118SOPE   C3412477  -0.817   3.332   7.844  0.2913  0.1964 -0.1375
  118SOPE   H4X12478  -0.837   3.224   7.859  1.5796 -0.0406  0.0081
  118SOPE   H4Y12479  -0.714   3.337   7.801  0.0378  1.0652 -0.6800
  118SOPE   C3512480  -0.914   3.405   7.750 -0.9623  0.0856 -0.0758
  118SOPE   H5X12481  -1.012   3.416   7.801  0.2543 -1.3250  2.7990
  118SOPE   H5Y12482  -0.914   3.341   7.659  0.9086  0.9609 -0.7211
  118SOPE   C3612483  -0.864   3.538   7.700  0.3928 -0.3432  0.6254
  118SOPE   H6X12484  -0.756   3.540   7.671  0.6497  4.1420  1.2178
  118SOPE   H6Y12485  -0.884   3.607   7.784 -0.2692 -0.1776  0.3299
  118SOPE   C3712486  -0.936   3.582   7.572  0.8263  0.2899 -0.3341
  118SOPE   H7X12487  -0.917   3.690   7.553  1.6168  0.3825  0.8723
  118SOPE   H7Y12488  -1.046   3.571   7.580  0.5963  0.7506 -2.3458
  118SOPE   C3812489  -0.876   3.515   7.444  0.5007 -0.6189  0.5875
  118SOPE   H8X12490  -0.849   3.408   7.450 -1.1801 -1.1339 -0.4043
  118SOPE   H8Y12491  -0.779   3.566   7.424  0.6771 -2.0045 -2.6684
  118SOPE   C3912492  -0.958   3.535   7.318  0.9987 -0.8480 -0.1073
  118SOPE   H9X12493  -1.057   3.487   7.332  0.9646 -0.6815  0.2547
  118SOPE   H9Y12494  -0.901   3.487   7.236  2.7217 -0.3997  0.7709
  118SOPE  C31012495  -0.986   3.681   7.269  0.8385  0.3075 -0.1182
  118SOPE  H10X12496  -0.892   3.728   7.232  0.6448  0.4790 -0.3875
  118SOPE  H10Y12497  -1.035   3.744   7.346  1.7923  1.0418 -0.0904
  118SOPE  C31112498  -1.086   3.683   7.144 -0.2290 -0.5384 -0.6410
  118SOPE  H11X12499  -1.192   3.686   7.175 -0.1061 -1.5981 -0.0798
  118SOPE  H11Y12500  -1.064   3.593   7.083  0.1127  1.4878 -3.7142
  118SOPE  C31212501  -1.039   3.791   7.045 -0.3122  0.5358  0.4060
  118SOPE  H12X12502  -0.930   3.777   7.029 -0.0427  2.6652  0.0158
  118SOPE  H12Y12503  -1.033   3.893   7.090  1.3615  0.4020  0.5548
  118SOPE  C31312504  -1.118   3.795   6.912 -0.2286 -0.3721  0.5614
  118SOPE  H13X12505  -1.224   3.822   6.930 -0.8702 -0.0011 -2.9335
  118SOPE  H13Y12506  -1.126   3.691   6.872  2.1429 -1.0087  1.5440
  118SOPE  C31412507  -1.075   3.882   6.792  0.4109 -0.8712 -0.6603
  118SOPE  H14X12508  -0.969   3.866   6.765  0.2816 -0.2462 -1.5859
  118SOPE  H14Y12509  -1.081   3.985   6.833 -1.0770 -0.9999 -0.4808
  118SOPE  C31512510  -1.165   3.851   6.671 -0.5370  0.1481 -0.0166
  118SOPE  H15X12511  -1.268   3.837   6.710  0.1501  0.3320  1.9567
  118SOPE  H15Y12512  -1.129   3.751   6.636 -1.8857 -1.0237  1.7387
  118SOPE  C31612513  -1.170   3.964   6.569 -0.7951  0.5095 -0.2060
  118SOPE  H16X12514  -1.068   3.997   6.542  0.3077  0.0915  3.0324
  118SOPE  H16Y12515  -1.220   4.052   6.614 -2.9122  0.2388 -1.8234
  118SOPE  C31712516  -1.271   3.936   6.455  0.7450  1.0613 -0.2530
  118SOPE  H17X12517  -1.269   4.030   6.396  0.4604  0.0780 -1.8702
  118SOPE  H17Y12518  -1.372   3.921   6.499  1.4001  0.0674  0.9799
  118SOPE  C31812519  -1.252   3.823   6.347 -0.0390 -0.0341 -0.0204
  118SOPE  H18X12520  -1.321   3.848   6.264 -0.2920  0.0842  0.2208
  118SOPE  H18Y12521  -1.280   3.722   6.383  0.5361  0.0547  0.7139
  118SOPE  H18Z12522  -1.153   3.827   6.297 -0.1192  2.7964 -0.1631
  119SOPE     N12523   3.275   1.281   8.205  0.1993  0.3944 -0.4719
  119SOPE   HN112524   3.339   1.312   8.129  2.3286  0.0628  1.0858
  119SOPE   HN212525   3.299   1.185   8.236 -0.0677  0.9563  1.5761
  119SOPE   HN312526   3.176   1.281   8.175  0.4118 -1.7406 -1.3212
  119SOPE   C1212527   3.311   1.366   8.319  0.0362 -0.1247 -1.0874
  119SOPE  H12A12528   3.419   1.388   8.307 -0.1332  1.0835 -0.4383
  119SOPE  H12B12529   3.284   1.307   8.409 -0.9689  0.3479 -1.0647
  119SOPE   C1112530   3.225   1.490   8.324  0.4735 -0.2016 -0.4517
  119SOPE  H11A12531   3.272   1.555   8.401 -0.4004 -0.1838  0.0756
  119SOPE  H11B12532   3.120   1.468   8.351 -0.5345  2.7191 -1.5724
  119SOPE     P12533   3.182   1.701   8.189 -0.2300  0.2326  0.4891
  119SOPE   O1312534   3.310   1.786   8.194 -0.1503  0.1408  0.0293
  119SOPE   O1412535   3.074   1.725   8.286 -0.0166  0.2033  0.1509
  119SOPE   O1212536   3.238   1.554   8.198  0.1012  0.4471 -0.5830
  119SOPE   O1112537   3.115   1.718   8.048 -0.1998 -0.2472  0.4484
  119SOPE    C112538   3.161   1.644   7.934  0.1492 -0.0620  0.0533
  119SOPE    HA12539   3.100   1.684   7.850  0.1071 -0.4242 -0.0887
  119SOPE    HB12540   3.148   1.535   7.950  0.9174 -0.0314  0.9958
  119SOPE    C212541   3.305   1.689   7.895 -0.1892  0.3592  0.5883
  119SOPE    HS12542   3.376   1.666   7.978  0.4490 -0.1094 -0.0668
  119SOPE   O2112543   3.286   1.833   7.870 -0.9424  0.6090 -0.4180
  119SOPE   C2112544   3.396   1.904   7.914 -0.3764 -0.6115  0.7322
  119SOPE   O2212545   3.504   1.853   7.949 -0.1080  0.1346  0.6369
  119SOPE   C2212546   3.377   2.054   7.896  0.4424  0.1060 -0.4947
  119SOPE   H2R12547   3.281   2.077   7.946  0.0177 -0.1813 -1.1623
  119SOPE   H2S12548   3.368   2.067   7.786  0.9821 -0.7135 -0.6477
  119SOPE    C312549   3.360   1.629   7.759  0.8425  0.6169 -0.1808
  119SOPE    HX12550   3.367   1.519   7.776 -0.2897  0.4945 -0.3906
  119SOPE    HY12551   3.460   1.674   7.741 -0.2524  2.8316 -1.1265
  119SOPE   O3112552   3.265   1.645   7.652 -0.3452  0.6061 -0.1811
  119SOPE   C3112553   3.275   1.759   7.575 -0.4476 -0.7585 -0.5176
  119SOPE   O3212554   3.360   1.842   7.599 -0.4652  0.1102  0.1651
  119SOPE   C3212555   3.178   1.747   7.464  0.8420  0.2659  0.4463
  119SOPE   H2X12556   3.079   1.788   7.492  0.0029 -1.3866  0.0270
  119SOPE   H2Y12557   3.151   1.639   7.456  0.4522  0.5012 -1.9566
  119SOPE   C2312558   3.489   2.139   7.938 -0.6620 -0.3226  0.1904
  119SOPE   H3R12559   3.577   2.105   7.879 -0.3447 -0.6566  0.8386
  119SOPE   H3S12560   3.510   2.116   8.045 -0.7149  0.3947  0.3554
  119SOPE   C2412561   3.459   2.288   7.934 -0.7132 -0.3124  0.1447
  119SOPE   H4R12562   3.353   2.310   7.961 -0.2606  2.2967  0.0222
  119SOPE   H4S12563   3.525   2.340   8.007 -0.5504 -0.8085  0.3537
  119SOPE   C2512564   3.487   2.338   7.801  0.4198  0.7366  0.7296
  119SOPE   H5R12565   3.595   2.320   7.782  0.0980 -1.4333  0.7317
  119SOPE   H5S12566   3.437   2.268   7.730 -1.7307  0.9620  1.9254
  119SOPE   C2612567   3.436   2.482   7.782  0.8328  0.3106  0.2643
  119SOPE   H6R12568   3.329   2.501   7.803  0.1616  0.3931 -2.8139
  119SOPE   H6S12569   3.486   2.549   7.856 -0.9872  0.6492  1.2597
  119SOPE   C2712570   3.479   2.545   7.645  0.1878 -0.0621 -0.2463
  119SOPE   H7R12571   3.476   2.656   7.653  1.7112 -0.0295  0.1895
  119SOPE   H7S12572   3.589   2.530   7.644  0.0196 -1.7173 -2.5222
  119SOPE   C2812573   3.410   2.498   7.516  0.6701  0.5342  0.5145
  119SOPE   H8R12574   3.454   2.539   7.422 -1.6325  1.0847 -0.3973
  119SOPE   H8S12575   3.431   2.389   7.514  0.3231  0.4331  1.7228
  119SOPE   C2912576   3.258   2.506   7.519  0.2146  0.1378  0.5260
  119SOPE   H9112577   3.208   2.440   7.592 -0.8451  0.3950  0.0655
  119SOPE  C21012578   3.184   2.599   7.458  0.0233  0.3045 -0.2920
  119SOPE  H10112579   3.075   2.590   7.469  0.1266 -1.8015 -0.4784
  119SOPE  C21112580   3.236   2.722   7.390  0.2731 -0.3834  0.4235
  119SOPE  H11R12581   3.331   2.756   7.436  0.0181  0.5630  0.2707
  119SOPE  H11S12582   3.167   2.808   7.404 -2.0787 -2.0700 -0.0701
  119SOPE  C21212583   3.255   2.705   7.242 -0.3455 -0.5364  0.3881
  119SOPE  H12R12584   3.156   2.675   7.202 -1.1967  0.8922  1.3114
  119SOPE  H12S12585   3.341   2.639   7.216 -2.1488 -2.1566 -1.8857
  119SOPE  C21312586   3.288   2.842   7.171 -0.0484 -0.0247  0.0719
  119SOPE  H13R12587   3.389   2.867   7.209  0.4626  0.9813 -1.8134
  119SOPE  H13S12588   3.222   2.927   7.197  2.4752  1.4250  2.1954
  119SOPE  C21412589   3.299   2.835   7.021 -0.0157 -1.1636  0.0337
  119SOPE  H14R12590   3.197   2.833   6.979 -0.0540 -1.8623  0.1428
  119SOPE  H14S12591   3.365   2.748   6.996  3.3684  1.5801 -1.4789
  119SOPE  C21512592   3.380   2.957   6.958  0.8275  0.5947 -0.4408
  119SOPE  H15R12593   3.486   2.931   6.979  0.5245 -1.7018 -1.3602
  119SOPE  H15S12594   3.356   3.053   7.007  0.5432 -0.6000  1.8966
  119SOPE  C21612595   3.365   2.956   6.805 -0.0399 -0.9159 -0.1220
  119SOPE  H16R12596   3.259   2.964   6.773 -0.3598  2.2836  1.2881
  119SOPE  H16S12597   3.402   2.862   6.761 -0.5279  0.1324 -2.9410
  119SOPE  C21712598   3.467   3.058   6.737  0.3026  0.0205 -0.2596
  119SOPE  H17R12599   3.572   3.040   6.769 -1.0875 -3.9869  2.7857
  119SOPE  H17S12600   3.439   3.156   6.780  1.0058 -0.6257  1.7542
  119SOPE  C21812601   3.440   3.073   6.585 -0.4982  0.0111  0.0311
  119SOPE  H18R12602   3.515   3.132   6.529 -2.2033  1.6706 -0.5988
  119SOPE  H18S12603   3.334   3.104   6.577 -0.6151 -0.4536 -0.2446
  119SOPE  H18T12604   3.436   2.971   6.540 -1.1938  0.0341  0.0380
  119SOPE   C3312605   3.228   1.806   7.329 -0.5740  0.3704  0.2252
  119SOPE   H3X12606   3.321   1.752   7.300 -0.3789 -0.1815  1.7824
  119SOPE   H3Y12607   3.246   1.911   7.358 -1.0325 -0.0146  1.9916
  119SOPE   C3412608   3.118   1.802   7.222 -0.3024  0.3609  0.0978
  119SOPE   H4X12609   3.031   1.837   7.283  1.0406  1.6033  1.3706
  119SOPE   H4Y12610   3.081   1.700   7.197 -3.4950  1.3417  0.3076
  119SOPE   C3512611   3.134   1.886   7.094 -0.3116  0.2013 -0.0995
  119SOPE   H5X12612   3.193   1.824   7.023 -2.8255 -1.3658 -0.9813
  119SOPE   H5Y12613   3.182   1.975   7.138 -0.2247 -1.4345  3.4941
  119SOPE   C3612614   3.008   1.912   7.019  0.0654  0.2302 -0.2880
  119SOPE   H6X12615   2.937   1.961   7.089  0.6252  2.0001 -0.8820
  119SOPE   H6Y12616   2.957   1.817   6.993 -2.0817  1.4393 -0.6870
  119SOPE   C3712617   3.021   2.004   6.898  0.0546  0.1237 -0.3121
  119SOPE   H7X12618   3.099   2.082   6.904  2.3244 -1.8991 -1.6618
  119SOPE   H7Y12619   2.924   2.056   6.886 -0.0173 -0.2873 -1.7610
  119SOPE   C3812620   3.038   1.920   6.772 -0.3825  0.2847  0.9788
  119SOPE   H8X12621   2.959   1.842   6.765 -0.9002  0.9570 -2.6309
  119SOPE   H8Y12622   3.137   1.869   6.776  1.0152  2.9238  2.4235
  119SOPE   C3912623   3.042   2.006   6.642  0.0259 -0.0351  0.4893
  119SOPE   H9X12624   3.128   2.075   6.637 -1.1447  1.3767 -1.9092
  119SOPE   H9Y12625   2.952   2.072   6.641 -0.4290 -0.6368  0.7987
  119SOPE  C31012626   3.043   1.917   6.511  0.6805 -0.4326 -0.0291
  119SOPE  H10X12627   2.959   1.844   6.508 -2.0087  2.3668  0.7325
  119SOPE  H10Y12628   3.143   1.871   6.495 -0.1992 -1.7251 -2.2123
  119SOPE  C31112629   3.013   2.002   6.383  0.5891  0.3883  0.3065
  119SOPE  H11X12630   2.912   2.048   6.393  0.9293  1.2047  0.0927
  119SOPE  H11Y12631   3.006   1.939   6.292 -1.8103  0.5467  0.3240
  119SOPE  C31212632   3.115   2.118   6.352 -0.2313 -0.1019 -0.4945
  119SOPE  H12X12633   3.221   2.086   6.362 -0.9472 -3.1559 -1.5325
  119SOPE  H12Y12634   3.108   2.201   6.426  3.1329  0.2036 -0.3552
  119SOPE  C31312635   3.095   2.169   6.208  0.1109  0.1869  0.7179
  119SOPE  H13X12636   2.985   2.188   6.199  0.0361  1.7988  3.8036
  119SOPE  H13Y12637   3.115   2.088   6.135 -0.8894  1.6100 -1.2281
  119SOPE  C31412638   3.177   2.298   6.170 -0.3252  0.0109  0.0287
  119SOPE  H14X12639   3.288   2.289   6.173 -0.0161 -0.2982 -4.6841
  119SOPE  H14Y12640   3.146   2.375   6.245  1.6785  0.8450  0.0697
  119SOPE  C31512641   3.161   2.351   6.031  0.2948 -0.9130  0.4105
  119SOPE  H15X12642   3.053   2.371   6.014  1.2333  3.2034 -2.3186
  119SOPE  H15Y12643   3.197   2.293   5.943 -0.3295  1.9712 -1.8865
  119SOPE  C31612644   3.228   2.488   6.013 -0.6224 -0.3599 -0.1744
  119SOPE  H16X12645   3.337   2.471   6.027  0.0439  0.3236 -3.6476
  119SOPE  H16Y12646   3.193   2.551   6.098  0.2050 -1.2628  0.8669
  119SOPE  C31712647   3.199   2.565   5.884 -0.5227  0.5702  0.1693
  119SOPE  H17X12648   3.092   2.593   5.878 -1.6072 -3.1754 -1.0199
  119SOPE  H17Y12649   3.228   2.500   5.798 -0.0662  0.7012  0.2206
  119SOPE  C31812650   3.287   2.696   5.865  0.1621  0.2405 -0.4634
  119SOPE  H18X12651   3.244   2.759   5.784  0.3169  0.4660 -0.3704
  119SOPE  H18Y12652   3.395   2.669   5.861  0.8684  2.8354 -0.9356
  119SOPE  H18Z12653   3.281   2.768   5.949 -0.8604  1.4584 -1.5301
  120SOPE     N12654   2.389   0.526   7.271 -0.3646  0.2349 -0.1912
  120SOPE   HN112655   2.294   0.493   7.244  0.6463 -0.2180 -3.6515
  120SOPE   HN212656   2.408   0.494   7.368 -2.7500 -2.4088 -0.4763
  120SOPE   HN312657   2.384   0.630   7.263  0.5161  0.3075  0.0509
  120SOPE   C1212658   2.484   0.461   7.176 -0.0832 -0.0255  0.0579
  120SOPE  H12A12659   2.470   0.504   7.074 -0.8348 -0.9366 -0.2291
  120SOPE  H12B12660   2.451   0.355   7.168 -0.0134 -0.0593  0.2168
  120SOPE   C1112661   2.629   0.487   7.220  1.1364  0.5241  0.0617
  120SOPE  H11A12662   2.650   0.594   7.197 -2.1074  0.7310 -2.8504
  120SOPE  H11B12663   2.691   0.424   7.153  2.2228  1.4882  0.1147
  120SOPE     P12664   2.763   0.372   7.413  0.3113  0.1856  0.2523
  120SOPE   O1312665   2.721   0.230   7.432  0.1585  0.5158 -0.1367
  120SOPE   O1412666   2.823   0.441   7.532 -0.1024  0.3331 -0.2172
  120SOPE   O1212667   2.646   0.464   7.360 -0.0371  0.0299  0.7280
  120SOPE   O1112668   2.886   0.379   7.310  0.3842 -0.4820 -0.7136
  120SOPE    C112669   2.915   0.272   7.225  0.0194  0.6828 -0.0386
  120SOPE    HA12670   2.826   0.221   7.181  0.6747 -1.1004  0.6073
  120SOPE    HB12671   2.966   0.188   7.278  0.5376  1.2610  0.3904
  120SOPE    C212672   3.004   0.330   7.114 -0.6989  0.4757 -0.2523
  120SOPE    HS12673   3.040   0.244   7.053  1.6446  0.8167  0.5158
  120SOPE   O2112674   3.123   0.392   7.159 -0.4242  0.5342 -0.2552
  120SOPE   C2112675   3.184   0.364   7.269 -0.1130  0.2234 -0.2088
  120SOPE   O2212676   3.165   0.272   7.347 -0.3379 -0.4476  0.0052
  120SOPE   C2212677   3.309   0.448   7.271 -0.8732 -0.2735 -0.3123
  120SOPE   H2R12678   3.353   0.424   7.370 -0.3788 -2.5686 -1.0276
  120SOPE   H2S12679   3.269   0.552   7.267 -1.2884 -0.3852  0.6764
  120SOPE    C312680   2.927   0.427   7.021 -0.2111  0.1540 -0.2771
  120SOPE    HX12681   2.901   0.519   7.078 -1.7870 -0.3904 -0.0650
  120SOPE    HY12682   2.831   0.380   6.990  0.6622 -0.3268 -2.4292
  120SOPE   O3112683   3.005   0.461   6.905  0.5179  0.1200  0.3740
  120SOPE   C3112684   2.943   0.550   6.816  1.0191 -0.6470  0.8020
  120SOPE   O3212685   2.839   0.611   6.839  0.0082  0.3021 -0.0421
  120SOPE   C3212686   3.020   0.548   6.689 -0.0740  0.1098  0.1157
  120SOPE   H2X12687   3.038   0.441   6.662  1.3045  0.2266  0.4939
  120SOPE   H2Y12688   3.116   0.601   6.705  0.4332 -1.0958  1.2918
  120SOPE   C2312689   3.420   0.411   7.173  0.4603 -0.0471  0.2444
  120SOPE   H3R12690   3.444   0.305   7.154 -1.2368 -0.6252  1.0600
  120SOPE   H3S12691   3.508   0.471   7.204 -0.0519  1.1369 -0.4926
  120SOPE   C2412692   3.390   0.460   7.025  0.6804  0.2154 -0.3358
  120SOPE   H4R12693   3.304   0.404   6.981  1.8066 -1.2765 -0.7129
  120SOPE   H4S12694   3.361   0.567   7.037  0.7573  0.4099 -1.6694
  120SOPE   C2512695   3.505   0.450   6.922  0.0167 -0.7481 -1.2076
  120SOPE   H5R12696   3.592   0.504   6.965 -0.2527 -1.0554 -0.2383
  120SOPE   H5S12697   3.542   0.345   6.918 -0.5719 -1.2698  2.6312
  120SOPE   C2612698   3.472   0.504   6.783  0.5560 -0.6815 -0.7267
  120SOPE   H6R12699   3.382   0.451   6.746 -0.1265 -0.0032 -0.0539
  120SOPE   H6S12700   3.451   0.613   6.779 -1.5847 -1.0837 -2.9528
  120SOPE   C2712701   3.592   0.480   6.686  0.3780 -0.0735 -0.0575
  120SOPE   H7R12702   3.688   0.490   6.740  0.8983 -1.4827 -0.6606
  120SOPE   H7S12703   3.578   0.377   6.647 -0.1588 -0.0801  0.1441
  120SOPE   C2812704   3.593   0.589   6.570 -0.2063  0.4115  0.4784
  120SOPE   H8R12705   3.642   0.675   6.620 -1.1225  1.1652  0.1206
  120SOPE   H8S12706   3.661   0.564   6.486  0.5959  2.5972  0.3995
  120SOPE   C2912707   3.458   0.626   6.507 -0.5173 -0.7559 -0.6249
  120SOPE   H9112708   3.413   0.713   6.556  1.7373  0.3268 -0.3330
  120SOPE  C21012709   3.402   0.594   6.390 -0.7749  0.9058  0.5014
  120SOPE  H10112710   3.299   0.626   6.368 -0.8478 -0.6119 -1.6802
  120SOPE  C21112711   3.453   0.476   6.303 -0.1685 -0.4011 -0.3076
  120SOPE  H11R12712   3.366   0.425   6.257 -1.9854  3.2699 -1.2948
  120SOPE  H11S12713   3.494   0.395   6.367 -4.2360 -1.5197  1.2091
  120SOPE  C21212714   3.555   0.516   6.189  0.0029 -0.2122 -0.7143
  120SOPE  H12R12715   3.569   0.417   6.141 -2.8913 -1.9957  1.7208
  120SOPE  H12S12716   3.656   0.539   6.227 -0.2597 -0.0924 -0.0588
  120SOPE  C21312717   3.507   0.629   6.099 -1.0876  0.4981  0.1262
  120SOPE  H13R12718   3.493   0.720   6.162  0.4039  0.1209  1.0664
  120SOPE  H13S12719   3.411   0.603   6.050 -0.8030 -0.7265  0.1980
  120SOPE  C21412720   3.607   0.649   5.982  0.3626 -0.0750  0.8527
  120SOPE  H14R12721   3.586   0.573   5.903  0.0794 -1.0210  1.8061
  120SOPE  H14S12722   3.708   0.627   6.023  0.1265 -0.6756  1.1201
  120SOPE  C21512723   3.610   0.789   5.918  0.9222 -0.0483 -0.6346
  120SOPE  H15R12724   3.707   0.838   5.895  0.5103  1.1129 -0.0039
  120SOPE  H15S12725   3.566   0.864   5.988 -0.6866 -0.5794 -1.0570
  120SOPE  C21612726   3.524   0.794   5.795 -0.3344 -0.0738  0.8396
  120SOPE  H16R12727   3.555   0.711   5.728 -0.1856 -0.0166  0.8368
  120SOPE  H16S12728   3.537   0.892   5.745  0.1388 -0.7146 -0.3377
  120SOPE  C21712729   3.370   0.766   5.816 -0.3062  0.0601  0.2184
  120SOPE  H17R12730   3.329   0.850   5.876  0.1840 -0.3368  1.1191
  120SOPE  H17S12731   3.356   0.675   5.878  0.2433  1.1575  2.0109
  120SOPE  C21812732   3.304   0.759   5.677 -0.0365  0.5987  0.3318
  120SOPE  H18R12733   3.283   0.859   5.634 -3.8605  0.0039  0.5197
  120SOPE  H18S12734   3.203   0.715   5.689  0.9995 -1.5978  1.7640
  120SOPE  H18T12735   3.361   0.695   5.606 -0.7497 -1.2724  1.3622
  120SOPE   C3312736   2.942   0.613   6.565 -0.5209  0.0424  0.0773
  120SOPE   H3X12737   2.927   0.720   6.591 -0.6767 -0.5076  2.5159
  120SOPE   H3Y12738   2.846   0.561   6.542 -0.7310  1.9782 -4.2504
  120SOPE   C3412739   3.032   0.603   6.436 -0.2532  0.4504 -0.5760
  120SOPE   H4X12740   3.068   0.499   6.415  1.5570  0.6519  1.1823
  120SOPE   H4Y12741   3.125   0.659   6.459  0.0302 -1.0256  2.3676
  120SOPE   C3512742   2.964   0.626   6.301 -0.1131 -0.1553 -0.2945
  120SOPE   H5X12743   2.951   0.736   6.294  0.7244  0.0330  0.8325
  120SOPE   H5Y12744   2.858   0.592   6.308 -0.3696  0.8508  1.2156
  120SOPE   C3612745   3.045   0.583   6.177 -0.2301 -0.2719  0.5542
  120SOPE   H6X12746   3.077   0.477   6.189 -0.9298 -0.3203  2.2222
  120SOPE   H6Y12747   3.137   0.646   6.167 -0.2108 -0.3479  0.2358
  120SOPE   C3712748   2.967   0.599   6.051  0.1342 -0.5980 -0.2028
  120SOPE   H7X12749   2.874   0.539   6.064 -1.1125  1.2576 -0.1085
  120SOPE   H7Y12750   3.014   0.547   5.965  0.0846  0.4762 -0.9005
  120SOPE   C3812751   2.931   0.746   6.010 -0.5200  0.2740 -0.6766
  120SOPE   H8X12752   2.865   0.782   6.091  3.1342  0.0653  2.6802
  120SOPE   H8Y12753   2.869   0.737   5.918  0.8221  0.8826 -1.6949
  120SOPE   C3912754   3.042   0.842   5.986  0.1963 -0.6528 -0.4782
  120SOPE   H9X12755   3.098   0.778   5.915  1.4047 -0.8527  0.6258
  120SOPE   H9Y12756   3.101   0.865   6.076 -0.4447  0.0885 -0.2337
  120SOPE  C31012757   2.993   0.978   5.929 -0.1411  0.0382  0.6197
  120SOPE  H10X12758   2.957   1.054   6.002 -0.8527  2.0263 -1.6801
  120SOPE  H10Y12759   2.896   0.952   5.882 -0.5362  1.0947  0.8458
  120SOPE  C31112760   3.091   1.042   5.830  0.1787 -0.4525  0.4433
  120SOPE  H11X12761   3.129   0.972   5.753  1.0029  0.6041 -0.1429
  120SOPE  H11Y12762   3.183   1.069   5.886  1.9985  0.9346 -2.8931
  120SOPE  C31212763   3.026   1.162   5.761  0.3341 -0.6546  0.3549
  120SOPE  H12X12764   3.113   1.226   5.733  1.6884 -1.2257  2.9870
  120SOPE  H12Y12765   2.966   1.219   5.835  1.0939 -0.2260  0.6534
  120SOPE  C31312766   2.929   1.126   5.638  0.3561 -0.5507 -0.2130
  120SOPE  H13X12767   2.864   1.038   5.653 -0.9231  0.6018  1.3154
  120SOPE  H13Y12768   2.990   1.117   5.545  0.5529 -0.9099 -0.0464
  120SOPE  C31412769   2.833   1.248   5.614  0.3025 -0.3324  0.3553
  120SOPE  H14X12770   2.908   1.322   5.579 -0.3544  0.1974  0.0644
  120SOPE  H14Y12771   2.784   1.275   5.710  0.2275 -0.2485  0.2929
  120SOPE  C31512772   2.732   1.229   5.506  0.6328 -0.5324  0.4314
  120SOPE  H15X12773   2.780   1.201   5.410  0.4811 -0.6063  0.3763
  120SOPE  H15Y12774   2.681   1.327   5.499  0.7920 -0.1033  3.6741
  120SOPE  C31612775   2.626   1.133   5.544 -0.3264  0.3276 -0.1205
  120SOPE  H16X12776   2.611   1.159   5.651 -0.4475 -0.0794 -0.0386
  120SOPE  H16Y12777   2.673   1.032   5.546  0.3559  0.5840 -1.8382
  120SOPE  C31712778   2.502   1.119   5.457 -0.2642 -0.2479 -0.7822
  120SOPE  H17X12779   2.460   1.222   5.450  1.5624  0.6954  0.9511
  120SOPE  H17Y12780   2.426   1.053   5.503  1.1225 -0.4109  1.4196
  120SOPE  C31812781   2.534   1.072   5.312 -0.5584 -0.2439 -0.9962
  120SOPE  H18X12782   2.442   1.064   5.250 -0.6607  0.1941 -0.9012
  120SOPE  H18Y12783   2.576   0.969   5.317 -0.9516 -0.5152 -2.8185
  120SOPE  H18Z12784   2.598   1.150   5.265 -1.8175  0.4621 -1.5866
  121SOPE     N12785   4.719   2.053   8.722  0.1625  0.9636 -0.5712
  121SOPE   HN112786   4.682   2.086   8.630  2.0995  1.5579 -1.1959
  121SOPE   HN212787   4.696   1.953   8.740 -0.8958  1.3647  0.4152
  121SOPE   HN312788   4.689   2.112   8.802 -1.1750 -0.2386 -0.1471
  121SOPE   C1212789   4.868   2.079   8.724 -0.0647  0.5166  0.4760
  121SOPE  H12A12790   4.919   2.040   8.633  2.2247  0.9926  1.4874
  121SOPE  H12B12791   4.911   2.033   8.815  0.2616  0.3920  0.2611
  121SOPE   C1112792   4.892   2.229   8.750 -0.1793  0.2740 -0.8180
  121SOPE  H11A12793   5.000   2.255   8.754  0.2310 -1.3177 -0.8675
  121SOPE  H11B12794   4.868   2.257   8.855  2.7803 -1.8350  0.5541
  121SOPE     P12795   4.753   2.447   8.686 -0.3766  0.3081 -0.3527
  121SOPE   O1312796   4.830   2.528   8.784  0.4366 -0.0431 -0.2955
  121SOPE   O1412797   4.613   2.411   8.714  0.5785  0.1218 -0.3504
  121SOPE   O1212798   4.841   2.319   8.654 -0.3533 -0.2056 -0.1141
  121SOPE   O1112799   4.748   2.527   8.550 -0.6959 -0.5522 -0.1451
  121SOPE    C112800   4.868   2.579   8.491 -0.2593  0.1852 -0.1417
  121SOPE    HA12801   4.953   2.514   8.520  1.3832  3.0102  1.9086
  121SOPE    HB12802   4.893   2.681   8.529  0.1089 -0.0482  0.2574
  121SOPE    C212803   4.849   2.577   8.334  0.6858  0.4266  0.0102
  121SOPE    HS12804   4.945   2.601   8.284  0.9629 -1.5886 -0.4894
  121SOPE   O2112805   4.746   2.670   8.290 -0.1557 -0.4732  0.4687
  121SOPE   C2112806   4.778   2.794   8.287 -0.6651  0.5973  0.2344
  121SOPE   O2212807   4.890   2.842   8.312  0.0005 -0.2300  0.1695
  121SOPE   C2212808   4.663   2.884   8.248  0.1324  0.7019  0.6693
  121SOPE   H2R12809   4.662   2.944   8.341 -0.5555  1.3873  0.2311
  121SOPE   H2S12810   4.570   2.823   8.242  0.1066  0.5913  1.8892
  121SOPE    C312811   4.805   2.429   8.299 -0.7900 -0.1224 -0.0290
  121SOPE    HX12812   4.721   2.405   8.368 -0.8514  1.3613  0.4342
  121SOPE    HY12813   4.879   2.347   8.314  1.1746  1.6942  0.7173
  121SOPE   O3112814   4.744   2.430   8.169  0.3627 -0.3491 -0.2576
  121SOPE   C3112815   4.829   2.408   8.073  0.3036 -0.2591 -0.3394
  121SOPE   O3212816   4.944   2.380   8.092 -0.4852 -0.5852  0.7615
  121SOPE   C3212817   4.769   2.444   7.940  0.7803 -0.1595  0.8259
  121SOPE   H2X12818   4.769   2.554   7.927  0.1354 -0.3089 -0.5972
  121SOPE   H2Y12819   4.662   2.414   7.940  0.4159  0.9798 -1.2480
  121SOPE   C2312820   4.693   2.955   8.116 -0.7895  0.4960  0.4841
  121SOPE   H3R12821   4.787   3.014   8.114  0.5155 -1.5096 -1.0201
  121SOPE   H3S12822   4.622   3.039   8.095 -0.5141  0.5994 -0.0600
  121SOPE   C2412823   4.706   2.863   7.992 -0.0724  0.4585 -0.4910
  121SOPE   H4R12824   4.807   2.818   7.991 -0.7825 -1.1987 -1.3971
  121SOPE   H4S12825   4.631   2.783   8.011 -1.1298  1.9941  2.4614
  121SOPE   C2512826   4.685   2.950   7.868 -0.0277  0.4298  0.0738
  121SOPE   H5R12827   4.579   2.982   7.875 -0.6685 -1.7407  1.1895
  121SOPE   H5S12828   4.763   3.029   7.867 -0.0985  0.4988 -0.0014
  121SOPE   C2612829   4.701   2.864   7.740 -0.5583 -0.4941 -0.3303
  121SOPE   H6R12830   4.805   2.848   7.705  1.1401  4.7143  1.2977
  121SOPE   H6S12831   4.644   2.771   7.763  0.3885 -1.1004 -0.3828
  121SOPE   C2712832   4.619   2.930   7.624 -0.5602 -0.1511 -0.2478
  121SOPE   H7R12833   4.514   2.913   7.656 -0.4057  1.1453  1.0266
  121SOPE   H7S12834   4.640   3.036   7.599  1.8058 -0.9659 -2.1001
  121SOPE   C2812835   4.656   2.851   7.496  0.7280  0.2732  0.3289
  121SOPE   H8R12836   4.651   2.741   7.516  2.1034  0.2685  0.8001
  121SOPE   H8S12837   4.568   2.874   7.432 -0.6839 -0.0196  2.0944
  121SOPE   C2912838   4.779   2.892   7.427  0.2015  0.3917  0.8612
  121SOPE   H9112839   4.866   2.866   7.489  0.7954 -0.3697 -0.2506
  121SOPE  C21012840   4.801   2.947   7.306 -0.0126 -0.1693  0.3014
  121SOPE  H10112841   4.903   2.977   7.278  0.0562  0.2443  0.9551
  121SOPE  C21112842   4.708   2.978   7.198  0.2635  0.1198 -0.2693
  121SOPE  H11R12843   4.612   3.024   7.231  0.1649  0.5188 -1.1013
  121SOPE  H11S12844   4.670   2.891   7.141 -0.8104  1.6697 -2.0524
  121SOPE  C21212845   4.758   3.075   7.088 -0.5792 -0.1169  0.4447
  121SOPE  H12R12846   4.828   3.022   7.020  0.0313  0.7453  0.3898
  121SOPE  H12S12847   4.809   3.167   7.125 -1.2043  0.4859 -0.1848
  121SOPE  C21312848   4.642   3.118   7.000  0.4443  0.3278  0.6197
  121SOPE  H13R12849   4.555   3.163   7.052  0.2651 -0.5235  1.0610
  121SOPE  H13S12850   4.608   3.033   6.937  0.5704  2.0497 -1.9172
  121SOPE  C21412851   4.692   3.234   6.906 -0.1577 -0.0564  0.0958
  121SOPE  H14R12852   4.778   3.196   6.847 -1.3724  1.7691 -3.1400
  121SOPE  H14S12853   4.720   3.320   6.970  2.3615 -1.1342  0.5535
  121SOPE  C21512854   4.585   3.275   6.805 -0.2750 -0.4435  0.2575
  121SOPE  H15R12855   4.489   3.306   6.851  0.4734 -0.6649  2.0710
  121SOPE  H15S12856   4.551   3.190   6.741 -0.2125  0.2441 -0.7190
  121SOPE  C21612857   4.641   3.389   6.725 -0.2407  0.9042 -0.1635
  121SOPE  H16R12858   4.715   3.345   6.656  1.5728  0.7417  1.7784
  121SOPE  H16S12859   4.681   3.468   6.792  2.1295 -0.3199 -0.0408
  121SOPE  C21712860   4.539   3.459   6.639  0.3472 -0.1596 -0.0776
  121SOPE  H17R12861   4.483   3.539   6.693 -0.2469 -0.7328  0.1784
  121SOPE  H17S12862   4.461   3.389   6.602 -0.1658  0.5679 -0.4031
  121SOPE  C21812863   4.611   3.525   6.520  0.1108 -0.3367  0.1897
  121SOPE  H18R12864   4.538   3.577   6.455 -0.5570  1.7878  2.4685
  121SOPE  H18S12865   4.661   3.448   6.456  0.3154  1.2280 -1.6346
  121SOPE  H18T12866   4.693   3.590   6.558 -1.4779  1.4933  0.6323
  121SOPE   C3312867   4.840   2.376   7.823 -0.5443 -0.1503  0.2092
  121SOPE   H3X12868   4.856   2.270   7.851  0.2353  0.1306  0.8697
  121SOPE   H3Y12869   4.932   2.434   7.800  0.1342 -1.6380 -0.9408
  121SOPE   C3412870   4.760   2.393   7.691  0.7358  0.1831  1.0094
  121SOPE   H4X12871   4.731   2.495   7.655 -1.8476 -1.2429 -1.3372
  121SOPE   H4Y12872   4.662   2.345   7.714  1.7506 -1.7247  1.5480
  121SOPE   C3512873   4.810   2.325   7.567  0.0991 -0.3710  0.0534
  121SOPE   H5X12874   4.821   2.217   7.588 -1.0172 -0.5917 -0.4224
  121SOPE   H5Y12875   4.900   2.385   7.539 -1.3436  1.6184 -0.5747
  121SOPE   C3612876   4.707   2.351   7.460  0.0699  0.0115 -0.1719
  121SOPE   H6X12877   4.719   2.451   7.414 -0.5639 -0.0108 -0.3929
  121SOPE   H6Y12878   4.605   2.337   7.503 -0.0220 -0.6178 -0.5909
  121SOPE   C3712879   4.729   2.248   7.345  0.0056 -0.3948 -0.3405
  121SOPE   H7X12880   4.741   2.141   7.374  0.8951 -0.2914 -0.2945
  121SOPE   H7Y12881   4.826   2.276   7.299 -0.9098  0.5105 -1.7810
  121SOPE   C3812882   4.616   2.254   7.238 -0.3233 -0.2003 -0.0411
  121SOPE   H8X12883   4.611   2.363   7.217 -1.0024 -0.5847 -2.1462
  121SOPE   H8Y12884   4.526   2.226   7.296 -1.3754  1.7583 -0.6507
  121SOPE   C3912885   4.636   2.177   7.107 -1.3317 -1.1086 -0.5338
  121SOPE   H9X12886   4.615   2.068   7.117  0.7839 -1.5950 -1.0318
  121SOPE   H9Y12887   4.741   2.195   7.079 -1.4907  0.9171  0.0427
  121SOPE  C31012888   4.540   2.231   7.001 -0.1538  0.3119 -0.0080
  121SOPE  H10X12889   4.571   2.337   6.991  1.9146 -0.2997 -0.4178
  121SOPE  H10Y12890   4.437   2.233   7.043 -0.2936 -1.3980 -0.1988
  121SOPE  C31112891   4.557   2.165   6.866  0.0147  0.2597  0.1975
  121SOPE  H11X12892   4.557   2.055   6.878 -1.8102 -0.1346 -2.4283
  121SOPE  H11Y12893   4.653   2.206   6.829  0.5135 -0.6102  0.5229
  121SOPE  C31212894   4.457   2.216   6.756 -0.1691 -0.4976  0.5247
  121SOPE  H12X12895   4.450   2.326   6.756  0.9921 -0.4047 -0.1793
  121SOPE  H12Y12896   4.354   2.180   6.776 -0.3823 -1.2271 -1.6374
  121SOPE  C31312897   4.495   2.170   6.613  0.1416  0.1474  0.3430
  121SOPE  H13X12898   4.492   2.064   6.582  0.8840  0.7762 -2.1442
  121SOPE  H13Y12899   4.605   2.182   6.602  0.2518 -1.5702 -0.8107
  121SOPE  C31412900   4.413   2.246   6.497 -0.6780  0.4990 -0.1403
  121SOPE  H14X12901   4.416   2.357   6.508  4.6503  0.3883  3.0273
  121SOPE  H14Y12902   4.311   2.208   6.514  0.1476 -1.0896  1.6263
  121SOPE  C31512903   4.456   2.199   6.358  0.2409  0.2945  0.3652
  121SOPE  H15X12904   4.442   2.089   6.347 -1.4073  0.4015  1.1315
  121SOPE  H15Y12905   4.561   2.231   6.344 -0.3551  1.8452 -1.0059
  121SOPE  C31612906   4.385   2.267   6.237  0.7861 -0.1392  0.1234
  121SOPE  H16X12907   4.276   2.282   6.254  0.7471 -1.3052  1.0814
  121SOPE  H16Y12908   4.403   2.205   6.147  0.4110  1.2343 -0.9129
  121SOPE  C31712909   4.452   2.399   6.192  0.0749 -0.3513  0.2953
  121SOPE  H17X12910   4.559   2.373   6.179  0.9739  3.7885 -2.6163
  121SOPE  H17Y12911   4.455   2.471   6.276  4.0887  1.3456 -1.0643
  121SOPE  C31812912   4.393   2.459   6.063  0.2301  0.0880 -0.0126
  121SOPE  H18X12913   4.288   2.477   6.097 -0.0348  1.4664 -1.4685
  121SOPE  H18Y12914   4.390   2.397   5.971 -0.0594 -1.1634  0.8145
  121SOPE  H18Z12915   4.434   2.561   6.047  1.1401 -0.6100 -2.6105
  122SOPE     N12916   2.951   4.406   8.196  0.1943  0.4437  0.2610
  122SOPE   HN112917   2.927   4.412   8.297 -1.7657  1.0997 -0.1917
  122SOPE   HN212918   3.031   4.466   8.170  0.6396  0.2019  1.0511
  122SOPE   HN312919   2.871   4.431   8.133 -0.0166  0.9564  0.7304
  122SOPE   C1212920   2.966   4.262   8.149  0.5468  0.0525  0.7780
  122SOPE  H12A12921   3.003   4.251   8.045 -2.6205 -1.9714 -0.2953
  122SOPE  H12B12922   2.871   4.208   8.127 -0.1206  1.7684 -0.8990
  122SOPE   C1112923   3.068   4.189   8.245  0.7940  0.6845  0.4069
  122SOPE  H11A12924   3.154   4.256   8.265  0.0597  1.2131  1.9417
  122SOPE  H11B12925   3.112   4.106   8.186 -0.3939  0.9550 -0.9126
  122SOPE     P12926   3.030   4.199   8.496 -0.3648  0.0319 -0.0840
  122SOPE   O1312927   2.969   4.120   8.604 -0.1739 -0.7091 -0.0463
  122SOPE   O1412928   2.986   4.336   8.466 -0.1901 -0.1418 -0.5797
  122SOPE   O1212929   2.994   4.127   8.359 -0.9372 -0.0939 -0.1078
  122SOPE   O1112930   3.182   4.189   8.513 -0.6090 -0.5526  0.5444
  122SOPE    C112931   3.255   4.067   8.539  0.1575  0.1955 -0.0587
  122SOPE    HA12932   3.200   3.977   8.505 -2.1426  1.8416 -0.9104
  122SOPE    HB12933   3.285   4.061   8.646  0.9799  2.4356 -0.1129
  122SOPE    C212934   3.390   4.069   8.478 -0.1481  0.9090 -0.7309
  122SOPE    HS12935   3.457   4.140   8.531  0.7207  1.1437 -2.0933
  122SOPE   O2112936   3.373   4.095   8.341  0.0164 -0.4405  0.6494
  122SOPE   C2112937   3.474   4.149   8.272  0.3710 -0.3441 -0.2189
  122SOPE   O2212938   3.567   4.212   8.328  0.5137  0.0138 -0.2790
  122SOPE   C2212939   3.456   4.150   8.124  0.1657  0.1007 -0.3807
  122SOPE   H2R12940   3.380   4.225   8.093  1.4261  1.8117  0.4766
  122SOPE   H2S12941   3.425   4.048   8.093 -2.1054  0.5044  0.4161
  122SOPE    C312942   3.453   3.925   8.486  0.0804 -0.4016  0.0618
  122SOPE    HX12943   3.384   3.854   8.436  0.8088 -0.9782 -0.1429
  122SOPE    HY12944   3.468   3.892   8.591  1.6316  1.5951  0.5553
  122SOPE   O3112945   3.585   3.923   8.417  0.0894  0.2306 -0.5842
  122SOPE   C3112946   3.688   3.946   8.493 -0.1105  1.0819 -0.8912
  122SOPE   O3212947   3.685   3.968   8.614  0.2587  0.3057  0.1962
  122SOPE   C3212948   3.817   3.936   8.404  0.8624 -0.1406 -0.1988
  122SOPE   H2X12949   3.888   3.903   8.482 -0.4217  0.8711  1.4624
  122SOPE   H2Y12950   3.848   4.040   8.377 -0.1326  0.3440  0.4736
  122SOPE   C2312951   3.594   4.190   8.051 -0.2330  0.6188  0.3113
  122SOPE   H3R12952   3.675   4.127   8.093 -0.4370 -0.4352 -0.8358
  122SOPE   H3S12953   3.628   4.295   8.062  1.5796  0.3472 -1.9264
  122SOPE   C2412954   3.590   4.162   7.903  0.0395 -0.0504  0.2983
  122SOPE   H4R12955   3.684   4.187   7.849 -1.8921 -1.9492 -4.5791
  122SOPE   H4S12956   3.572   4.054   7.881  0.7410 -0.1771  0.3346
  122SOPE   C2512957   3.478   4.247   7.819  0.2346 -0.1561 -0.1330
  122SOPE   H5R12958   3.380   4.228   7.868 -0.0120 -0.2939 -0.6650
  122SOPE   H5S12959   3.497   4.356   7.833  2.6535 -0.6452  0.8231
  122SOPE   C2612960   3.465   4.218   7.674  0.4648  0.3540  0.2262
  122SOPE   H6R12961   3.567   4.207   7.631  0.6395  1.7629  0.2196
  122SOPE   H6S12962   3.413   4.122   7.655 -0.7315  1.0631 -0.2307
  122SOPE   C2712963   3.389   4.334   7.600 -0.8946 -0.0521 -0.0474
  122SOPE   H7R12964   3.298   4.351   7.661  0.4476 -0.1485  2.0933
  122SOPE   H7S12965   3.451   4.425   7.590 -0.1243 -0.3218  1.8788
  122SOPE   C2812966   3.352   4.290   7.459  0.2764 -0.4541  0.1054
  122SOPE   H8R12967   3.437   4.250   7.400  1.1021 -1.4796  1.9182
  122SOPE   H8S12968   3.292   4.197   7.468 -1.2374  0.3836 -0.7656
  122SOPE   C2912969   3.264   4.397   7.382  0.0233 -0.0370  0.0167
  122SOPE   H9112970   3.179   4.443   7.434 -1.0249 -3.6109  1.8180
  122SOPE  C21012971   3.264   4.408   7.249 -0.4019  0.5858 -0.4641
  122SOPE  H10112972   3.208   4.482   7.190 -1.6499 -1.0350 -1.3866
  122SOPE  C21112973   3.350   4.328   7.156 -0.2018 -0.2457 -0.2155
  122SOPE  H11R12974   3.287   4.238   7.139 -1.4023  0.6249 -0.5200
  122SOPE  H11S12975   3.451   4.308   7.198 -0.3932  2.2884  1.7021
  122SOPE  C21212976   3.372   4.404   7.027  0.1754 -0.0394  0.5003
  122SOPE  H12R12977   3.436   4.493   7.047  0.4772 -0.7937  3.2888
  122SOPE  H12S12978   3.274   4.447   6.996  0.6809 -0.5723 -2.0996
  122SOPE  C21312979   3.426   4.309   6.920  0.3564  0.3886 -0.4076
  122SOPE  H13R12980   3.353   4.225   6.919  1.7286 -0.8455 -0.4717
  122SOPE  H13S12981   3.524   4.273   6.956  0.5441 -1.5131 -2.5485
  122SOPE  C21412982   3.425   4.371   6.775  0.6209 -0.1094 -0.3619
  122SOPE  H14R12983   3.466   4.474   6.790 -0.4436  0.0728  1.7779
  122SOPE  H14S12984   3.318   4.376   6.744 -0.5923  1.5850  3.4684
  122SOPE  C21512985   3.513   4.297   6.673 -0.6971  0.1650  0.2441
  122SOPE  H15R12986   3.485   4.190   6.675 -0.8126  0.0592 -2.6169
  122SOPE  H15S12987   3.621   4.305   6.698 -0.5329 -1.6353  0.2358
  122SOPE  C21612988   3.497   4.362   6.538  0.3400  0.1990  0.9093
  122SOPE  H16R12989   3.542   4.463   6.525 -2.0853  1.5063  1.8650
  122SOPE  H16S12990   3.389   4.373   6.515  0.8776  0.8528 -1.5107
  122SOPE  C21712991   3.564   4.273   6.432 -0.1290  0.4594  0.2991
  122SOPE  H17R12992   3.511   4.176   6.419  0.4417  0.0522  0.9284
  122SOPE  H17S12993   3.666   4.249   6.467  0.9335  1.2301 -2.0580
  122SOPE  C21812994   3.588   4.343   6.298  0.3664 -0.0073  0.0828
  122SOPE  H18R12995   3.653   4.428   6.327 -0.4212  0.5331  0.2972
  122SOPE  H18S12996   3.494   4.389   6.260 -0.1880  0.3981  1.8708
  122SOPE  H18T12997   3.633   4.276   6.222 -0.4585  0.0971 -0.5145
  122SOPE   C3312998   3.802   3.848   8.279 -1.4007 -0.7550  0.4408
  122SOPE   H3X12999   3.717   3.862   8.210 -0.7781 -1.9511 -0.6094
  122SOPE   H3Y13000   3.808   3.743   8.316  0.8254 -0.1766  1.9922
  122SOPE   C3413001   3.932   3.873   8.190 -0.0498 -0.0347  0.8803
  122SOPE   H4X13002   4.019   3.836   8.248  0.1584 -0.1877  0.4747
  122SOPE   H4Y13003   3.957   3.980   8.178  0.5961 -0.2797 -0.0704
  122SOPE   C3513004   3.921   3.814   8.047 -0.1304  0.0534  0.1938
  122SOPE   H5X13005   3.852   3.871   7.980  1.5254  2.3969  0.3265
  122SOPE   H5Y13006   3.879   3.713   8.063 -2.1986  0.8298 -0.0044
  122SOPE   C3613007   4.058   3.810   7.976  0.1187 -0.0387 -0.2995
  122SOPE   H6X13008   4.120   3.740   8.035 -0.3092  0.1865  0.4250
  122SOPE   H6Y13009   4.110   3.906   7.997  1.0178 -0.4687 -0.5344
  122SOPE   C3713010   4.047   3.770   7.833  0.3327 -0.1300 -0.2464
  122SOPE   H7X13011   3.989   3.836   7.765  2.3062 -1.5751 -3.5856
  122SOPE   H7Y13012   3.988   3.677   7.849  1.0180 -0.4368  0.5341
  122SOPE   C3813013   4.178   3.733   7.755 -0.6168  0.7453  0.8816
  122SOPE   H8X13014   4.242   3.675   7.825  1.5267  0.8877 -0.8632
  122SOPE   H8Y13015   4.244   3.818   7.727  0.8367 -1.2836 -2.3449
  122SOPE   C3913016   4.162   3.642   7.630 -0.2759  0.3360  0.1706
  122SOPE   H9X13017   4.261   3.607   7.595 -0.7457 -2.3735  1.2890
  122SOPE   H9Y13018   4.117   3.708   7.553  0.6249  1.1538  0.3280
  122SOPE  C31013019   4.067   3.527   7.654  1.0094  0.2978 -0.6244
  122SOPE  H10X13020   3.959   3.554   7.660 -0.2610 -2.6505 -5.1154
  122SOPE  H10Y13021   4.106   3.479   7.747 -0.4966 -0.6868 -0.4581
  122SOPE  C31113022   4.076   3.424   7.542  0.2698 -0.1531  0.4219
  122SOPE  H11X13023   4.004   3.341   7.562 -0.4638  0.4968  0.5621
  122SOPE  H11Y13024   4.179   3.384   7.538 -0.3879 -1.8719 -1.1588
  122SOPE  C31213025   4.045   3.475   7.399 -0.0108 -0.0543 -0.1679
  122SOPE  H12X13026   4.072   3.401   7.321 -1.6210 -1.3884  0.4867
  122SOPE  H12Y13027   4.122   3.554   7.383 -1.2016  1.6658  1.8997
  122SOPE  C31313028   3.915   3.553   7.379 -0.4516  0.2882 -0.0222
  122SOPE  H13X13029   3.928   3.660   7.406 -0.2454  0.1666  0.3683
  122SOPE  H13Y13030   3.847   3.505   7.453  0.9734 -0.8410  0.6244
  122SOPE  C31413031   3.852   3.542   7.238  0.4703 -0.1396 -0.0459
  122SOPE  H14X13032   3.757   3.599   7.235  1.1941  1.1656  0.7392
  122SOPE  H14Y13033   3.826   3.437   7.213 -1.1996  0.4189 -0.8369
  122SOPE  C31513034   3.932   3.595   7.113 -0.2542 -0.0755 -0.9636
  122SOPE  H15X13035   3.869   3.570   7.026 -1.1016  1.0605 -0.6974
  122SOPE  H15Y13036   4.027   3.538   7.103 -0.0913  0.0499 -0.2025
  122SOPE  C31613037   3.954   3.755   7.099 -0.0668  0.2382  0.3629
  122SOPE  H16X13038   4.014   3.790   7.186 -1.5222 -0.3939  1.6632
  122SOPE  H16Y13039   3.857   3.808   7.090  0.2375  0.7424 -0.0455
  122SOPE  C31713040   4.021   3.776   6.959 -0.3649  0.9018 -0.2753
  122SOPE  H17X13041   4.014   3.885   6.940 -1.9726  0.7888 -0.4268
  122SOPE  H17Y13042   3.960   3.718   6.887  0.6718  0.0327 -0.4886
  122SOPE  C31813043   4.168   3.729   6.950  0.0432 -0.4767  0.2544
  122SOPE  H18X13044   4.213   3.745   6.850  0.6077  0.6324  0.6712
  122SOPE  H18Y13045   4.187   3.621   6.971  2.9890  0.1218  1.0407
  122SOPE  H18Z13046   4.231   3.780   7.026 -0.9287  0.9874  0.1192
  123SOPE     N13047   4.650   5.563   3.264  0.2851 -0.1068 -0.2876
  123SOPE   HN113048   4.624   5.480   3.207  1.8579 -1.1414  0.4471
  123SOPE   HN213049   4.686   5.639   3.202 -2.6542  1.0528 -0.7341
  123SOPE   HN313050   4.731   5.526   3.317 -0.5809 -3.4815 -1.1165
  123SOPE   C1213051   4.542   5.624   3.349  0.2102 -0.1625 -0.7687
  123SOPE  H12A13052   4.449   5.638   3.290  0.4785  0.8379 -0.9721
  123SOPE  H12B13053   4.579   5.724   3.379 -2.5695  0.2833  1.6145
  123SOPE   C1113054   4.514   5.532   3.472  0.3002  0.5638  0.3211
  123SOPE  H11A13055   4.607   5.533   3.533  0.8308  0.0186 -0.4686
  123SOPE  H11B13056   4.489   5.427   3.448 -0.9931  1.2986 -1.9086
  123SOPE     P13057   4.441   5.703   3.655 -0.0117 -0.4885  0.1840
  123SOPE   O1313058   4.317   5.758   3.718 -0.1056  0.0188 -0.1428
  123SOPE   O1413059   4.547   5.797   3.614 -0.0004 -0.3443  0.2014
  123SOPE   O1213060   4.402   5.597   3.541  0.2065 -0.8563  0.4407
  123SOPE   O1113061   4.503   5.590   3.749  0.2002 -0.1779 -0.0399
  123SOPE    C113062   4.596   5.615   3.851  0.4137 -0.6481 -0.0546
  123SOPE    HA13063   4.639   5.717   3.857  0.2741 -0.6333  0.7766
  123SOPE    HB13064   4.679   5.541   3.847 -0.5708 -1.7697 -0.0748
  123SOPE    C213065   4.532   5.602   3.995  0.2147  0.1657 -0.5884
  123SOPE    HS13066   4.427   5.569   3.982  0.7176 -2.2762  0.9747
  123SOPE   O2113067   4.550   5.726   4.069  0.3357  0.2929  0.6082
  123SOPE   C2113068   4.465   5.751   4.156  0.1441 -0.4756  0.1175
  123SOPE   O2213069   4.355   5.702   4.183 -0.3652  0.2297  0.3193
  123SOPE   C2213070   4.521   5.869   4.242  0.0871 -0.2295  0.3011
  123SOPE   H2R13071   4.436   5.923   4.288 -0.0365 -0.5889  0.4948
  123SOPE   H2S13072   4.572   5.943   4.177  0.2229 -0.2515  0.3804
  123SOPE    C313073   4.592   5.481   4.075 -0.6865  0.2757  0.0958
  123SOPE    HX13074   4.698   5.502   4.100 -0.1041 -2.6833  0.4175
  123SOPE    HY13075   4.612   5.392   4.012  1.2329  0.4758  0.3772
  123SOPE   O3113076   4.517   5.454   4.198 -0.7312  0.7374  0.1829
  123SOPE   C3113077   4.420   5.366   4.170 -0.7114  0.2779 -0.4529
  123SOPE   O3213078   4.388   5.314   4.061 -0.2899 -0.3076 -0.5736
  123SOPE   C3213079   4.337   5.353   4.293 -0.1793  0.2119 -0.2200
  123SOPE   H2X13080   4.234   5.322   4.265 -0.4135  0.3452  0.4851
  123SOPE   H2Y13081   4.329   5.452   4.343  1.7776 -0.9608  2.6531
  123SOPE   C2313082   4.608   5.812   4.358  0.7474 -0.2869 -0.3551
  123SOPE   H3R13083   4.692   5.885   4.364 -0.0900  1.6799 -6.1376
  123SOPE   H3S13084   4.651   5.715   4.326  0.6721 -0.0117 -1.3275
  123SOPE   C2413085   4.531   5.823   4.495  0.6681  0.3946  0.0591
  123SOPE   H4R13086   4.493   5.926   4.514 -0.3701  0.2507 -1.0581
  123SOPE   H4S13087   4.440   5.759   4.505 -0.7642  2.3854  0.4792
  123SOPE   C2513088   4.629   5.792   4.609 -0.0268  0.0959 -0.4249
  123SOPE   H5R13089   4.651   5.687   4.579 -0.7591  0.4159 -2.1738
  123SOPE   H5S13090   4.725   5.848   4.603  0.4541 -0.5193  0.9738
  123SOPE   C2613091   4.556   5.810   4.743 -0.1501  0.8871 -0.0915
  123SOPE   H6R13092   4.516   5.913   4.733 -0.6263  0.6511 -0.7001
  123SOPE   H6S13093   4.469   5.741   4.741 -0.0274  0.5542  2.7876
  123SOPE   C2713094   4.642   5.795   4.866 -0.1558  0.5268  0.2836
  123SOPE   H7R13095   4.582   5.840   4.947 -0.5960 -1.7315  1.2874
  123SOPE   H7S13096   4.665   5.687   4.874  2.7404  0.7441 -2.7346
  123SOPE   C2813097   4.773   5.872   4.855 -0.0997 -0.0237 -0.7639
  123SOPE   H8R13098   4.843   5.802   4.804 -1.8019 -2.7031  0.3271
  123SOPE   H8S13099   4.739   5.954   4.789 -2.6592 -0.5719 -0.2637
  123SOPE   C2913100   4.828   5.895   4.989 -0.1273  0.2667 -0.3435
  123SOPE   H9113101   4.885   5.810   5.030  0.9430 -0.6168 -3.3811
  123SOPE  C21013102   4.820   6.010   5.052  1.1384 -0.5656 -0.6148
  123SOPE  H10113103   4.862   6.018   5.154 -2.1663  2.4641  0.7116
  123SOPE  C21113104   4.761   6.145   5.019  0.4694  0.2446 -0.2332
  123SOPE  H11R13105   4.706   6.142   4.923 -0.8295 -0.0054  0.4967
  123SOPE  H11S13106   4.840   6.223   5.008 -0.1080  0.5640 -2.5854
  123SOPE  C21213107   4.663   6.184   5.127 -0.1490 -0.6719 -0.0774
  123SOPE  H12R13108   4.587   6.105   5.142  0.2662 -0.6651  2.7725
  123SOPE  H12S13109   4.613   6.279   5.098  3.9789  2.7922  2.7212
  123SOPE  C21313110   4.725   6.213   5.264  0.7825 -0.1180 -0.1992
  123SOPE  H13R13111   4.824   6.257   5.240  2.1674 -2.2867  1.2265
  123SOPE  H13S13112   4.749   6.118   5.316  0.5118 -0.0079  0.1326
  123SOPE  C21413113   4.653   6.300   5.373 -0.2416 -0.0028  0.0045
  123SOPE  H14R13114   4.551   6.256   5.383 -0.2021 -0.5467 -1.6560
  123SOPE  H14S13115   4.647   6.404   5.335 -0.3631 -0.8048 -2.3522
  123SOPE  C21513116   4.734   6.284   5.497 -0.1513  0.4895  0.4172
  123SOPE  H15R13117   4.843   6.286   5.473  0.2349 -0.9639  1.8935
  123SOPE  H15S13118   4.723   6.182   5.539  1.6539 -0.3912 -1.0631
  123SOPE  C21613119   4.702   6.390   5.601 -0.2727 -0.2092 -0.0070
  123SOPE  H16R13120   4.595   6.410   5.622  0.1734  0.9392  1.3825
  123SOPE  H16S13121   4.745   6.488   5.570 -1.1601  0.0810 -0.3450
  123SOPE  C21713122   4.752   6.350   5.736 -0.5127 -0.3572  0.9424
  123SOPE  H17R13123   4.859   6.321   5.732 -1.0934 -2.6859 -2.3211
  123SOPE  H17S13124   4.706   6.251   5.759  0.0559 -1.3883 -1.8789
  123SOPE  C21813125   4.710   6.450   5.841 -0.0330 -0.2763  0.5159
  123SOPE  H18R13126   4.600   6.458   5.845 -0.2458 -0.7348 -2.4049
  123SOPE  H18S13127   4.755   6.550   5.823 -1.5874  0.6364  1.5210
  123SOPE  H18T13128   4.751   6.413   5.938 -0.7016 -2.7379 -0.0625
  123SOPE   C3313129   4.383   5.253   4.400 -0.4414 -0.7657  0.3996
  123SOPE   H3X13130   4.492   5.249   4.419  0.2661  0.5916 -2.7519
  123SOPE   H3Y13131   4.374   5.152   4.354  0.3728 -0.3332 -0.7628
  123SOPE   C3413132   4.305   5.263   4.532 -0.2992 -0.1687  0.1773
  123SOPE   H4X13133   4.319   5.170   4.592 -0.3681 -0.0715  0.3450
  123SOPE   H4Y13134   4.200   5.261   4.496  0.3451  1.9344 -2.0754
  123SOPE   C3513135   4.363   5.381   4.619  0.0770 -0.8278 -0.2630
  123SOPE   H5X13136   4.347   5.478   4.568 -1.8635 -1.3405 -0.7009
  123SOPE   H5Y13137   4.467   5.372   4.657 -0.3152  1.2736  1.5104
  123SOPE   C3613138   4.274   5.392   4.746 -0.1750  0.2944  0.8358
  123SOPE   H6X13139   4.261   5.285   4.774 -0.4253  0.2485  0.5473
  123SOPE   H6Y13140   4.168   5.415   4.725 -1.1792 -1.4098  3.4326
  123SOPE   C3713141   4.335   5.479   4.861 -0.1251 -0.6865  0.1758
  123SOPE   H7X13142   4.331   5.587   4.835  0.1883 -0.4589  1.0528
  123SOPE   H7Y13143   4.444   5.460   4.862 -0.2217 -1.3415 -0.5547
  123SOPE   C3813144   4.274   5.456   4.995  0.3282 -0.1840  0.0039
  123SOPE   H8X13145   4.267   5.346   5.015 -3.2772 -0.1620 -0.5789
  123SOPE   H8Y13146   4.166   5.478   4.980  0.5928  0.8064 -0.5427
  123SOPE   C3913147   4.349   5.517   5.105  0.8303 -0.6858 -0.5378
  123SOPE   H9X13148   4.454   5.534   5.074  0.1976 -0.0620 -2.4777
  123SOPE   H9Y13149   4.339   5.448   5.192 -2.1761  1.5188  1.0663
  123SOPE  C31013150   4.274   5.648   5.138  0.4823 -0.0768  0.5393
  123SOPE  H10X13151   4.167   5.628   5.159  1.2215 -4.4872  0.9911
  123SOPE  H10Y13152   4.271   5.713   5.048  0.1151  2.9633  2.6068
  123SOPE  C31113153   4.346   5.716   5.257 -0.6018  0.1412  0.2172
  123SOPE  H11X13154   4.372   5.633   5.326  0.4514 -1.2006 -1.6972
  123SOPE  H11Y13155   4.258   5.767   5.301 -0.4927  1.7968 -1.3772
  123SOPE  C31213156   4.475   5.794   5.220 -0.1094 -0.4756 -0.3884
  123SOPE  H12X13157   4.445   5.868   5.143 -1.0580 -0.8830 -0.4257
  123SOPE  H12Y13158   4.544   5.716   5.181  0.6385  1.0146 -2.1691
  123SOPE  C31313159   4.536   5.872   5.342 -0.4760 -0.0190  0.1483
  123SOPE  H13X13160   4.455   5.938   5.381 -0.0354  0.3924  0.3817
  123SOPE  H13Y13161   4.619   5.938   5.309 -0.2347  0.3830  1.5028
  123SOPE  C31413162   4.589   5.780   5.450  0.1458 -0.8433 -0.2560
  123SOPE  H14X13163   4.679   5.734   5.402  1.3294  0.6643  0.4276
  123SOPE  H14Y13164   4.518   5.697   5.471 -1.5844  0.7860  0.5417
  123SOPE  C31513165   4.639   5.846   5.581 -0.4546  0.5400 -0.1654
  123SOPE  H15X13166   4.730   5.904   5.553 -0.3438  0.7642  0.6535
  123SOPE  H15Y13167   4.655   5.760   5.649  0.9661 -0.1482 -1.2935
  123SOPE  C31613168   4.543   5.944   5.644  0.2144 -0.1914 -0.1196
  123SOPE  H16X13169   4.458   5.879   5.673  0.0752 -1.0616 -2.3528
  123SOPE  H16Y13170   4.500   6.021   5.576 -0.5112 -0.2173  0.2950
  123SOPE  C31713171   4.609   5.997   5.778  0.4112 -0.2654  0.1956
  123SOPE  H17X13172   4.711   6.038   5.757 -0.0216  0.4015 -0.6630
  123SOPE  H17Y13173   4.624   5.910   5.845  0.7974 -1.7393 -1.7204
  123SOPE  C31813174   4.519   6.100   5.850  0.5405 -0.5443 -0.8394
  123SOPE  H18X13175   4.543   6.125   5.955 -0.1250 -0.6872 -0.6471
  123SOPE  H18Y13176   4.414   6.065   5.841  0.0194  0.5436  0.6450
  123SOPE  H18Z13177   4.515   6.190   5.784 -1.1289  0.6189  0.7294
  124SOPE     N13178   3.784   3.613   3.521 -0.3085  0.2977 -0.1481
  124SOPE   HN113179   3.782   3.694   3.587 -0.0392 -1.2941  1.9370
  124SOPE   HN213180   3.748   3.644   3.429  1.0234  0.0847 -0.7641
  124SOPE   HN313181   3.721   3.541   3.564  1.5594 -1.3181  0.0295
  124SOPE   C1213182   3.927   3.570   3.505  0.5266  0.4684 -0.3841
  124SOPE  H12A13183   3.973   3.576   3.606  2.3650 -0.2826 -1.1473
  124SOPE  H12B13184   3.970   3.642   3.433 -1.1876 -0.4907 -2.4831
  124SOPE   C1113185   3.914   3.425   3.470 -0.6485  0.0671 -0.8301
  124SOPE  H11A13186   4.017   3.384   3.459  0.4715  2.1677  1.0832
  124SOPE  H11B13187   3.865   3.418   3.370 -2.1960 -2.8483  0.0019
  124SOPE     P13188   3.904   3.269   3.687  0.2717 -0.0896 -0.1823
  124SOPE   O1313189   3.920   3.123   3.657  0.0048  0.4486  0.2198
  124SOPE   O1413190   3.833   3.303   3.811 -0.8894  0.5709 -0.0559
  124SOPE   O1213191   3.837   3.348   3.565  0.0821  0.4401  0.6857
  124SOPE   O1113192   4.050   3.337   3.687 -0.5594  0.0096 -0.5875
  124SOPE    C113193   4.089   3.423   3.795 -0.2505  0.1200  0.1688
  124SOPE    HA13194   4.010   3.490   3.833  1.3096  2.9868 -1.3197
  124SOPE    HB13195   4.170   3.491   3.761  0.9763  0.3645  3.1932
  124SOPE    C213196   4.152   3.336   3.914  0.1616  0.1351  0.0835
  124SOPE    HS13197   4.245   3.295   3.868  0.8248  2.2003 -0.5522
  124SOPE   O2113198   4.064   3.229   3.946  0.5872 -0.0741 -0.2514
  124SOPE   C2113199   4.110   3.130   4.013 -0.3997 -0.5260 -0.3149
  124SOPE   O2213200   4.226   3.110   4.050 -0.1968 -0.2754 -0.0243
  124SOPE   C2213201   4.001   3.025   4.023 -0.2216 -0.8442 -0.6446
  124SOPE   H2R13202   4.032   2.926   3.984  0.1709 -1.1866  0.5216
  124SOPE   H2S13203   3.916   3.055   3.958  0.4900  0.4120 -1.0380
  124SOPE    C313204   4.199   3.415   4.038  0.6052  0.4207  0.7940
  124SOPE    HX13205   4.277   3.487   4.007  2.1588 -1.9400 -1.0945
  124SOPE    HY13206   4.250   3.345   4.107  1.6264  0.8298  0.4636
  124SOPE   O3113207   4.084   3.477   4.098 -0.2233  0.3347 -0.6252
  124SOPE   C3113208   4.105   3.513   4.224 -0.9563 -0.5656  0.3484
  124SOPE   O3213209   4.214   3.510   4.278 -0.2371  0.0156  0.2309
  124SOPE   C3213210   3.977   3.562   4.286 -0.3565  0.1042 -0.2981
  124SOPE   H2X13211   3.942   3.653   4.232 -0.8926  0.6017  0.8533
  124SOPE   H2Y13212   3.994   3.595   4.390 -3.8634 -1.2780  0.8926
  124SOPE   C2313213   3.945   3.019   4.165 -0.4653  0.4122 -0.1711
  124SOPE   H3R13214   3.879   2.929   4.167 -0.7018  0.5898  0.0825
  124SOPE   H3S13215   3.877   3.104   4.187  0.1971  0.1093  3.6593
  124SOPE   C2413216   4.044   3.011   4.278  0.1013  0.1155 -0.7878
  124SOPE   H4R13217   4.123   2.935   4.260  1.1418  0.4493  1.8281
  124SOPE   H4S13218   4.094   3.110   4.277  1.0723 -0.3649 -2.2930
  124SOPE   C2513219   3.969   2.971   4.410  0.4253  1.2302 -0.1046
  124SOPE   H5R13220   3.885   3.042   4.428 -0.8064 -0.2794  0.2643
  124SOPE   H5S13221   3.924   2.872   4.388 -0.5651  1.5303  0.4962
  124SOPE   C2613222   4.061   2.968   4.528  0.4810  0.3016  0.0625
  124SOPE   H6R13223   4.151   2.909   4.500  1.5304  1.3036  1.2202
  124SOPE   H6S13224   4.101   3.071   4.528 -0.9081  0.8639 -0.3751
  124SOPE   C2713225   3.987   2.930   4.659 -0.8738  0.1901  0.4577
  124SOPE   H7R13226   3.888   2.980   4.662 -1.1172 -0.0176 -1.9942
  124SOPE   H7S13227   3.963   2.821   4.658  0.4266 -0.1159  0.5796
  124SOPE   C2813228   4.070   2.956   4.791 -0.7602 -0.8332 -0.2760
  124SOPE   H8R13229   4.104   3.062   4.795 -1.0205 -0.7531 -0.1959
  124SOPE   H8S13230   3.997   2.953   4.874  2.0923 -0.8109  2.4182
  124SOPE   C2913231   4.188   2.865   4.812  0.3339 -0.6308 -0.3604
  124SOPE   H9113232   4.275   2.881   4.747  0.7879 -1.1993  0.0965
  124SOPE  C21013233   4.186   2.754   4.890  0.2082 -0.5723  0.2144
  124SOPE  H10113234   4.280   2.696   4.893  0.7961  0.3262 -0.1690
  124SOPE  C21113235   4.075   2.714   4.982 -0.5348  0.0539  0.1850
  124SOPE  H11R13236   4.070   2.603   4.988  0.0257 -0.0701 -1.2625
  124SOPE  H11S13237   3.978   2.754   4.947 -1.2899  0.4432  2.5661
  124SOPE  C21213238   4.095   2.765   5.120 -0.1766 -0.4487  0.0403
  124SOPE  H12R13239   4.002   2.765   5.181  1.3085 -1.5646  2.4663
  124SOPE  H12S13240   4.123   2.872   5.119  3.2684 -1.2343 -0.8696
  124SOPE  C21313241   4.209   2.697   5.193  0.6909 -0.6065  0.0927
  124SOPE  H13R13242   4.309   2.717   5.147  1.7343  2.0372  3.0825
  124SOPE  H13S13243   4.187   2.589   5.180  0.5190 -0.4519 -0.9473
  124SOPE  C21413244   4.219   2.725   5.343  0.2597  0.6780  0.6014
  124SOPE  H14R13245   4.147   2.675   5.412  0.3639 -0.1802  0.1020
  124SOPE  H14S13246   4.222   2.836   5.348  2.3291  0.6451  1.3798
  124SOPE  C21513247   4.359   2.672   5.397 -0.2847 -0.8797  0.3075
  124SOPE  H15R13248   4.448   2.722   5.354 -1.2564  2.1388  1.5239
  124SOPE  H15S13249   4.368   2.570   5.355  1.8899 -0.9297  0.8058
  124SOPE  C21613250   4.389   2.660   5.547  0.1701  0.1004 -0.2026
  124SOPE  H16R13251   4.478   2.599   5.569  0.5490  0.5413 -0.4914
  124SOPE  H16S13252   4.302   2.607   5.591 -0.5047  1.2210 -0.1368
  124SOPE  C21713253   4.408   2.797   5.614 -0.0305  0.3354  0.5736
  124SOPE  H17R13254   4.318   2.858   5.590 -0.1488  0.7503  1.9577
  124SOPE  H17S13255   4.496   2.840   5.561 -0.7887  0.0204 -1.0053
  124SOPE  C21813256   4.439   2.778   5.762 -0.1111  0.8916 -0.6522
  124SOPE  H18R13257   4.405   2.864   5.824  1.0290  1.7092 -1.1211
  124SOPE  H18S13258   4.549   2.777   5.781 -0.2933  1.3465  0.5127
  124SOPE  H18T13259   4.396   2.690   5.815  0.0515  2.6527  2.6874
  124SOPE   C3313260   3.862   3.453   4.278 -0.5511 -0.2810 -0.1328
  124SOPE   H3X13261   3.855   3.426   4.171 -2.9501  0.1317 -0.1249
  124SOPE   H3Y13262   3.766   3.506   4.294 -0.7807 -0.2616 -1.4503
  124SOPE   C3413263   3.869   3.339   4.379 -0.6199  0.0249 -0.3300
  124SOPE   H4X13264   3.972   3.299   4.373 -0.1565  1.1174 -0.0122
  124SOPE   H4Y13265   3.807   3.254   4.344 -0.1388  0.0809 -1.3442
  124SOPE   C3513266   3.849   3.379   4.524  0.0611  0.1347 -0.4057
  124SOPE   H5X13267   3.742   3.409   4.531 -0.5959 -1.5555 -2.1624
  124SOPE   H5Y13268   3.909   3.469   4.548  0.1654  0.0633 -0.3982
  124SOPE   C3613269   3.863   3.273   4.636 -0.0304 -0.0888  0.4325
  124SOPE   H6X13270   3.964   3.227   4.629  0.1707  0.4022  0.0098
  124SOPE   H6Y13271   3.785   3.194   4.628 -3.6397  3.0690  1.5222
  124SOPE   C3713272   3.846   3.344   4.769 -0.1419 -0.0948  0.2998
  124SOPE   H7X13273   3.761   3.415   4.756 -0.2594  0.1081  1.8921
  124SOPE   H7Y13274   3.930   3.416   4.780 -0.3684  0.0224  1.4774
  124SOPE   C3813275   3.835   3.257   4.894 -0.1184 -0.1882 -0.0517
  124SOPE   H8X13276   3.935   3.216   4.920  1.5631  1.3189 -3.5253
  124SOPE   H8Y13277   3.757   3.178   4.889  0.0265 -0.2538 -1.9392
  124SOPE   C3913278   3.794   3.339   5.018 -0.0059  0.3544  0.4181
  124SOPE   H9X13279   3.692   3.372   4.990  0.1858 -1.3529 -2.7760
  124SOPE   H9Y13280   3.852   3.433   5.008  0.5975 -0.1601 -1.2770
  124SOPE  C31013281   3.807   3.272   5.152  0.3336 -0.0204 -0.0512
  124SOPE  H10X13282   3.911   3.245   5.182  0.4368 -0.8145 -1.0520
  124SOPE  H10Y13283   3.753   3.175   5.146  1.7256 -0.8662  0.5925
  124SOPE  C31113284   3.749   3.350   5.267 -0.2982 -0.3542 -0.1593
  124SOPE  H11X13285   3.647   3.310   5.285 -0.3747 -0.1099 -0.0432
  124SOPE  H11Y13286   3.726   3.452   5.231  1.6343 -0.5010 -1.9927
  124SOPE  C31213287   3.819   3.346   5.400  0.5293  0.5567 -0.3626
  124SOPE  H12X13288   3.914   3.400   5.380  0.6508 -0.3248 -2.4495
  124SOPE  H12Y13289   3.844   3.239   5.417 -0.2560 -0.1167 -2.9766
  124SOPE  C31313290   3.726   3.406   5.512  0.0301  0.1672  0.5172
  124SOPE  H13X13291   3.670   3.489   5.463  2.3744  1.2738 -0.4315
  124SOPE  H13Y13292   3.787   3.428   5.602  1.4451  0.0242 -0.3829
  124SOPE  C31413293   3.629   3.297   5.572 -0.1068  0.5930 -0.0832
  124SOPE  H14X13294   3.685   3.212   5.617  1.7320  0.4204 -2.4442
  124SOPE  H14Y13295   3.570   3.257   5.487 -0.6008 -1.0988  1.0147
  124SOPE  C31513296   3.528   3.357   5.664  0.1456  0.1257 -0.2066
  124SOPE  H15X13297   3.481   3.446   5.616 -1.6586  0.8501  2.6875
  124SOPE  H15Y13298   3.581   3.398   5.752  1.4014 -0.6844 -0.5604
  124SOPE  C31613299   3.404   3.278   5.715 -0.0551  0.4387  0.1875
  124SOPE  H16X13300   3.432   3.171   5.702 -1.3714  0.0151  0.6556
  124SOPE  H16Y13301   3.314   3.311   5.659 -0.2502  1.1406  0.8906
  124SOPE  C31713302   3.375   3.292   5.869 -0.2441 -0.5026 -0.1882
  124SOPE  H17X13303   3.287   3.235   5.904 -0.8090  0.8339  0.6296
  124SOPE  H17Y13304   3.329   3.393   5.881  0.6691  0.2977 -2.6825
  124SOPE  C31813305   3.490   3.267   5.961  0.7149  0.2707 -0.6588
  124SOPE  H18X13306   3.447   3.245   6.060 -0.0873 -2.1236 -1.4671
  124SOPE  H18Y13307   3.575   3.339   5.967  2.0482 -1.1363 -1.7676
  124SOPE  H18Z13308   3.526   3.170   5.919 -2.1320 -1.3674  0.4512
  125SOPE     N13309   3.776   3.776   4.007 -0.6136  0.1054  0.8227
  125SOPE   HN113310   3.722   3.703   3.957  0.1937  0.6069 -0.8721
  125SOPE   HN213311   3.756   3.773   4.109  0.7902  1.9115  1.2083
  125SOPE   HN313312   3.734   3.868   3.984 -5.1053 -1.4460  1.8887
  125SOPE   C1213313   3.921   3.802   3.985 -0.5013 -0.3160  0.2095
  125SOPE  H12A13314   3.946   3.805   3.877 -0.1299 -0.2098  0.2946
  125SOPE  H12B13315   3.979   3.721   4.035  0.1139  0.4133  0.7155
  125SOPE   C1113316   3.954   3.939   4.043 -0.7491 -0.7310  0.2659
  125SOPE  H11A13317   4.058   3.962   4.014 -0.5671  0.5290  1.7424
  125SOPE  H11B13318   3.954   3.940   4.154 -2.3848 -0.2746  0.2991
  125SOPE     P13319   3.890   4.180   3.997  0.0185  0.2549  0.0323
  125SOPE   O1313320   3.770   4.253   4.034  0.6558  0.3160 -0.5816
  125SOPE   O1413321   3.961   4.220   3.871 -0.0288 -0.1953  0.4194
  125SOPE   O1213322   3.853   4.029   3.997 -0.0446 -0.1707  0.5990
  125SOPE   O1113323   3.995   4.197   4.119 -0.4985  0.2783  0.1447
  125SOPE    C113324   3.963   4.259   4.244 -0.3332  0.0612  0.4500
  125SOPE    HA13325   3.862   4.305   4.245 -0.6593 -0.6247  1.8212
  125SOPE    HB13326   4.038   4.339   4.263 -0.0987  0.1078 -0.6355
  125SOPE    C213327   3.979   4.163   4.361  0.8767  0.1237 -0.1260
  125SOPE    HS13328   3.917   4.080   4.322  1.6422 -0.8117  0.6131
  125SOPE   O2113329   3.930   4.232   4.478  0.2881 -0.1309 -0.7481
  125SOPE   C2113330   3.866   4.171   4.564  0.3792  0.0519 -1.2124
  125SOPE   O2213331   3.831   4.054   4.561  0.3440  0.0185 -0.1166
  125SOPE   C2213332   3.865   4.252   4.686 -0.2974 -0.2257 -0.2035
  125SOPE   H2R13333   3.776   4.217   4.743 -1.3380  1.1638 -0.9144
  125SOPE   H2S13334   3.853   4.361   4.665 -0.7016 -0.5326 -1.6474
  125SOPE    C313335   4.121   4.108   4.374 -0.3016  0.3340 -0.7332
  125SOPE    HX13336   4.183   4.201   4.367  0.2690  0.3384  2.6887
  125SOPE    HY13337   4.154   4.046   4.289  0.1395  0.4687 -0.6635
  125SOPE   O3113338   4.127   4.043   4.500 -0.5116  0.4295  0.2666
  125SOPE   C3113339   4.103   3.907   4.502  0.5437  0.1433 -0.0986
  125SOPE   O3213340   4.078   3.844   4.402  0.5937 -0.0068 -0.1576
  125SOPE   C3213341   4.122   3.852   4.638 -0.1805  0.2130  0.2679
  125SOPE   H2X13342   4.164   3.940   4.690 -1.2639  0.0059  1.5532
  125SOPE   H2Y13343   4.196   3.769   4.644 -1.6601 -1.3325 -1.4142
  125SOPE   C2313344   3.984   4.217   4.776 -0.3414  0.3929 -0.2013
  125SOPE   H3R13345   4.072   4.272   4.736  0.7471 -0.8720  0.3840
  125SOPE   H3S13346   3.999   4.107   4.774  1.6876  0.6439 -1.2252
  125SOPE   C2413347   3.961   4.267   4.918  0.1916 -0.1322 -0.0310
  125SOPE   H4R13348   3.932   4.374   4.914  1.4273  0.2745  1.2349
  125SOPE   H4S13349   3.874   4.222   4.971 -0.2067  1.6570  0.9079
  125SOPE   C2513350   4.087   4.248   5.009 -0.2062 -0.5635  0.0560
  125SOPE   H5R13351   4.127   4.145   4.995  1.0196 -0.0915 -0.0519
  125SOPE   H5S13352   4.167   4.310   4.962  1.2993 -3.1908 -1.0892
  125SOPE   C2613353   4.055   4.269   5.159  0.1325  0.6901  0.7749
  125SOPE   H6R13354   3.960   4.328   5.163 -0.3658  0.2791 -2.5063
  125SOPE   H6S13355   4.020   4.174   5.206 -0.5997 -0.4784 -1.9490
  125SOPE   C2713356   4.166   4.342   5.235  0.7630  0.0510 -0.1579
  125SOPE   H7R13357   4.169   4.446   5.196 -1.9221  0.5767  0.8446
  125SOPE   H7S13358   4.128   4.359   5.338 -1.8444 -0.5113 -0.9695
  125SOPE   C2813359   4.306   4.279   5.236  0.3760  0.4153  0.7824
  125SOPE   H8R13360   4.349   4.276   5.133 -2.0375 -2.4535 -0.2784
  125SOPE   H8S13361   4.377   4.343   5.293  0.8185 -1.4519  2.4207
  125SOPE   C2913362   4.306   4.140   5.293  0.5768  0.1021  0.2016
  125SOPE   H9113363   4.279   4.058   5.225 -0.1649 -0.6866  1.4152
  125SOPE  C21013364   4.328   4.099   5.418 -0.5892 -1.2264 -0.5632
  125SOPE  H10113365   4.324   3.993   5.447  0.7191 -0.9866  0.6033
  125SOPE  C21113366   4.368   4.187   5.534 -0.4652 -0.3846 -0.3787
  125SOPE  H11R13367   4.392   4.294   5.513 -1.0050  0.0619  1.2064
  125SOPE  H11S13368   4.455   4.145   5.588 -1.5902 -0.7121  1.2456
  125SOPE  C21213369   4.252   4.193   5.630 -0.0670 -0.0820 -0.0439
  125SOPE  H12R13370   4.223   4.090   5.657  1.6694 -0.6807 -0.3257
  125SOPE  H12S13371   4.166   4.234   5.572  0.2556 -0.0173 -0.4872
  125SOPE  C21313372   4.280   4.273   5.754 -0.5390  0.5550 -0.0342
  125SOPE  H13R13373   4.296   4.378   5.719 -0.3707  1.7194  3.1548
  125SOPE  H13S13374   4.378   4.229   5.781  0.0703  0.6508 -1.9451
  125SOPE  C21413375   4.181   4.249   5.869  0.1357 -0.0785 -0.2035
  125SOPE  H14R13376   4.199   4.332   5.940  0.8548  0.5169 -1.0567
  125SOPE  H14S13377   4.184   4.156   5.930 -0.2920 -0.0997 -0.2121
  125SOPE  C21513378   4.034   4.252   5.824 -0.0170  0.0363 -0.0590
  125SOPE  H15R13379   4.020   4.197   5.729  1.4060 -0.9136  0.2547
  125SOPE  H15S13380   4.013   4.359   5.800 -0.7297 -0.1575 -0.3010
  125SOPE  C21613381   3.939   4.215   5.937  0.2851  0.2060 -0.3130
  125SOPE  H16R13382   3.962   4.278   6.026  0.4151 -1.3723  0.8251
  125SOPE  H16S13383   3.977   4.112   5.950  0.8698  0.5663  1.0804
  125SOPE  C21713384   3.792   4.213   5.895  0.5309  0.0221  0.3110
  125SOPE  H17R13385   3.732   4.133   5.946  0.5446 -0.0183  0.2639
  125SOPE  H17S13386   3.791   4.201   5.785 -0.2046 -3.8798  0.5654
  125SOPE  C21813387   3.722   4.348   5.919  0.5675 -0.1863  0.2241
  125SOPE  H18R13388   3.613   4.340   5.935  0.6688  0.9588  1.6945
  125SOPE  H18S13389   3.752   4.410   5.831  0.8523 -2.4341 -1.3436
  125SOPE  H18T13390   3.769   4.384   6.013  2.5042 -1.7759 -0.0807
  125SOPE   C3313391   3.998   3.800   4.709 -0.2789 -0.1642 -0.4730
  125SOPE   H3X13392   3.964   3.706   4.660 -1.3996 -0.1834  0.3000
  125SOPE   H3Y13393   3.909   3.865   4.715 -0.7422 -0.8936  2.8526
  125SOPE   C3413394   4.040   3.751   4.854 -0.1483 -0.6476 -0.0080
  125SOPE   H4X13395   4.086   3.840   4.903 -0.6200  1.1384 -2.6308
  125SOPE   H4Y13396   4.109   3.665   4.840 -2.0217 -1.8169 -3.0277
  125SOPE   C3513397   3.919   3.717   4.936 -0.7317  0.2024 -0.3423
  125SOPE   H5X13398   3.964   3.669   5.026  0.5672  0.2872 -0.9186
  125SOPE   H5Y13399   3.854   3.651   4.874 -0.2041  1.8026 -2.7065
  125SOPE   C3613400   3.847   3.840   4.970  0.6677 -0.6768 -0.3188
  125SOPE   H6X13401   3.767   3.856   4.894 -0.7675  1.8119  1.5507
  125SOPE   H6Y13402   3.915   3.928   4.964 -0.0023 -0.1013  0.2507
  125SOPE   C3713403   3.803   3.850   5.123 -0.0336 -0.1642 -0.2149
  125SOPE   H7X13404   3.893   3.819   5.180  0.4544  0.8524 -0.4122
  125SOPE   H7Y13405   3.717   3.779   5.127 -0.8332  0.7988  2.9184
  125SOPE   C3813406   3.765   3.993   5.158  0.8790 -0.0739  0.1648
  125SOPE   H8X13407   3.679   4.027   5.097  2.2292  0.1275 -1.7266
  125SOPE   H8Y13408   3.851   4.058   5.130  0.9899 -0.5153 -0.5525
  125SOPE   C3913409   3.704   4.008   5.296  0.0509 -0.2612  0.8561
  125SOPE   H9X13410   3.621   3.937   5.316 -1.2082  0.3412 -1.8016
  125SOPE   H9Y13411   3.653   4.107   5.299 -0.1998 -0.1463 -2.9603
  125SOPE  C31013412   3.821   4.011   5.401  0.3739  0.4413 -0.0841
  125SOPE  H10X13413   3.905   4.074   5.364  0.1446  0.7426 -0.0908
  125SOPE  H10Y13414   3.866   3.909   5.396 -0.5308 -0.0507  1.1676
  125SOPE  C31113415   3.784   4.042   5.545 -0.2546 -0.8528 -0.6011
  125SOPE  H11X13416   3.749   4.147   5.553 -2.2939 -1.6048  1.1331
  125SOPE  H11Y13417   3.879   4.029   5.601 -1.6417 -2.3106  1.5285
  125SOPE  C31213418   3.680   3.949   5.604 -0.7346  0.4072 -0.2450
  125SOPE  H12X13419   3.715   3.933   5.708 -0.7313  4.7195  0.5753
  125SOPE  H12Y13420   3.675   3.851   5.552  0.0986  0.2058  0.0497
  125SOPE  C31313421   3.542   4.016   5.622 -0.5158 -1.2080 -0.0149
  125SOPE  H13X13422   3.509   4.033   5.517 -0.0289 -0.6085 -0.0760
  125SOPE  H13Y13423   3.548   4.111   5.678 -1.5075 -0.8251 -0.5451
  125SOPE  C31413424   3.437   3.931   5.690  0.0709 -0.1612  0.2352
  125SOPE  H14X13425   3.478   3.905   5.789 -0.9140  0.2740  0.7714
  125SOPE  H14Y13426   3.433   3.832   5.638  0.0722 -0.1358  0.1871
  125SOPE  C31513427   3.296   3.993   5.686  0.3870 -0.4892  0.2997
  125SOPE  H15X13428   3.261   4.019   5.584  1.0894 -0.4047  0.0775
  125SOPE  H15Y13429   3.296   4.085   5.748  0.5703 -0.6247  0.5018
  125SOPE  C31613430   3.195   3.896   5.747 -0.9947 -0.1706  0.0954
  125SOPE  H16X13431   3.196   3.893   5.858  1.1163 -0.6535  0.1096
  125SOPE  H16Y13432   3.213   3.797   5.698  0.0483  0.5364 -1.0208
  125SOPE  C31713433   3.052   3.925   5.708  0.1236 -0.2436  0.0729
  125SOPE  H17X13434   3.043   4.036   5.704 -1.7777 -0.3148  1.2146
  125SOPE  H17Y13435   2.983   3.909   5.794  2.5026 -0.9718  1.9556
  125SOPE  C31813436   3.002   3.885   5.571  0.2672 -0.7881  0.0458
  125SOPE  H18X13437   2.950   3.787   5.578  1.3933 -1.4067 -0.1264
  125SOPE  H18Y13438   3.097   3.883   5.514  0.1495  2.7689 -0.5279
  125SOPE  H18Z13439   2.926   3.956   5.531  0.1127 -0.5684  0.7191
  126SOPE     N13440   5.539   3.792   3.243  0.8231 -0.4890  0.3948
  126SOPE   HN113441   5.461   3.830   3.186  1.8821  0.1750 -0.6631
  126SOPE   HN213442   5.561   3.872   3.306  0.8310  0.4099 -0.7084
  126SOPE   HN313443   5.615   3.782   3.172  1.0281  0.5404  0.4484
  126SOPE   C1213444   5.494   3.667   3.313  0.1321 -0.0412 -0.0055
  126SOPE  H12A13445   5.577   3.635   3.380 -0.9154 -1.4871  0.6486
  126SOPE  H12B13446   5.486   3.587   3.237 -0.7060 -0.0472  0.0798
  126SOPE   C1113447   5.372   3.692   3.391 -0.0441 -0.0616 -0.2134
  126SOPE  H11A13448   5.349   3.590   3.428  2.6758 -0.6246  0.0948
  126SOPE  H11B13449   5.292   3.725   3.321  1.0037 -1.3142 -2.0827
  126SOPE     P13450   5.312   3.794   3.635 -0.2837 -0.4623 -0.1425
  126SOPE   O1313451   5.239   3.669   3.659  0.2448  0.1851  0.1071
  126SOPE   O1413452   5.225   3.917   3.633 -0.3669 -0.0818  0.0863
  126SOPE   O1213453   5.400   3.785   3.495 -0.4424  0.2687  0.0353
  126SOPE   O1113454   5.434   3.810   3.737 -0.0468  0.4422  0.0392
  126SOPE    C113455   5.567   3.860   3.704  0.0326 -0.2799 -1.0932
  126SOPE    HA13456   5.565   3.970   3.718  3.6736 -0.2043 -0.0139
  126SOPE    HB13457   5.615   3.826   3.610  0.2774 -2.2970 -0.2895
  126SOPE    C213458   5.671   3.821   3.817  0.5568 -0.0420  0.0531
  126SOPE    HS13459   5.702   3.716   3.798  0.4796 -0.2420  0.9913
  126SOPE   O2113460   5.618   3.836   3.945  0.0613 -0.1211 -0.6720
  126SOPE   C2113461   5.561   3.732   3.999  0.4816  0.0436  0.0484
  126SOPE   O2213462   5.528   3.630   3.942  0.8053  0.1440  0.4473
  126SOPE   C2213463   5.551   3.746   4.150 -1.0544 -0.2593 -0.1923
  126SOPE   H2R13464   5.499   3.842   4.166  0.5417  0.2658  2.2528
  126SOPE   H2S13465   5.654   3.756   4.190 -0.7879  1.1211 -1.1605
  126SOPE    C313466   5.806   3.900   3.815  0.0565 -0.1806 -0.2461
  126SOPE    HX13467   5.787   4.009   3.821 -1.5602 -0.4996  1.0593
  126SOPE    HY13468   5.859   3.876   3.720  1.1243 -0.4457  0.3979
  126SOPE   O3113469   5.889   3.869   3.928 -0.2638 -0.0554 -0.4064
  126SOPE   C3113470   5.968   3.757   3.920 -0.1930  0.3500  0.3655
  126SOPE   O3213471   5.984   3.689   3.822  0.4114  0.7460 -0.6664
  126SOPE   C3213472   6.024   3.716   4.055  0.4650  0.4521 -0.5308
  126SOPE   H2X13473   6.133   3.728   4.041  0.1205  1.1496 -3.2400
  126SOPE   H2Y13474   6.015   3.605   4.064 -0.9475  0.6013  0.3031
  126SOPE   C2313475   5.500   3.622   4.218  0.5827 -0.1478 -0.0477
  126SOPE   H3R13476   5.553   3.526   4.199  1.2679  0.3189 -0.5235
  126SOPE   H3S13477   5.396   3.602   4.184  0.3951 -1.3606  1.1331
  126SOPE   C2413478   5.505   3.631   4.375 -0.0580 -0.5606  0.0151
  126SOPE   H4R13479   5.460   3.543   4.425  0.8947  0.2414  2.4415
  126SOPE   H4S13480   5.614   3.635   4.395  0.3172 -0.9342 -1.7885
  126SOPE   C2513481   5.446   3.763   4.433 -0.0841 -0.8303 -0.0193
  126SOPE   H5R13482   5.485   3.850   4.376 -0.3118  0.6656  2.0031
  126SOPE   H5S13483   5.336   3.755   4.419 -0.0062 -1.9582 -0.0744
  126SOPE   C2613484   5.479   3.783   4.579 -0.5396  0.3458 -0.3045
  126SOPE   H6R13485   5.589   3.800   4.576 -0.5611  0.2816 -2.2954
  126SOPE   H6S13486   5.430   3.872   4.624 -4.4586 -1.4821 -0.5024
  126SOPE   C2713487   5.453   3.660   4.667 -0.3395 -0.1601  0.1813
  126SOPE   H7R13488   5.517   3.576   4.633 -2.4650 -2.7623  2.1492
  126SOPE   H7S13489   5.487   3.680   4.771  0.1183  0.6384 -0.1126
  126SOPE   C2813490   5.314   3.610   4.692  0.2406 -0.2939 -0.3791
  126SOPE   H8R13491   5.261   3.586   4.597  1.0579  1.2278 -1.2570
  126SOPE   H8S13492   5.313   3.525   4.765 -2.4025  1.2320  1.5381
  126SOPE   C2913493   5.225   3.709   4.765 -0.1133  0.3096  0.1234
  126SOPE   H9113494   5.137   3.734   4.703  1.0177  0.0173 -1.6851
  126SOPE  C21013495   5.220   3.741   4.897  0.6082 -0.2674 -0.1655
  126SOPE  H10113496   5.141   3.808   4.933 -2.6657 -2.4492 -2.5825
  126SOPE  C21113497   5.311   3.690   5.001 -0.5218 -0.4061 -0.0893
  126SOPE  H11R13498   5.357   3.779   5.050  0.4694 -1.6247  1.2572
  126SOPE  H11S13499   5.392   3.620   4.973 -3.5046 -4.7299  1.0721
  126SOPE  C21213500   5.227   3.605   5.104 -0.3364 -0.1571 -0.9720
  126SOPE  H12R13501   5.199   3.515   5.046  3.8685 -3.1971  1.1299
  126SOPE  H12S13502   5.148   3.672   5.145  0.1452 -0.1576 -0.0080
  126SOPE  C21313503   5.319   3.547   5.218  0.1118  0.5356  0.4763
  126SOPE  H13R13504   5.415   3.517   5.170 -0.4482 -0.8900  0.2216
  126SOPE  H13S13505   5.267   3.456   5.254  0.9939 -0.3075 -0.3117
  126SOPE  C21413506   5.336   3.648   5.334  0.0157  0.0285 -0.9402
  126SOPE  H14R13507   5.234   3.652   5.378  0.4941 -2.9202  0.6439
  126SOPE  H14S13508   5.360   3.751   5.297  1.7941  0.1826  0.5372
  126SOPE  C21513509   5.440   3.598   5.440 -0.0606 -0.1833 -0.1000
  126SOPE  H15R13510   5.533   3.555   5.395  0.6565  0.4835  0.7176
  126SOPE  H15S13511   5.398   3.517   5.502  2.1907 -1.9503 -0.7568
  126SOPE  C21613512   5.488   3.708   5.536  0.1388  0.8307 -0.3722
  126SOPE  H16R13513   5.406   3.755   5.594  0.1684  1.5689 -0.9054
  126SOPE  H16S13514   5.541   3.787   5.478  1.2683  0.8796  0.6987
  126SOPE  C21713515   5.598   3.646   5.628 -0.2958  0.6869  0.3071
  126SOPE  H17R13516   5.686   3.616   5.567  0.8104  0.2974  2.0232
  126SOPE  H17S13517   5.561   3.553   5.676 -2.4162 -0.4946 -3.2113
  126SOPE  C21813518   5.643   3.752   5.738  0.1705  0.5289 -0.1085
  126SOPE  H18R13519   5.724   3.705   5.799  0.1781 -1.2180 -1.3974
  126SOPE  H18S13520   5.557   3.767   5.807 -0.4086 -2.2839 -0.1161
  126SOPE  H18T13521   5.690   3.846   5.700  0.9401 -0.0770 -0.6787
  126SOPE   C3313522   5.956   3.772   4.184 -0.2205 -0.1929  0.4065
  126SOPE   H3X13523   5.879   3.694   4.202 -0.6348 -0.0277 -0.5434
  126SOPE   H3Y13524   5.926   3.876   4.161 -0.9400 -0.0950  1.7158
  126SOPE   C3413525   6.056   3.786   4.304  0.3589 -0.3776 -0.1512
  126SOPE   H4X13526   6.150   3.838   4.273  1.4386 -2.1000  0.1117
  126SOPE   H4Y13527   6.087   3.681   4.322 -1.8993 -0.7368  2.2234
  126SOPE   C3513528   5.989   3.866   4.422 -0.1535  0.3649 -0.1030
  126SOPE   H5X13529   5.905   3.931   4.390 -2.5093 -2.2347  0.4244
  126SOPE   H5Y13530   6.075   3.919   4.469  1.3086 -1.8440 -0.1409
  126SOPE   C3613531   5.937   3.765   4.524  0.4635  0.0668 -0.3457
  126SOPE   H6X13532   6.028   3.707   4.548  0.6235  0.6224  0.4489
  126SOPE   H6Y13533   5.853   3.701   4.490 -0.4299  1.7903 -1.5171
  126SOPE   C3713534   5.892   3.811   4.660  0.3799 -0.2677 -0.7857
  126SOPE   H7X13535   5.794   3.862   4.664  0.8265  0.5378  1.3844
  126SOPE   H7Y13536   5.963   3.887   4.700 -0.6834  1.8690 -2.7259
  126SOPE   C3813537   5.885   3.691   4.764 -1.0400 -0.4561  0.0100
  126SOPE   H8X13538   5.981   3.635   4.756 -1.2881 -0.7477 -1.0434
  126SOPE   H8Y13539   5.811   3.611   4.743 -1.0925 -0.2251 -0.7372
  126SOPE   C3913540   5.874   3.728   4.909  0.1727 -1.0521 -0.4344
  126SOPE   H9X13541   5.963   3.789   4.935 -2.1899  2.4951 -0.0177
  126SOPE   H9Y13542   5.872   3.633   4.966 -1.2481  0.4559  2.2432
  126SOPE  C31013543   5.746   3.800   4.945 -0.3066 -0.1247 -0.1573
  126SOPE  H10X13544   5.670   3.748   4.883 -0.0526  0.3458 -0.8740
  126SOPE  H10Y13545   5.752   3.904   4.909 -1.1768  0.2630  0.7520
  126SOPE  C31113546   5.696   3.782   5.090 -0.5785 -0.2618 -0.2822
  126SOPE  H11X13547   5.730   3.680   5.118  1.7487 -0.2565 -2.7032
  126SOPE  H11Y13548   5.586   3.780   5.097 -0.7408 -0.6273 -2.4769
  126SOPE  C31213549   5.749   3.890   5.195  0.5373  0.4434  0.9213
  126SOPE  H12X13550   5.690   3.886   5.290 -0.7457  1.2904  0.1935
  126SOPE  H12Y13551   5.736   3.992   5.153  0.8203  0.6959  1.4302
  126SOPE  C31313552   5.899   3.865   5.222 -0.7662  0.9977  0.3716
  126SOPE  H13X13553   5.956   3.880   5.127 -1.3151  1.1109  0.0598
  126SOPE  H13Y13554   5.920   3.765   5.264  1.5541  0.9773 -0.6539
  126SOPE  C31413555   5.962   3.969   5.306 -1.0302  0.2632 -1.1084
  126SOPE  H14X13556   5.934   4.062   5.251 -1.0969 -0.3221 -2.0872
  126SOPE  H14Y13557   6.072   3.960   5.303 -0.9796  0.1645  0.4236
  126SOPE  C31513558   5.905   3.954   5.454 -0.9156  0.6131  1.7668
  126SOPE  H15X13559   5.948   3.855   5.481  1.5190  0.4698 -1.9191
  126SOPE  H15Y13560   5.794   3.955   5.456 -1.1334  0.1669 -1.8623
  126SOPE  C31613561   5.960   4.067   5.535 -0.7276  0.3045  0.3407
  126SOPE  H16X13562   5.915   4.071   5.637  1.1793  0.7229  1.2208
  126SOPE  H16Y13563   5.937   4.160   5.479 -1.5769 -1.2765 -2.0868
  126SOPE  C31713564   6.116   4.055   5.545 -0.5610 -0.9083 -0.6383
  126SOPE  H17X13565   6.171   4.099   5.459  0.3134 -2.9533 -1.2045
  126SOPE  H17Y13566   6.139   3.946   5.534 -0.2176 -1.0832  1.4096
  126SOPE  C31813567   6.173   4.112   5.669  0.2545 -0.6388 -0.7549
  126SOPE  H18X13568   6.127   4.060   5.756  1.9847 -0.0803  0.5350
  126SOPE  H18Y13569   6.153   4.220   5.686  0.0945 -0.7648 -0.1244
  126SOPE  H18Z13570   6.281   4.088   5.674 -0.0457 -1.8742  2.4941
  127SOPE     N13571   2.661   5.445   2.603 -0.2831 -0.2801  0.6290
  127SOPE   HN113572   2.672   5.381   2.684  1.9794 -0.5993  0.1132
  127SOPE   HN213573   2.690   5.536   2.645 -0.2406  0.2988 -0.5929
  127SOPE   HN313574   2.562   5.443   2.570  0.4009 -0.1574 -1.6018
  127SOPE   C1213575   2.757   5.404   2.489  0.0904 -0.0827  0.0784
  127SOPE  H12A13576   2.770   5.492   2.422 -1.4869 -0.4322 -0.7201
  127SOPE  H12B13577   2.708   5.329   2.425 -0.5733  0.9512 -0.6619
  127SOPE   C1113578   2.896   5.348   2.537 -0.1038 -0.1165 -0.3179
  127SOPE  H11A13579   2.956   5.331   2.445  1.2358  0.2963  0.4508
  127SOPE  H11B13580   2.884   5.244   2.573  0.0839 -1.2288 -3.2005
  127SOPE     P13581   3.040   5.562   2.587 -0.1811  0.3386  0.0569
  127SOPE   O1313582   2.950   5.651   2.510 -0.0882 -0.1664 -0.3894
  127SOPE   O1413583   3.167   5.513   2.526  0.4281  0.1640  0.2646
  127SOPE   O1213584   2.961   5.440   2.632  0.4982  0.7410  0.4141
  127SOPE   O1113585   3.084   5.651   2.715 -0.4223  0.3939  0.3957
  127SOPE    C113586   3.091   5.592   2.845 -0.4717  1.0439 -0.6137
  127SOPE    HA13587   3.191   5.543   2.850 -1.1229 -0.4578 -1.5812
  127SOPE    HB13588   3.002   5.529   2.867 -0.3828  1.3307  0.6367
  127SOPE    C213589   3.087   5.695   2.956  0.2627 -0.6610 -0.1060
  127SOPE    HS13590   3.080   5.638   3.051  1.3206 -0.8126 -0.1098
  127SOPE   O2113591   2.973   5.785   2.930 -0.2681 -0.3991  0.1468
  127SOPE   C2113592   2.888   5.794   3.028  0.4039  0.1141 -0.3589
  127SOPE   O2213593   2.894   5.734   3.131  0.0348 -0.2279 -0.2054
  127SOPE   C2213594   2.772   5.892   3.001 -0.3880  0.6310 -0.8627
  127SOPE   H2R13595   2.711   5.856   2.915 -3.9204 -0.4444  1.8283
  127SOPE   H2S13596   2.811   5.992   2.971  1.2424 -0.1150 -1.3126
  127SOPE    C313597   3.212   5.778   2.971 -0.2811  0.2591  0.0054
  127SOPE    HX13598   3.222   5.828   2.873  0.1450  0.2800  0.0573
  127SOPE    HY13599   3.293   5.706   2.994 -1.2547 -0.2358  2.1779
  127SOPE   O3113600   3.200   5.875   3.070  0.0090  0.3281 -0.3620
  127SOPE   C3113601   3.236   5.841   3.194 -0.3669  0.2351 -0.8072
  127SOPE   O3213602   3.290   5.736   3.227 -0.5373  0.0246 -0.1686
  127SOPE   C3213603   3.201   5.933   3.310  0.2050 -0.2266  0.7023
  127SOPE   H2X13604   3.294   5.971   3.357  1.3916 -0.8667 -1.0423
  127SOPE   H2Y13605   3.150   5.875   3.390 -0.0727  0.6265  1.1652
  127SOPE   C2313606   2.680   5.891   3.123 -0.0246 -0.2740  0.1423
  127SOPE   H3R13607   2.725   5.908   3.223 -0.9068 -0.6142  0.6107
  127SOPE   H3S13608   2.651   5.783   3.121  1.3120 -0.6733  1.2181
  127SOPE   C2413609   2.547   5.972   3.116 -0.5256  0.0856  0.3079
  127SOPE   H4R13610   2.569   6.081   3.122  0.9172 -0.1345 -0.7338
  127SOPE   H4S13611   2.494   5.952   3.021  0.9968 -0.7967 -0.3771
  127SOPE   C2513612   2.450   5.926   3.220  0.1075  0.3930 -0.3200
  127SOPE   H5R13613   2.348   5.962   3.197 -0.7840  0.2286  2.8426
  127SOPE   H5S13614   2.461   5.815   3.223  0.2790  0.4136 -0.1572
  127SOPE   C2613615   2.479   5.993   3.350  0.4437 -0.1403  0.1862
  127SOPE   H6R13616   2.559   5.937   3.402  1.0834  1.2670  0.7570
  127SOPE   H6S13617   2.509   6.097   3.327 -0.2614  0.3344  1.3211
  127SOPE   C2713618   2.349   6.012   3.430 -0.7265 -0.6851  0.3110
  127SOPE   H7R13619   2.264   6.041   3.365 -1.2890 -1.3387  0.7505
  127SOPE   H7S13620   2.326   5.929   3.499  0.4842 -1.5030 -0.2339
  127SOPE   C2813621   2.362   6.134   3.538 -0.2411 -0.1085 -0.4808
  127SOPE   H8R13622   2.458   6.107   3.588  0.4515  2.1888 -0.4648
  127SOPE   H8S13623   2.372   6.227   3.478 -1.9644 -0.1272 -0.8516
  127SOPE   C2913624   2.239   6.131   3.623  0.3420 -0.5329  0.0352
  127SOPE   H9113625   2.159   6.180   3.565  0.4401 -0.4426 -0.0251
  127SOPE  C21013626   2.217   6.070   3.740  0.3996 -0.1689  0.1700
  127SOPE  H10113627   2.122   6.088   3.793  2.0897  0.0659  3.3207
  127SOPE  C21113628   2.313   5.995   3.827 -0.1691  0.7213  0.6581
  127SOPE  H11R13629   2.412   6.000   3.776 -0.1806  1.6636  0.7012
  127SOPE  H11S13630   2.288   5.889   3.845  1.1071  0.3232  0.2103
  127SOPE  C21213631   2.353   6.066   3.954 -0.2142  0.2743 -0.4808
  127SOPE  H12R13632   2.353   6.175   3.931  0.5152  0.3853 -0.0094
  127SOPE  H12S13633   2.460   6.051   3.982 -0.6044 -0.1736  0.8240
  127SOPE  C21313634   2.252   6.042   4.065 -0.1195 -0.1189 -0.3488
  127SOPE  H13R13635   2.263   5.939   4.106  0.3096  0.0537 -0.0221
  127SOPE  H13S13636   2.149   6.054   4.026 -0.0732 -1.6132 -1.0192
  127SOPE  C21413637   2.279   6.142   4.177  0.5692  0.2354  0.3721
  127SOPE  H14R13638   2.273   6.248   4.144  0.7744  0.3339  0.6482
  127SOPE  H14S13639   2.385   6.121   4.202  1.3877  1.4661 -1.7892
  127SOPE  C21513640   2.182   6.113   4.293 -0.3504 -0.4946  0.4031
  127SOPE  H15R13641   2.197   6.006   4.320  0.0199 -0.2386  1.2365
  127SOPE  H15S13642   2.077   6.117   4.256 -0.4174 -1.6724  0.4369
  127SOPE  C21613643   2.220   6.205   4.408 -0.2980 -0.0697  0.2166
  127SOPE  H16R13644   2.194   6.309   4.377 -1.5666 -0.7982 -1.3591
  127SOPE  H16S13645   2.329   6.203   4.428 -0.3771 -1.8605  0.5982
  127SOPE  C21713646   2.145   6.177   4.543  0.5294  0.3356 -0.5838
  127SOPE  H17R13647   2.181   6.084   4.591  4.1684  0.6704 -2.3154
  127SOPE  H17S13648   2.037   6.164   4.521  0.7899 -0.0088 -1.7082
  127SOPE  C21813649   2.153   6.304   4.631  0.2858  0.3569 -0.7756
  127SOPE  H18R13650   2.259   6.319   4.662  1.3047 -2.6802 -2.3594
  127SOPE  H18S13651   2.090   6.299   4.722 -0.3656 -2.0930 -1.3034
  127SOPE  H18T13652   2.121   6.389   4.568 -0.0689  0.0275 -1.0446
  127SOPE   C3313653   3.098   6.043   3.269 -0.0756 -0.2166 -0.7393
  127SOPE   H3X13654   3.015   5.995   3.215  0.7069  0.4896 -2.6434
  127SOPE   H3Y13655   3.133   6.129   3.207 -0.8952  1.0434  0.4752
  127SOPE   C3413656   3.043   6.124   3.385 -0.1716 -0.3015 -1.0090
  127SOPE   H4X13657   3.096   6.221   3.388  1.3360 -1.0686 -1.7013
  127SOPE   H4Y13658   3.069   6.082   3.484  0.3152 -2.1462 -1.8758
  127SOPE   C3513659   2.881   6.144   3.363 -0.3545  0.0600 -0.2303
  127SOPE   H5X13660   2.835   6.044   3.376  0.6554 -0.1532  2.1910
  127SOPE   H5Y13661   2.873   6.165   3.254  2.0590 -0.9811 -0.6627
  127SOPE   C3613662   2.811   6.236   3.459  0.4086 -0.9288  0.0989
  127SOPE   H6X13663   2.834   6.206   3.564 -0.2854  0.0526  0.5555
  127SOPE   H6Y13664   2.700   6.233   3.445  0.3148 -0.9640  0.8122
  127SOPE   C3713665   2.852   6.387   3.435  0.2069 -0.2677  0.4357
  127SOPE   H7X13666   2.806   6.427   3.341  0.3362  0.0046  0.4853
  127SOPE   H7Y13667   2.961   6.394   3.417  0.0968  3.7481  0.3533
  127SOPE   C3813668   2.813   6.472   3.552  0.1444 -0.0793 -0.5117
  127SOPE   H8X13669   2.856   6.437   3.648 -0.6218  0.2636 -0.0347
  127SOPE   H8Y13670   2.703   6.473   3.566  0.0230 -2.1276 -0.9334
  127SOPE   C3913671   2.858   6.616   3.517 -0.3432 -0.3101 -0.0950
  127SOPE   H9X13672   2.821   6.636   3.414 -0.5940 -0.6948 -0.0846
  127SOPE   H9Y13673   2.969   6.619   3.513 -0.3305  0.5282  0.6105
  127SOPE  C31013674   2.815   6.722   3.619 -0.0590 -0.0455  0.9183
  127SOPE  H10X13675   2.865   6.699   3.716  0.5929 -0.1138  0.5699
  127SOPE  H10Y13676   2.706   6.724   3.642 -0.4215  0.6629 -0.7779
  127SOPE  C31113677   2.857   6.861   3.564  0.0880  0.6821  0.2548
  127SOPE  H11X13678   2.817   6.877   3.462  2.9386 -2.4879 -1.5464
  127SOPE  H11Y13679   2.967   6.875   3.556  0.1638 -0.2159 -0.3172
  127SOPE  C31213680   2.831   6.979   3.665  0.3730 -0.0946  0.6083
  127SOPE  H12X13681   2.721   6.980   3.686  0.4547  0.3641  1.0390
  127SOPE  H12Y13682   2.863   7.073   3.616 -1.9790 -1.0913 -3.4004
  127SOPE  C31313683   2.903   6.965   3.799 -0.1269  0.7113  0.3143
  127SOPE  H13X13684   3.011   6.972   3.775  1.0024 -0.9279  4.1913
  127SOPE  H13Y13685   2.875   6.863   3.832  0.3855 -1.5916 -5.2277
  127SOPE  C31413686   2.879   7.077   3.899  0.3963  0.5882  0.2012
  127SOPE  H14X13687   2.946   7.158   3.863  1.7875 -0.4147  0.4208
  127SOPE  H14Y13688   2.925   7.048   3.996 -0.4217  1.7451  0.9629
  127SOPE  C31513689   2.737   7.117   3.918  0.3723 -0.2495  0.1526
  127SOPE  H15X13690   2.689   7.158   3.827 -0.4528  0.9001  1.0661
  127SOPE  H15Y13691   2.734   7.203   3.989 -0.9557 -0.0878 -0.0610
  127SOPE  C31613692   2.653   7.004   3.972 -1.3149  0.1784  0.2678
  127SOPE  H16X13693   2.707   6.946   4.049  1.2545 -0.5497 -1.9367
  127SOPE  H16Y13694   2.635   6.929   3.892  0.4743 -3.5288  3.0555
  127SOPE  C31713695   2.512   7.048   4.022  0.4312  0.2899 -0.3372
  127SOPE  H17X13696   2.455   7.094   3.938  0.1958  0.3035 -0.1702
  127SOPE  H17Y13697   2.521   7.114   4.111 -1.9564 -0.3611  0.4460
  127SOPE  C31813698   2.437   6.928   4.082 -0.6085  0.6836 -0.2386
  127SOPE  H18X13699   2.507   6.866   4.143 -0.2027 -0.3338 -1.6593
  127SOPE  H18Y13700   2.396   6.863   4.002  0.9031 -0.5576 -0.0481
  127SOPE  H18Z13701   2.349   6.959   4.142  0.8266 -0.3382  2.5860
  128SOPE     N13702   5.045   5.364   3.360  0.4223  0.0066  0.3331
  128SOPE   HN113703   4.969   5.434   3.375  1.6063  1.7052 -1.1816
  128SOPE   HN213704   5.000   5.282   3.315  0.8922  0.1816 -0.4853
  128SOPE   HN313705   5.071   5.340   3.457 -1.4852  0.4446  1.0041
  128SOPE   C1213706   5.158   5.418   3.284 -0.2973 -0.0656 -0.5255
  128SOPE  H12A13707   5.179   5.523   3.313  1.2198 -0.8815  1.6816
  128SOPE  H12B13708   5.140   5.403   3.176  0.7240  1.2034 -0.8998
  128SOPE   C1113709   5.291   5.335   3.325  0.0150  0.0044  0.3303
  128SOPE  H11A13710   5.376   5.386   3.274 -0.2909 -0.6530 -0.8959
  128SOPE  H11B13711   5.283   5.228   3.297  0.8932 -0.3032  1.2094
  128SOPE     P13712   5.428   5.265   3.534  0.0857  0.2358 -0.1766
  128SOPE   O1313713   5.543   5.351   3.506  0.0040 -0.1829  0.0117
  128SOPE   O1413714   5.443   5.129   3.482 -0.3723 -1.0773 -0.0943
  128SOPE   O1213715   5.302   5.337   3.464 -0.3192 -0.6417  0.2701
  128SOPE   O1113716   5.384   5.276   3.685 -0.1402 -0.0160 -0.1425
  128SOPE    C113717   5.286   5.197   3.760 -0.1718 -0.7611  0.0899
  128SOPE    HA13718   5.309   5.096   3.719 -1.4365 -1.3405  0.7572
  128SOPE    HB13719   5.181   5.227   3.736 -0.1254 -0.1789  0.6053
  128SOPE    C213720   5.301   5.194   3.917 -0.3009  0.8511  0.0690
  128SOPE    HS13721   5.208   5.150   3.960 -0.7670  0.9496 -0.8205
  128SOPE   O2113722   5.318   5.322   3.971 -0.2554  0.5217 -0.0694
  128SOPE   C2113723   5.217   5.408   3.959  0.1742  0.0393 -0.2185
  128SOPE   O2213724   5.104   5.377   3.921  0.1096  0.3011 -0.5296
  128SOPE   C2213725   5.251   5.539   4.002 -0.5219 -0.5257  0.0824
  128SOPE   H2R13726   5.209   5.618   3.935  0.9537  0.0357 -0.2108
  128SOPE   H2S13727   5.361   5.554   3.999 -0.7601  1.3194 -1.2043
  128SOPE    C313728   5.424   5.104   3.957  0.2997 -0.0629 -0.0214
  128SOPE    HX13729   5.510   5.137   3.895 -0.4454  1.9414 -0.0559
  128SOPE    HY13730   5.399   5.000   3.926 -2.1396  0.0995  1.1345
  128SOPE   O3113731   5.459   5.113   4.096 -0.4519 -0.9696  0.0414
  128SOPE   C3113732   5.365   5.074   4.176 -0.5370 -0.4193  0.8699
  128SOPE   O3213733   5.259   5.031   4.141  0.5191 -0.1978  0.1867
  128SOPE   C3213734   5.412   5.102   4.314 -0.6991 -0.4112  0.2753
  128SOPE   H2X13735   5.463   5.200   4.322  0.9531 -1.3182  1.4844
  128SOPE   H2Y13736   5.492   5.025   4.329 -2.2204 -2.2223 -0.5242
  128SOPE   C2313737   5.207   5.542   4.153  0.2487  0.1795 -0.2853
  128SOPE   H3R13738   5.100   5.512   4.159  0.0316  1.0849  0.5436
  128SOPE   H3S13739   5.205   5.650   4.178  3.0066  1.1803 -3.5059
  128SOPE   C2413740   5.288   5.463   4.253 -0.0679 -0.7477 -0.0429
  128SOPE   H4R13741   5.295   5.357   4.221 -1.5916 -0.0797 -2.9467
  128SOPE   H4S13742   5.395   5.492   4.241  0.0562 -1.4408 -0.7062
  128SOPE   C2513743   5.244   5.475   4.404  0.1377  0.0064 -0.3980
  128SOPE   H5R13744   5.134   5.486   4.409  0.1146  0.0926 -0.9516
  128SOPE   H5S13745   5.270   5.382   4.459  1.4324 -0.5627 -1.8660
  128SOPE   C2613746   5.311   5.598   4.471  0.2309  0.2412  0.0147
  128SOPE   H6R13747   5.323   5.691   4.411 -1.3433 -0.2353 -1.1124
  128SOPE   H6S13748   5.249   5.633   4.556  0.7116  0.7199  0.1746
  128SOPE   C2713749   5.458   5.560   4.523 -0.9963  0.3407 -0.5167
  128SOPE   H7R13750   5.481   5.453   4.505  0.6405  0.8355 -1.5475
  128SOPE   H7S13751   5.533   5.624   4.473 -1.2015  0.4311 -0.7116
  128SOPE   C2813752   5.478   5.590   4.668  0.0007  0.4129  0.5278
  128SOPE   H8R13753   5.585   5.616   4.677  0.1308  0.7055 -1.4314
  128SOPE   H8S13754   5.420   5.682   4.692  1.0866  0.7451  2.0493
  128SOPE   C2913755   5.451   5.486   4.776 -0.1438 -0.2413  0.9705
  128SOPE   H9113756   5.527   5.406   4.781  0.1927  0.0761  0.9061
  128SOPE  C21013757   5.338   5.478   4.848  0.1600  0.4592 -0.0042
  128SOPE  H10113758   5.317   5.392   4.914 -0.3220  0.1467 -0.5488
  128SOPE  C21113759   5.219   5.565   4.826 -0.2818 -0.1316 -0.5980
  128SOPE  H11R13760   5.146   5.506   4.767 -2.7492  1.4165  0.6974
  128SOPE  H11S13761   5.234   5.658   4.766  0.3085  0.8939  1.0648
  128SOPE  C21213762   5.146   5.600   4.958  0.2285 -0.1974 -0.1645
  128SOPE  H12R13763   5.134   5.512   5.025 -0.2014  2.0129  2.8871
  128SOPE  H12S13764   5.048   5.644   4.929  0.7417  0.1403 -1.4374
  128SOPE  C21313765   5.221   5.708   5.044 -0.5872  0.2390  0.1981
  128SOPE  H13R13766   5.224   5.805   4.990 -0.6808 -0.0581 -0.3516
  128SOPE  H13S13767   5.324   5.668   5.050 -0.4869  0.6207  1.1308
  128SOPE  C21413768   5.154   5.715   5.183 -0.0456 -0.2194 -0.8037
  128SOPE  H14R13769   5.171   5.625   5.246  2.2292  0.2861 -0.6148
  128SOPE  H14S13770   5.045   5.730   5.170 -0.2857  0.3918  1.4835
  128SOPE  C21513771   5.216   5.823   5.265 -0.4466 -0.1116 -0.2999
  128SOPE  H15R13772   5.200   5.916   5.205 -0.9646  0.0671  0.1047
  128SOPE  H15S13773   5.325   5.807   5.268 -0.2044  1.5311  2.3000
  128SOPE  C21613774   5.156   5.836   5.407  0.4750 -0.1408  0.2190
  128SOPE  H16R13775   5.130   5.735   5.446 -1.7347  0.6310  0.8593
  128SOPE  H16S13776   5.058   5.888   5.411 -0.1131 -1.2950  1.4487
  128SOPE  C21713777   5.241   5.916   5.511 -0.1103 -0.6532  0.1912
  128SOPE  H17R13778   5.256   6.017   5.468 -0.7260  0.1400  1.7626
  128SOPE  H17S13779   5.348   5.885   5.508 -0.4061 -1.7232  0.1425
  128SOPE  C21813780   5.186   5.931   5.650  0.5070  0.4921  0.1513
  128SOPE  H18R13781   5.108   6.009   5.665  0.8713  0.9855 -0.4871
  128SOPE  H18S13782   5.268   5.963   5.718 -0.4272  1.0233  1.0699
  128SOPE  H18T13783   5.157   5.831   5.689  1.9591 -0.4629 -1.1210
  128SOPE   C3313784   5.297   5.067   4.413 -0.2600 -0.7616  0.3237
  128SOPE   H3X13785   5.242   4.974   4.387 -0.7271 -1.0908  2.2936
  128SOPE   H3Y13786   5.225   5.153   4.411 -0.1530 -0.6305  1.3728
  128SOPE   C3413787   5.339   5.045   4.557  0.1340  0.1318  0.2172
  128SOPE   H4X13788   5.387   5.140   4.588  1.5420  0.5380 -2.7993
  128SOPE   H4Y13789   5.414   4.965   4.577  0.3112 -0.0465 -1.0594
  128SOPE   C3513790   5.220   5.003   4.642  0.1386 -1.1811 -0.0847
  128SOPE   H5X13791   5.277   5.006   4.737  1.1487  0.0327 -0.6910
  128SOPE   H5Y13792   5.184   4.899   4.623  1.5685 -1.5224 -1.1032
  128SOPE   C3613793   5.105   5.108   4.649  0.3096  0.3444 -0.1914
  128SOPE   H6X13794   5.056   5.110   4.550  0.9664  0.1821 -0.5267
  128SOPE   H6Y13795   5.146   5.205   4.684  2.8128 -1.0754  1.1372
  128SOPE   C3713796   4.995   5.064   4.747  0.6993 -0.0852  0.7161
  128SOPE   H7X13797   4.977   4.955   4.730  0.0341  0.1460 -0.1215
  128SOPE   H7Y13798   4.900   5.116   4.723  0.7677  0.0438  0.7285
  128SOPE   C3813799   5.046   5.094   4.889 -0.3937  0.5655 -0.3044
  128SOPE   H8X13800   5.051   5.201   4.917  1.9642 -0.4291  3.9028
  128SOPE   H8Y13801   5.150   5.059   4.908 -0.6116  0.0534 -0.0179
  128SOPE   C3913802   4.948   5.024   4.982  0.0450  0.2088 -0.1355
  128SOPE   H9X13803   4.939   4.919   4.950  0.8943 -0.2326  1.0048
  128SOPE   H9Y13804   4.854   5.083   4.981  0.8330  1.5176  0.1598
  128SOPE  C31013805   5.004   5.016   5.126  0.0251 -0.1921  0.0403
  128SOPE  H10X13806   5.020   5.116   5.171 -0.3516 -0.3978  0.6411
  128SOPE  H10Y13807   5.089   4.948   5.145  0.8577  0.8133 -0.0025
  128SOPE  C31113808   4.894   4.949   5.213 -0.7618  0.3247 -0.1082
  128SOPE  H11X13809   4.856   4.858   5.163  0.6448  0.0062 -0.6637
  128SOPE  H11Y13810   4.807   5.016   5.226 -1.3281 -0.5647  0.8078
  128SOPE  C31213811   4.938   4.904   5.348 -1.0853  0.4658  0.1038
  128SOPE  H12X13812   4.996   4.981   5.403  0.6617  0.0912 -1.1249
  128SOPE  H12Y13813   5.017   4.828   5.334 -0.5349  0.8369  1.1278
  128SOPE  C31313814   4.831   4.862   5.441 -0.1939  0.4649 -0.7904
  128SOPE  H13X13815   4.775   4.779   5.393  0.5582 -0.4348 -0.1525
  128SOPE  H13Y13816   4.763   4.948   5.457 -1.3157 -0.0111 -2.7104
  128SOPE  C31413817   4.892   4.813   5.575 -0.7023  0.1795  0.2889
  128SOPE  H14X13818   4.958   4.900   5.595  0.4675 -0.7714  0.7303
  128SOPE  H14Y13819   4.971   4.735   5.561  0.3093  1.3766 -0.9153
  128SOPE  C31513820   4.787   4.788   5.683 -0.1638 -0.3092  0.3218
  128SOPE  H15X13821   4.754   4.682   5.693 -0.0127 -0.3239  0.6722
  128SOPE  H15Y13822   4.701   4.846   5.641  0.2542 -0.0673 -0.2101
  128SOPE  C31613823   4.816   4.839   5.824  0.4241  0.8074 -0.7134
  128SOPE  H16X13824   4.821   4.949   5.832 -3.4944  1.0549  0.3761
  128SOPE  H16Y13825   4.917   4.800   5.848 -0.8393 -1.1970  1.9550
  128SOPE  C31713826   4.721   4.790   5.941  0.0863  0.0169  1.0381
  128SOPE  H17X13827   4.700   4.681   5.947  2.0786 -0.6657 -2.1514
  128SOPE  H17Y13828   4.621   4.828   5.913  0.8657 -0.1288 -2.3987
  128SOPE  C31813829   4.745   4.837   6.082 -0.2321 -0.6171  0.7679
  128SOPE  H18X13830   4.740   4.947   6.090 -0.1612 -0.6417  1.2280
  128SOPE  H18Y13831   4.839   4.795   6.125  0.4597  0.9657  0.8372
  128SOPE  H18Z13832   4.661   4.807   6.149  0.8225 -0.4991  2.1956
  129OSM      N13833   0.848   2.407   8.292 -0.0262  0.0748 -0.2280
  129OSM    C1513834   0.980   2.341   8.276 -0.1296 -0.3241  0.6821
  129OSM   H15A13835   1.056   2.345   8.353  1.0600 -3.5122 -0.1586
  129OSM   H15B13836   1.033   2.364   8.185  1.9691 -2.7759  1.1491
  129OSM   H15C13837   0.967   2.234   8.275 -0.7522 -0.2595  1.3464
  129OSM    C1413838   0.781   2.384   8.422 -0.0466  0.1617  0.7537
  129OSM   H14A13839   0.845   2.407   8.505 -1.1188 -1.5982  2.1642
  129OSM   H14B13840   0.753   2.280   8.435 -1.2349  0.3029 -0.4219
  129OSM   H14C13841   0.697   2.452   8.428  0.5216  0.7688  4.0191
  129OSM    C1313842   0.863   2.559   8.277 -0.3722 -0.2284  0.2221
  129OSM   H13A13843   0.899   2.585   8.178  0.3405  2.0149  0.9966
  129OSM   H13B13844   0.940   2.594   8.344  0.2307 -0.2205 -0.4638
  129OSM   H13C13845   0.768   2.610   8.293 -0.1987  0.3187 -0.4266
  129OSM    C1213846   0.745   2.353   8.190 -0.0018 -0.8467  0.3080
  129OSM   H12A13847   0.654   2.408   8.211  1.7548  1.0544  3.7334
  129OSM   H12B13848   0.723   2.253   8.223 -1.3118 -0.4083  0.8101
  129OSM    C1113849   0.787   2.363   8.041  0.2790 -0.5348 -0.0999
  129OSM   H11A13850   0.837   2.458   8.013  1.2189 -0.3176  2.1087
  129OSM   H11B13851   0.695   2.347   7.980  1.8448  0.8889 -3.0337
  129OSM      P13852   0.834   2.115   7.991 -0.2228  0.6111  0.5657
  129OSM    O1313853   0.952   2.029   8.027 -0.5835  0.0152  0.1012
  129OSM    O1413854   0.710   2.089   8.060  0.6354  0.3915 -0.1402
  129OSM    O1113855   0.817   2.101   7.828 -0.4605  0.4804 -0.1844
  129OSM    O1213856   0.883   2.257   8.015  0.2430 -0.3659  0.1052
  129OSM    C1S13857   0.909   2.147   7.731 -0.4714 -0.5996 -0.0970
  129OSM    H1S13858   1.005   2.097   7.759 -1.3499 -2.2941 -0.0013
  129OSM    H1T13859   0.927   2.255   7.747 -2.2168 -0.3768  0.5027
  129OSM     NF13860   0.957   2.153   7.497 -0.1225  0.3211 -0.5423
  129OSM    HNF13861   0.922   2.224   7.436 -0.8554 -0.0384 -0.5569
  129OSM    C2S13862   0.868   2.108   7.595  0.4575  0.3324 -0.1630
  129OSM    H2S13863   0.867   1.997   7.589 -1.4254  0.2376  1.1294
  129OSM    C3S13864   0.720   2.143   7.563  0.1549  0.1577  0.3310
  129OSM    H3S13865   0.705   2.253   7.568 -2.0689  0.0438 -1.8830
  129OSM     O313866   0.614   2.098   7.655  0.2951 -0.5627 -0.6335
  129OSM    HO313867   0.665   2.045   7.717 -0.7997  1.3342  2.0436
  129OSM    C4S13868   0.689   2.098   7.421  0.2107  0.7662 -0.2216
  129OSM    H4S13869   0.676   2.184   7.353  2.7024  0.9057 -0.6100
  129OSM    C5S13870   0.638   1.973   7.386  0.4810  0.2119 -0.6148
  129OSM    H5S13871   0.613   1.902   7.466 -1.0475  1.4155  0.0255
  129OSM    C6S13872   0.585   1.939   7.253 -0.5023 -0.7123  0.0770
  129OSM    H6S13873   0.476   1.918   7.249 -1.1327  2.3141 -0.5615
  129OSM    H6T13874   0.621   1.834   7.243 -0.4752 -0.8325  1.3095
  129OSM    C7S13875   0.627   2.030   7.135  0.3293 -0.1184 -1.3018
  129OSM    H7S13876   0.735   2.036   7.113  0.6943  0.3459  0.4628
  129OSM    H7T13877   0.593   2.133   7.160  0.4391 -0.4714  0.4124
  129OSM    C8S13878   0.558   1.991   7.002  0.1661 -0.1919  0.3592
  129OSM    H8S13879   0.450   1.990   7.029  0.0599 -2.4564  0.0557
  129OSM    H8T13880   0.584   1.886   6.977 -1.4366 -1.2120  2.5759
  129OSM    C9S13881   0.595   2.081   6.878 -0.8333  0.0217 -0.6154
  129OSM    H9S13882   0.704   2.068   6.868 -0.8987 -2.2457  0.9194
  129OSM    H9T13883   0.566   2.182   6.915 -0.3296  0.6549 -1.9086
  129OSM   C10S13884   0.521   2.052   6.752  0.2761  0.5724  0.2192
  129OSM   H10S13885   0.427   2.110   6.739 -0.1344  0.1886  1.2806
  129OSM   H10T13886   0.500   1.943   6.751 -0.1708  0.6334  1.2574
  129OSM   C11S13887   0.597   2.089   6.618  0.2918 -0.4193  0.4480
  129OSM   H11S13888   0.691   2.031   6.630  0.8552 -0.1105 -1.9552
  129OSM   H11T13889   0.611   2.200   6.621  2.4169 -0.5989 -0.8626
  129OSM   C12S13890   0.510   2.044   6.493 -0.4791  0.4342 -0.6202
  129OSM   H12S13891   0.417   2.102   6.480 -0.4479  0.5521 -0.3161
  129OSM   H12T13892   0.499   1.933   6.491  2.6941  0.0058  0.0010
  129OSM   C13S13893   0.589   2.052   6.357  0.1569 -0.6932 -0.0349
  129OSM   H13S13894   0.517   2.027   6.276 -0.7492 -0.3878  0.6681
  129OSM   H13T13895   0.667   1.973   6.361 -0.5560 -1.3954  0.1520
  129OSM   C14S13896   0.655   2.184   6.320  0.1129  0.1877  0.0603
  129OSM   H14S13897   0.735   2.193   6.397 -1.5952 -0.5688  1.9964
  129OSM   H14T13898   0.581   2.267   6.325 -0.4693 -0.4012  2.4457
  129OSM   C15S13899   0.729   2.180   6.188 -0.4094  0.7608  0.3507
  129OSM   H15S13900   0.765   2.076   6.178 -1.8226  0.1592  1.2606
  129OSM   H15T13901   0.814   2.252   6.189  1.6169 -1.5314  0.5923
  129OSM   C16S13902   0.633   2.205   6.075 -0.2165 -0.3613 -1.1230
  129OSM   H16S13903   0.610   2.314   6.067 -0.8050 -0.3032  0.9403
  129OSM   H16T13904   0.537   2.155   6.100  0.5550 -0.3637  2.2639
  129OSM   C17S13905   0.682   2.147   5.938  0.2695  0.4379 -0.4452
  129OSM   H17S13906   0.716   2.041   5.949 -1.7253  0.0046  2.5137
  129OSM   H17T13907   0.766   2.211   5.903  0.3745  0.2890 -0.4662
  129OSM   C18S13908   0.571   2.148   5.842 -0.2838  0.0895 -0.4408
  129OSM   H18S13909   0.483   2.096   5.886  0.4783  0.1969  1.2959
  129OSM   H18T13910   0.605   2.108   5.744  1.7444 -1.1053  0.6729
  129OSM   H18U13911   0.546   2.251   5.810 -0.7268 -0.1894 -1.0037
  129OSM    C1F13912   1.084   2.127   7.496 -1.2897  0.0011  0.6967
  129OSM     OF13913   1.137   2.041   7.564 -0.2542 -0.5182 -0.3860
  129OSM    C2F13914   1.169   2.211   7.401  0.5298  0.1215  0.5262
  129OSM    H2F13915   1.200   2.298   7.463 -0.5758  1.6649 -0.9936
  129OSM    H2G13916   1.103   2.258   7.326  0.5145 -1.5248 -0.5512
  129OSM    C3F13917   1.299   2.142   7.333  0.4826 -0.6319  0.0050
  129OSM    H3F13918   1.270   2.038   7.311 -1.8468 -0.3921  1.6361
  129OSM    H3G13919   1.373   2.134   7.416  0.8805 -1.8913 -0.4585
  129OSM    C4F13920   1.361   2.225   7.221 -0.5764  0.8615 -0.7758
  129OSM    H4F13921   1.280   2.222   7.144 -1.2932  0.2896 -0.0192
  129OSM    H4G13922   1.444   2.169   7.174 -2.6994 -0.8025 -2.8066
  129OSM    C5F13923   1.394   2.367   7.253  0.8248  0.1360 -0.5328
  129OSM    H5F13924   1.446   2.375   7.350 -2.6267  0.2323  1.4746
  129OSM    H5G13925   1.310   2.438   7.269  1.1070 -0.2184  3.2635
  129OSM    C6F13926   1.503   2.415   7.154 -0.5270  0.3324  0.5612
  129OSM    H6F13927   1.588   2.344   7.153 -1.1641 -0.4377  0.3105
  129OSM    H6G13928   1.558   2.502   7.196 -1.1060  0.5105  0.9681
  129OSM    C7F13929   1.453   2.439   7.010 -0.7736  0.7409 -0.3199
  129OSM    H7F13930   1.389   2.530   7.017 -0.5334  0.9817 -1.2174
  129OSM    H7G13931   1.390   2.360   6.965  1.0474 -0.3281 -1.0579
  129OSM    C8F13932   1.571   2.489   6.919 -0.3439  0.7044 -0.2060
  129OSM    H8F13933   1.615   2.566   6.986 -1.5792  0.0750  1.4081
  129OSM    H8G13934   1.525   2.529   6.826  2.2167  0.9202 -1.4489
  129OSM    C9F13935   1.679   2.388   6.894  0.6650 -0.6621 -0.3524
  129OSM    H9F13936   1.738   2.365   6.983  1.2975 -4.4373 -1.5476
  129OSM   C10F13937   1.700   2.325   6.782  0.2340 -0.3971  0.2305
  129OSM   H10F13938   1.791   2.263   6.774  0.0996 -0.5155 -0.4500
  129OSM   C11F13939   1.618   2.344   6.660  0.1495 -0.1133  0.9902
  129OSM   H11F13940   1.511   2.343   6.689  0.4853 -0.1308  2.2919
  129OSM   H11G13941   1.627   2.255   6.594  0.5308 -0.2983  1.2899
  129OSM   C12F13942   1.640   2.468   6.572 -0.0327 -0.1203 -1.0556
  129OSM   H12F13943   1.670   2.559   6.629  0.6755 -2.2088  2.1267
  129OSM   H12G13944   1.542   2.486   6.523 -0.9502  0.4784  0.9189
  129OSM   C13F13945   1.726   2.443   6.455 -0.1356  0.0932  0.0236
  129OSM   H13F13946   1.706   2.347   6.404  0.5810 -0.7392  1.2784
  129OSM   H13G13947   1.833   2.454   6.484 -0.5444 -0.1159  1.7483
  129OSM   C14F13948   1.711   2.553   6.354  0.7914 -0.2205 -0.1867
  129OSM   H14F13949   1.716   2.653   6.403  0.2741  0.2984 -1.1783
  129OSM   H14G13950   1.605   2.557   6.322  0.9085 -1.4371 -0.7453
  129OSM   C15F13951   1.793   2.544   6.227 -0.2879 -0.2252  0.0701
  129OSM   H15F13952   1.780   2.447   6.176 -0.6564 -0.2779  0.2576
  129OSM   H15G13953   1.903   2.547   6.235 -0.0705  3.8102 -1.9866
  129OSM   C16F13954   1.748   2.656   6.124 -0.7157  0.1604 -0.9951
  129OSM   H16F13955   1.775   2.759   6.156  1.7363 -0.9654  0.8690
  129OSM   H16G13956   1.637   2.652   6.122 -0.7710  1.0667 -0.4139
  129OSM   C17F13957   1.816   2.622   5.988 -0.0237 -0.0964  0.2028
  129OSM   H17F13958   1.807   2.513   5.971  2.6149 -0.6301  1.6568
  129OSM   H17G13959   1.922   2.655   5.985  0.8791 -2.8002  0.0724
  129OSM   C18F13960   1.751   2.684   5.862 -0.4272 -0.6041 -0.1381
  129OSM   H18F13961   1.646   2.648   5.850 -0.7673  0.4369 -0.4202
  129OSM   H18G13962   1.806   2.669   5.767  1.1899  0.2798  0.6251
  129OSM   H18H13963   1.739   2.794   5.874 -2.5184 -0.7125 -0.7826
  130OSM      N13964   2.700   1.974   8.306 -0.2054  0.5994 -0.1495
  130OSM    C1513965   2.717   2.045   8.437 -1.1112  0.1681  0.1134
  130OSM   H15A13966   2.680   1.994   8.524  1.5035 -3.7806 -0.8030
  130OSM   H15B13967   2.668   2.141   8.426 -0.6453  0.2011 -2.3466
  130OSM   H15C13968   2.823   2.045   8.458 -0.8973 -0.6471 -0.8813
  130OSM    C1413969   2.778   1.840   8.319 -0.3956 -0.5661  0.0091
  130OSM   H14A13970   2.768   1.806   8.421  0.9588  3.9282  1.9171
  130OSM   H14B13971   2.881   1.856   8.290 -1.1162  0.9876 -1.9484
  130OSM   H14C13972   2.734   1.771   8.249  0.2396  0.1237 -1.1112
  130OSM    C1313973   2.555   1.936   8.292  0.2524  0.5019  0.2207
  130OSM   H13A13974   2.529   1.903   8.192 -0.9789  1.1331  0.3167
  130OSM   H13B13975   2.497   2.025   8.311  4.3048  3.1785  1.3194
  130OSM   H13C13976   2.516   1.864   8.363  0.3026  0.4843  0.2313
  130OSM    C1213977   2.744   2.060   8.189  0.0170  0.6782 -0.6057
  130OSM   H12A13978   2.751   1.991   8.106  0.4435 -0.2183  0.1584
  130OSM   H12B13979   2.844   2.096   8.207 -0.1671  1.7157 -1.5457
  130OSM    C1113980   2.654   2.178   8.146 -0.2401  0.6284 -0.1177
  130OSM   H11A13981   2.574   2.137   8.081  0.7098 -1.2159 -0.1911
  130OSM   H11B13982   2.721   2.231   8.075  1.3919 -1.6622 -0.3646
  130OSM      P13983   2.474   2.311   8.280  0.0041 -0.5297 -0.2206
  130OSM    O1313984   2.391   2.196   8.313 -0.0432  0.4946 -0.4048
  130OSM    O1413985   2.461   2.419   8.384  0.3579  0.0010  0.7424
  130OSM    O1113986   2.423   2.362   8.147 -0.3519 -0.2939 -0.4496
  130OSM    O1213987   2.624   2.265   8.252 -1.0339  0.6574 -0.1448
  130OSM    C1S13988   2.476   2.475   8.079 -0.5244 -0.2481 -0.0264
  130OSM    H1S13989   2.576   2.503   8.118 -0.8262 -0.0095  0.5905
  130OSM    H1T13990   2.410   2.562   8.098 -1.7350 -1.0568 -0.4255
  130OSM     NF13991   2.545   2.565   7.862  0.0408 -0.1360  0.3380
  130OSM    HNF13992   2.477   2.616   7.809  0.6559 -0.2445 -0.5850
  130OSM    C2S13993   2.481   2.447   7.926 -0.2824 -0.3011 -0.3299
  130OSM    H2S13994   2.551   2.361   7.923  0.3865  0.2444 -0.9921
  130OSM    C3S13995   2.344   2.394   7.864 -0.5851 -0.1479 -0.4694
  130OSM    H3S13996   2.274   2.479   7.876 -0.0221  0.3524 -0.7071
  130OSM     O313997   2.279   2.288   7.936  0.4041 -0.0853 -0.1886
  130OSM    HO313998   2.334   2.285   8.014 -0.4539  1.2988  0.5078
  130OSM    C4S13999   2.359   2.357   7.728  0.2425 -0.1539 -0.1171
  130OSM    H4S14000   2.282   2.400   7.661 -0.2695 -0.5464  0.2139
  130OSM    C5S14001   2.427   2.248   7.686  1.0085  0.3701  0.2841
  130OSM    H5S14002   2.484   2.188   7.758  0.4841 -1.4857 -0.7940
  130OSM    C6S14003   2.432   2.195   7.544  0.5438 -0.2511 -1.0256
  130OSM    H6S14004   2.349   2.121   7.537 -0.3947  0.5881  0.4945
  130OSM    H6T14005   2.534   2.162   7.517  0.3004 -0.9546 -1.1011
  130OSM    C7S14006   2.395   2.304   7.440  0.0638  0.4331 -0.3070
  130OSM    H7S14007   2.471   2.384   7.450 -2.9786  3.3256  1.4631
  130OSM    H7T14008   2.294   2.349   7.455 -1.6803 -3.6897  2.0042
  130OSM    C8S14009   2.419   2.259   7.290 -0.2928 -0.4781  0.3658
  130OSM    H8S14010   2.357   2.169   7.270 -1.6215  0.0879  1.6896
  130OSM    H8T14011   2.525   2.226   7.280 -0.5480 -1.1749 -0.0787
  130OSM    C9S14012   2.390   2.368   7.186 -0.0690  0.5272 -0.4593
  130OSM    H9S14013   2.455   2.457   7.206 -0.4023  0.5212  0.7135
  130OSM    H9T14014   2.290   2.416   7.193 -0.7481 -1.0404  1.8425
  130OSM   C10S14015   2.417   2.332   7.041  0.3409  0.7423  0.0627
  130OSM   H10S14016   2.339   2.258   7.012  0.1188  0.4253  1.4047
  130OSM   H10T14017   2.517   2.286   7.031 -0.3720 -0.9391  0.3796
  130OSM   C11S14018   2.395   2.442   6.944 -0.0127 -0.5723 -0.1711
  130OSM   H11S14019   2.460   2.529   6.967 -0.3857 -0.1972 -0.5264
  130OSM   H11T14020   2.291   2.479   6.960 -0.5211 -2.8574  2.5669
  130OSM   C12S14021   2.415   2.404   6.799 -0.3178  0.2643 -0.0459
  130OSM   H12S14022   2.358   2.312   6.774  2.2874 -1.0695 -1.4374
  130OSM   H12T14023   2.521   2.372   6.795  0.0688  1.0898  2.1514
  130OSM   C13S14024   2.386   2.525   6.712 -0.5598 -0.1316  0.2247
  130OSM   H13S14025   2.366   2.617   6.771 -0.5188 -0.8642  1.4042
  130OSM   H13T14026   2.291   2.495   6.663 -1.0845 -0.3692  1.3492
  130OSM   C14S14027   2.497   2.565   6.608  0.4817 -0.2454  0.5061
  130OSM   H14S14028   2.599   2.570   6.651 -0.0183  1.1760  1.6062
  130OSM   H14T14029   2.465   2.666   6.575 -0.4572 -0.5082  0.5793
  130OSM   C15S14030   2.507   2.491   6.471  0.4653 -0.1194 -0.0186
  130OSM   H15S14031   2.412   2.513   6.418  0.1536 -0.7989  0.2449
  130OSM   H15T14032   2.508   2.383   6.497 -1.0917  0.3175  2.0062
  130OSM   C16S14033   2.620   2.531   6.382 -0.4424 -0.3921 -0.4447
  130OSM   H16S14034   2.720   2.513   6.427 -0.8323  1.4097  1.2629
  130OSM   H16T14035   2.610   2.638   6.353 -1.6172 -0.0661  1.0426
  130OSM   C17S14036   2.610   2.451   6.248 -0.2413 -0.0348 -0.4305
  130OSM   H17S14037   2.542   2.513   6.184  1.7145  1.0191 -1.5749
  130OSM   H17T14038   2.573   2.348   6.264  0.6161 -0.1925  0.6123
  130OSM   C18S14039   2.741   2.438   6.172 -0.0469  0.4094 -0.0166
  130OSM   H18S14040   2.735   2.390   6.072  0.3356  1.5794 -0.6109
  130OSM   H18T14041   2.800   2.378   6.244 -2.4108 -0.3475  1.4049
  130OSM   H18U14042   2.779   2.540   6.151 -3.4892  1.2572 -3.2460
  130OSM    C1F14043   2.672   2.604   7.877  0.7824  0.3959  0.3378
  130OSM     OF14044   2.757   2.530   7.935  0.0682  0.2212 -0.0252
  130OSM    C2F14045   2.706   2.737   7.814  0.0248 -0.1147 -0.1792
  130OSM    H2F14046   2.672   2.826   7.871 -2.6165 -0.8047 -0.5437
  130OSM    H2G14047   2.664   2.732   7.711  1.0367  1.5445 -0.7101
  130OSM    C3F14048   2.859   2.752   7.777  0.2208 -0.3898  0.8710
  130OSM    H3F14049   2.901   2.671   7.713  0.5313  2.1732 -2.4203
  130OSM    H3G14050   2.923   2.748   7.868 -0.3098 -2.1291  1.2176
  130OSM    C4F14051   2.896   2.871   7.695  0.4256 -0.0129  0.2654
  130OSM    H4F14052   3.005   2.856   7.677 -0.2029 -3.0200 -1.5908
  130OSM    H4G14053   2.882   2.961   7.760  0.0320 -1.5900  2.4765
  130OSM    C5F14054   2.810   2.885   7.563 -0.1090  0.0112 -0.3619
  130OSM    H5F14055   2.722   2.939   7.603  0.4198  0.3784  0.3452
  130OSM    H5G14056   2.789   2.786   7.518 -1.5977  0.8466 -1.5715
  130OSM    C6F14057   2.876   2.980   7.467  0.0096  0.2936 -0.1030
  130OSM    H6F14058   2.973   2.933   7.441 -0.1530 -0.7767  1.1271
  130OSM    H6G14059   2.893   3.080   7.514  1.3545  0.4564 -0.8612
  130OSM    C7F14060   2.794   3.012   7.340  0.5676 -0.8632 -0.2495
  130OSM    H7F14061   2.699   3.057   7.376 -0.1126 -3.0725  0.8553
  130OSM    H7G14062   2.778   2.926   7.272  0.4198 -1.6386  0.7507
  130OSM    C8F14063   2.859   3.126   7.253  0.4215 -0.2193  0.2614
  130OSM    H8F14064   2.879   3.206   7.328 -0.3559 -1.7218  2.1528
  130OSM    H8G14065   2.786   3.175   7.185 -1.9318 -1.1989  1.9581
  130OSM    C9F14066   2.987   3.086   7.176  0.4277 -0.1573 -0.5749
  130OSM    H9F14067   3.067   3.055   7.244 -0.2173 -2.2293 -0.6820
  130OSM   C10F14068   3.015   3.075   7.047  0.1049  0.0859 -0.2028
  130OSM   H10F14069   3.119   3.054   7.019  0.1175 -1.6595  0.9676
  130OSM   C11F14070   2.915   3.098   6.938 -0.6286 -0.0787 -0.5340
  130OSM   H11F14071   2.818   3.070   6.983 -1.1017  0.0901 -1.4312
  130OSM   H11G14072   2.941   3.026   6.856 -0.0782 -1.1065  0.5093
  130OSM   C12F14073   2.906   3.246   6.913 -0.4327 -1.0235  0.0001
  130OSM   H12F14074   2.910   3.297   7.011 -1.8936  0.5352 -0.6925
  130OSM   H12G14075   2.803   3.268   6.877 -0.1925  0.2817  0.0709
  130OSM   C13F14076   3.011   3.307   6.821  0.1979 -0.1893  0.1450
  130OSM   H13F14077   3.117   3.288   6.850  0.2154  0.9583  0.9155
  130OSM   H13G14078   3.014   3.417   6.835  1.8374  0.4045 -3.6841
  130OSM   C14F14079   3.003   3.279   6.666 -0.6603  0.0220 -0.0332
  130OSM   H14F14080   2.912   3.335   6.635  0.4939  3.2769  1.9343
  130OSM   H14G14081   2.989   3.171   6.644  1.7256 -0.7620  1.8543
  130OSM   C15F14082   3.125   3.338   6.600 -0.4202  0.0687  0.4920
  130OSM   H15F14083   3.209   3.284   6.647 -0.5777  0.6667  1.4945
  130OSM   H15G14084   3.133   3.447   6.622  1.7316  0.2666 -1.0197
  130OSM   C16F14085   3.124   3.319   6.446  0.8227 -0.5875 -0.2092
  130OSM   H16F14086   3.032   3.363   6.401  0.6726  0.0285  0.6787
  130OSM   H16G14087   3.127   3.210   6.426  0.0661 -0.2725 -2.2905
  130OSM   C17F14088   3.247   3.386   6.380 -0.3651  0.4715  0.1383
  130OSM   H17F14089   3.338   3.332   6.414  0.7083 -0.0836 -3.2201
  130OSM   H17G14090   3.252   3.494   6.407 -0.0276  1.0876 -2.1539
  130OSM   C18F14091   3.251   3.375   6.226  0.0734 -0.1236 -0.7114
  130OSM   H18F14092   3.241   3.267   6.203  0.7596  0.0254 -1.7662
  130OSM   H18G14093   3.340   3.426   6.182  1.0735  0.7275  2.0777
  130OSM   H18H14094   3.163   3.423   6.179 -0.4614 -1.9189 -1.6451
  131OSM      N14095   2.891   2.760   8.282  0.5288  0.7356 -0.0771
  131OSM    C1514096   2.822   2.841   8.394  0.2060 -0.0522 -1.0383
  131OSM   H15A14097   2.738   2.788   8.436  0.2135  1.1614  0.6250
  131OSM   H15B14098   2.791   2.935   8.352 -0.0196 -0.2740 -1.3764
  131OSM   H15C14099   2.882   2.858   8.482 -1.2169  0.5381 -0.1631
  131OSM    C1414100   2.960   2.641   8.343  0.1165 -0.2585  0.4939
  131OSM   H14A14101   3.044   2.606   8.285 -0.2614  0.3612 -0.4343
  131OSM   H14B14102   2.897   2.557   8.369  0.6716 -0.3298  1.7008
  131OSM   H14C14103   3.009   2.664   8.437  0.0878  0.5805  0.3091
  131OSM    C1314104   2.786   2.709   8.188  0.6390 -0.2046  0.2216
  131OSM   H13A14105   2.743   2.796   8.139  2.1596  1.6524  1.9807
  131OSM   H13B14106   2.705   2.671   8.248  2.3075 -1.3438  1.8783
  131OSM   H13C14107   2.818   2.629   8.123  1.7358 -0.1659  0.6916
  131OSM    C1214108   2.982   2.851   8.218  0.0002  0.2892  0.0268
  131OSM   H12A14109   3.053   2.785   8.170 -0.3139 -0.3767  0.4556
  131OSM   H12B14110   3.031   2.904   8.298  1.8113 -0.3351 -0.6273
  131OSM    C1114111   2.916   2.950   8.113 -1.0299 -0.6308  0.2080
  131OSM   H11A14112   2.864   2.899   8.029 -2.7325  2.5396 -0.8347
  131OSM   H11B14113   3.007   2.998   8.072 -2.4906  1.4389 -0.7541
  131OSM      P14114   2.680   3.079   8.112  0.1384  0.2850  0.2217
  131OSM    O1314115   2.599   2.957   8.122  0.1337 -0.1789  0.2251
  131OSM    O1414116   2.627   3.198   8.183  0.2746  0.2390  0.0934
  131OSM    O1114117   2.693   3.115   7.959  0.2556 -0.4375  0.3479
  131OSM    O1214118   2.826   3.051   8.168  0.0598  0.1600 -0.1814
  131OSM    C1S14119   2.788   3.225   7.922  0.2248 -0.0551  0.7839
  131OSM    H1S14120   2.891   3.192   7.945  0.7423  0.4221 -0.7283
  131OSM    H1T14121   2.764   3.319   7.976  1.0151  0.1271  0.8203
  131OSM     NF14122   2.910   3.322   7.724  0.1022 -0.2508  0.7501
  131OSM    HNF14123   2.907   3.421   7.729 -1.1156 -0.0854 -1.5489
  131OSM    C2S14124   2.797   3.247   7.763  0.7355 -0.0858  0.6321
  131OSM    H2S14125   2.795   3.144   7.722  2.1944 -0.2191  0.8672
  131OSM    C3S14126   2.658   3.314   7.710 -0.0043  0.2133 -0.1486
  131OSM    H3S14127   2.633   3.414   7.750 -1.6531 -0.0993 -0.3294
  131OSM     O314128   2.543   3.233   7.758  0.2536 -0.6396 -0.1656
  131OSM    HO314129   2.584   3.165   7.812  2.3001 -1.1150 -2.1546
  131OSM    C4S14130   2.645   3.313   7.562 -0.5994  0.4943 -0.0108
  131OSM    H4S14131   2.622   3.224   7.501  0.5994  1.8549 -2.6002
  131OSM    C5S14132   2.679   3.426   7.499 -0.8275 -0.4376  0.0935
  131OSM    H5S14133   2.717   3.511   7.559  0.5383 -1.1221  0.2434
  131OSM    C6S14134   2.664   3.451   7.351 -0.0364 -0.3146  0.4072
  131OSM    H6S14135   2.667   3.358   7.290  1.5303  1.0134 -1.6834
  131OSM    H6T14136   2.750   3.517   7.325 -0.5029  0.0868 -0.1382
  131OSM    C7S14137   2.537   3.528   7.317  0.4716 -0.1397  0.1264
  131OSM    H7S14138   2.520   3.606   7.394  1.4787  0.5737 -0.3492
  131OSM    H7T14139   2.447   3.463   7.324  0.2734  0.3162  2.6243
  131OSM    C8S14140   2.541   3.604   7.187  0.0921  0.3156  0.5560
  131OSM    H8S14141   2.644   3.629   7.153 -0.5164  0.9931 -0.8775
  131OSM    H8T14142   2.480   3.696   7.199  0.1336  0.4829 -0.4696
  131OSM    C9S14143   2.495   3.523   7.069  0.1050 -0.0789  0.9774
  131OSM    H9S14144   2.399   3.472   7.091  0.0201 -1.5514 -2.2016
  131OSM    H9T14145   2.557   3.432   7.054  0.1866 -0.1529  1.7136
  131OSM   C10S14146   2.489   3.602   6.935  0.6580 -0.3669 -0.3443
  131OSM   H10S14147   2.466   3.709   6.956 -0.5272 -1.0175  2.0726
  131OSM   H10T14148   2.398   3.572   6.879  0.5559 -0.7898  0.0365
  131OSM   C11S14149   2.615   3.586   6.835  0.3678 -0.2674 -0.1874
  131OSM   H11S14150   2.641   3.479   6.826 -1.3353 -0.9351  2.0029
  131OSM   H11T14151   2.693   3.639   6.895  0.6798 -1.0966  0.1567
  131OSM   C12S14152   2.607   3.659   6.706  0.7462 -0.7131 -0.3521
  131OSM   H12S14153   2.561   3.759   6.722  0.9618 -0.6971  0.2063
  131OSM   H12T14154   2.544   3.598   6.637  1.3930 -1.0768 -0.6236
  131OSM   C13S14155   2.742   3.675   6.638 -0.1745  0.1057  0.0642
  131OSM   H13S14156   2.779   3.578   6.598  1.1045  0.7879 -0.4587
  131OSM   H13T14157   2.808   3.710   6.720 -0.0976  3.6763 -1.3440
  131OSM   C14S14158   2.751   3.771   6.516 -0.1967  0.2893 -0.1486
  131OSM   H14S14159   2.724   3.876   6.538  0.1490  0.1714  0.9269
  131OSM   H14T14160   2.667   3.742   6.450 -1.0749  0.1115  1.0097
  131OSM   C15S14161   2.888   3.764   6.451  0.0239  0.6167  0.8514
  131OSM   H15S14162   2.927   3.660   6.442  2.6834  1.7240 -2.0004
  131OSM   H15T14163   2.964   3.821   6.509  2.3764  0.0260 -1.5027
  131OSM   C16S14164   2.895   3.843   6.314 -0.5839  1.1443 -0.1926
  131OSM   H16S14165   2.851   3.942   6.337  0.0320  1.5903 -0.8812
  131OSM   H16T14166   2.832   3.782   6.246 -1.2123 -0.4042  1.6911
  131OSM   C17S14167   3.034   3.859   6.265  0.0679  0.8388 -0.0153
  131OSM   H17S14168   3.080   3.758   6.272 -0.9896  0.4228  1.5226
  131OSM   H17T14169   3.094   3.926   6.331  0.0728  0.6402  0.1844
  131OSM   C18S14170   3.049   3.905   6.127  0.0189  0.6105 -0.0406
  131OSM   H18S14171   3.156   3.919   6.103 -0.2013 -1.4358 -2.7208
  131OSM   H18T14172   3.005   4.006   6.113  1.4797  1.3132  0.3126
  131OSM   H18U14173   3.003   3.834   6.054  2.3239 -0.3758 -0.6081
  131OSM    C1F14174   3.032   3.268   7.722 -0.2136  0.1241 -0.1754
  131OSM     OF14175   3.052   3.150   7.759  0.5994  0.0894 -0.7647
  131OSM    C2F14176   3.156   3.351   7.706  0.1391  0.2241 -0.3998
  131OSM    H2F14177   3.226   3.340   7.791  1.3377  1.5416 -1.1532
  131OSM    H2G14178   3.131   3.459   7.691 -1.8274  0.3223  2.8373
  131OSM    C3F14179   3.237   3.310   7.578 -0.7017  0.6333  0.2510
  131OSM    H3F14180   3.278   3.211   7.607  1.8355  2.0958  1.9598
  131OSM    H3G14181   3.321   3.381   7.563 -1.6002  1.6745  0.0018
  131OSM    C4F14182   3.157   3.304   7.451 -0.2867  0.6944  0.1986
  131OSM    H4F14183   3.076   3.229   7.461 -0.7731  1.1804 -0.0213
  131OSM    H4G14184   3.223   3.272   7.368 -0.4765  2.5590 -0.7283
  131OSM    C5F14185   3.098   3.441   7.406 -0.2328  0.0487  0.6687
  131OSM    H5F14186   3.176   3.514   7.438 -0.7097  0.1695  1.5842
  131OSM    H5G14187   3.001   3.461   7.456 -1.2841 -0.3994 -1.1149
  131OSM    C6F14188   3.082   3.457   7.252  0.6247 -0.1280 -0.1853
  131OSM    H6F14189   2.996   3.397   7.216 -1.1446  1.9586  0.3384
  131OSM    H6G14190   3.171   3.410   7.204  0.6763  0.4171 -0.6409
  131OSM    C7F14191   3.047   3.598   7.201 -0.3749 -0.1692 -0.9144
  131OSM    H7F14192   3.135   3.666   7.198 -0.6646  0.2752  0.1418
  131OSM    H7G14193   2.984   3.635   7.285  0.2141 -1.0507 -0.0646
  131OSM    C8F14194   2.966   3.610   7.069 -0.9076  0.0869  0.0579
  131OSM    H8F14195   2.871   3.556   7.092 -2.0819  0.9484 -2.4197
  131OSM    H8G14196   3.012   3.565   6.979  2.5128 -0.1244  1.7470
  131OSM    C9F14197   2.918   3.748   7.056 -0.2327  0.4815  0.3163
  131OSM    H9F14198   2.830   3.779   7.115  0.8872  1.0232  1.7751
  131OSM   C10F14199   2.970   3.855   7.000  0.1882  0.5838 -0.0019
  131OSM   H10F14200   2.907   3.945   7.000 -0.0501  0.4439 -1.6262
  131OSM   C11F14201   3.100   3.867   6.923 -0.3121  0.6326  0.2722
  131OSM   H11F14202   3.179   3.813   6.979 -2.0213 -1.4687  0.8167
  131OSM   H11G14203   3.135   3.972   6.918 -0.8628  0.7804 -0.8664
  131OSM   C12F14204   3.120   3.805   6.781  0.2392  0.6036 -0.1331
  131OSM   H12F14205   3.034   3.823   6.713 -0.4142 -2.3020 -0.2464
  131OSM   H12G14206   3.139   3.695   6.788  3.1868  0.7708 -3.2743
  131OSM   C13F14207   3.245   3.864   6.710 -1.0463  0.3268  0.0723
  131OSM   H13F14208   3.337   3.829   6.762 -2.2065 -0.7837  1.4645
  131OSM   H13G14209   3.237   3.974   6.697  0.0874  0.2572 -1.5416
  131OSM   C14F14210   3.275   3.812   6.566 -0.3818 -0.4535 -0.2903
  131OSM   H14F14211   3.190   3.832   6.498  0.2626 -0.7443 -1.2144
  131OSM   H14G14212   3.287   3.701   6.563 -0.5681 -0.4958  0.3801
  131OSM   C15F14213   3.390   3.889   6.493  0.5137 -0.7040 -0.0962
  131OSM   H15F14214   3.481   3.895   6.556 -0.0165 -2.1955  0.8665
  131OSM   H15G14215   3.352   3.992   6.479  3.4694  0.3959 -0.6595
  131OSM   C16F14216   3.418   3.832   6.358 -0.1251  0.1405  0.0160
  131OSM   H16F14217   3.324   3.796   6.312 -1.3627  0.6156  2.0546
  131OSM   H16G14218   3.485   3.743   6.364  0.6916  0.6774 -0.8801
  131OSM   C17F14219   3.486   3.929   6.260 -0.0655 -0.8914 -0.2105
  131OSM   H17F14220   3.583   3.955   6.307 -0.7189 -0.2824  0.8401
  131OSM   H17G14221   3.436   4.027   6.250  0.9839  0.1107  3.1530
  131OSM   C18F14222   3.509   3.874   6.117 -0.0311  0.2248  0.4641
  131OSM   H18F14223   3.409   3.869   6.069 -0.2557 -0.0863  0.9489
  131OSM   H18G14224   3.543   3.768   6.117 -0.0381  0.2218  0.6295
  131OSM   H18H14225   3.582   3.947   6.076 -1.8024  1.1733 -1.1716
  132OSM      N14226   2.800   0.923   8.152 -0.1826  0.6612  0.4270
  132OSM    C1514227   2.867   0.832   8.251 -0.4575  0.2648  0.6356
  132OSM   H15A14228   2.789   0.784   8.308 -0.9661 -0.1545 -0.3815
  132OSM   H15B14229   2.930   0.896   8.311  2.4452 -0.5496 -1.3280
  132OSM   H15C14230   2.907   0.746   8.199 -0.3476  2.6580 -3.6426
  132OSM    C1414231   2.694   0.845   8.087  0.0686 -1.2225  0.7937
  132OSM   H14A14232   2.731   0.763   8.029 -0.3544 -1.0910  0.3304
  132OSM   H14B14233   2.639   0.905   8.015 -1.1080 -0.1284  2.5143
  132OSM   H14C14234   2.622   0.802   8.155 -0.3520 -1.1683  0.3908
  132OSM    C1314235   2.739   1.026   8.232  0.2162  0.0935 -0.2005
  132OSM   H13A14236   2.809   1.059   8.307 -2.0617  0.4695  1.9046
  132OSM   H13B14237   2.652   0.980   8.277 -0.6346  2.5163  0.7865
  132OSM   H13C14238   2.709   1.115   8.178 -0.0003  0.6373  0.8006
  132OSM    C1214239   2.906   0.973   8.044  0.2445 -0.3602 -0.6059
  132OSM   H12A14240   2.937   0.884   7.991  0.7855  0.3210 -1.4481
  132OSM   H12B14241   2.989   1.003   8.108  0.2946 -5.0137  2.0136
  132OSM    C1114242   2.845   1.086   7.951  0.4546  0.2605  0.3248
  132OSM   H11A14243   2.748   1.050   7.911  0.5983  0.0205  0.1895
  132OSM   H11B14244   2.904   1.103   7.858 -0.0663  0.2756 -0.0087
  132OSM      P14245   2.930   1.313   8.028  0.3529 -0.2938 -0.0329
  132OSM    O1314246   2.867   1.433   8.085 -0.2209 -0.1508  0.0014
  132OSM    O1414247   3.041   1.254   8.112 -0.1476 -0.8148  0.1549
  132OSM    O1114248   2.981   1.342   7.887 -0.4128  0.1597  0.6583
  132OSM    O1214249   2.819   1.209   8.013  0.1835 -0.0862  0.8021
  132OSM    C1S14250   2.916   1.373   7.765  0.1290 -0.1479 -0.5088
  132OSM    H1S14251   2.844   1.455   7.789 -1.2583 -1.4027 -0.2221
  132OSM    H1T14252   2.851   1.290   7.729  1.4554 -1.1677 -0.5914
  132OSM     NF14253   2.946   1.471   7.538  0.5419 -0.1454 -0.0661
  132OSM    HNF14254   2.944   1.419   7.453 -0.4138  0.7896 -0.6400
  132OSM    C2S14255   3.016   1.428   7.657  0.0659  0.7726 -0.3477
  132OSM    H2S14256   3.083   1.504   7.701 -0.6168  1.3727 -0.3183
  132OSM    C3S14257   3.104   1.307   7.624 -0.1339  0.3110  0.4800
  132OSM    H3S14258   3.035   1.221   7.609  0.4650 -0.3093  1.2147
  132OSM     O314259   3.199   1.275   7.725  0.4326  0.1711  0.2530
  132OSM    HO314260   3.156   1.308   7.804  4.2327  1.6124  1.9756
  132OSM    C4S14261   3.178   1.328   7.494  0.0968  0.3133 -0.6832
  132OSM    H4S14262   3.116   1.324   7.404 -2.3387  1.4800  0.8509
  132OSM    C5S14263   3.305   1.348   7.483 -0.4013  0.0696  0.6520
  132OSM    H5S14264   3.372   1.341   7.569  2.0354  1.6895 -0.9879
  132OSM    C6S14265   3.384   1.362   7.356 -0.3091  0.1868 -0.0713
  132OSM    H6S14266   3.438   1.268   7.333 -0.6325 -0.2269  0.8003
  132OSM    H6T14267   3.459   1.442   7.375  1.5584 -1.6530  0.7454
  132OSM    C7S14268   3.301   1.384   7.231 -0.6868 -0.4075 -0.1266
  132OSM    H7S14269   3.245   1.478   7.246  1.0364  0.4597  1.3310
  132OSM    H7T14270   3.218   1.311   7.223 -1.1218 -0.1160  1.4176
  132OSM    C8S14271   3.390   1.379   7.108  0.3310 -0.3665 -0.2276
  132OSM    H8S14272   3.427   1.275   7.092 -0.4618 -0.3752 -2.3717
  132OSM    H8T14273   3.483   1.435   7.130  0.5813 -0.5193 -0.8798
  132OSM    C9S14274   3.316   1.434   6.984 -0.4895 -0.1695 -0.2186
  132OSM    H9S14275   3.256   1.524   7.009  1.7400  1.1211  0.8396
  132OSM    H9T14276   3.239   1.362   6.950 -0.8308 -0.3631  0.9112
  132OSM   C10S14277   3.409   1.461   6.871 -0.6817 -0.6380 -0.0812
  132OSM   H10S14278   3.419   1.373   6.804  2.4200 -2.7026  2.7619
  132OSM   H10T14279   3.510   1.477   6.913 -0.6979  0.2191 -0.3543
  132OSM   C11S14280   3.369   1.588   6.793  0.2472 -0.4808 -0.1696
  132OSM   H11S14281   3.404   1.683   6.839  1.3539  0.3547 -2.5430
  132OSM   H11T14282   3.261   1.587   6.770  0.7857  0.5568 -3.1181
  132OSM   C12S14283   3.445   1.606   6.657  0.4848  0.2163 -0.2619
  132OSM   H12S14284   3.442   1.503   6.615  1.2898  0.6386 -1.3939
  132OSM   H12T14285   3.554   1.625   6.668  1.3957 -2.4812 -3.1686
  132OSM   C13S14286   3.372   1.701   6.564  0.0900  0.0862 -0.0016
  132OSM   H13S14287   3.379   1.800   6.613 -1.4072 -0.4352  1.3294
  132OSM   H13T14288   3.265   1.673   6.549 -0.2095  2.2520 -3.0021
  132OSM   C14S14289   3.430   1.706   6.423 -0.1801 -0.2289 -0.0320
  132OSM   H14S14290   3.428   1.605   6.376 -1.6104 -0.7098  0.9833
  132OSM   H14T14291   3.530   1.753   6.431 -1.3172  2.4958 -0.6170
  132OSM   C15S14292   3.350   1.792   6.321 -0.0723  0.1479 -0.1663
  132OSM   H15S14293   3.329   1.887   6.374 -1.9185 -0.4788  0.2816
  132OSM   H15T14294   3.257   1.732   6.311 -0.8963  1.6633 -2.0746
  132OSM   C16S14295   3.407   1.820   6.178  0.1357  0.1924 -0.2033
  132OSM   H16S14296   3.409   1.722   6.126 -0.7440  0.6249 -1.0842
  132OSM   H16T14297   3.510   1.862   6.184  0.7937 -1.1674 -1.3547
  132OSM   C17S14298   3.316   1.917   6.092 -0.5736 -0.2752 -0.4785
  132OSM   H17S14299   3.354   2.014   6.133 -0.7373 -0.2453 -0.3966
  132OSM   H17T14300   3.218   1.885   6.132  0.2445 -2.1224  0.1536
  132OSM   C18S14301   3.327   1.903   5.940  0.3646 -0.0551  0.3381
  132OSM   H18S14302   3.287   1.803   5.911 -1.3670  0.3633  1.1827
  132OSM   H18T14303   3.434   1.910   5.909  0.4003 -0.8986  0.2358
  132OSM   H18U14304   3.289   1.987   5.879  0.3638  1.2192  2.0078
  132OSM    C1F14305   2.859   1.575   7.546  0.7102  0.5251 -1.2761
  132OSM     OF14306   2.870   1.660   7.638 -0.3122  0.2013  0.6225
  132OSM    C2F14307   2.759   1.577   7.439 -0.2741 -0.4714  0.2135
  132OSM    H2F14308   2.668   1.518   7.463 -0.7752  0.4510  0.6294
  132OSM    H2G14309   2.800   1.525   7.350 -0.0925  0.3335 -0.1827
  132OSM    C3F14310   2.715   1.717   7.384 -0.0070  0.0695 -0.1421
  132OSM    H3F14311   2.814   1.756   7.353 -0.4713  1.4753  0.1011
  132OSM    H3G14312   2.669   1.784   7.459 -1.2553 -0.2354 -0.6175
  132OSM    C4F14313   2.630   1.717   7.253 -0.7964  0.7306  0.0947
  132OSM    H4F14314   2.522   1.692   7.266 -0.8597  0.6887 -0.4704
  132OSM    H4G14315   2.674   1.640   7.185  1.2280  3.1320 -1.4694
  132OSM    C5F14316   2.637   1.847   7.192  0.1266 -0.4063 -0.3644
  132OSM    H5F14317   2.745   1.871   7.180  0.3996 -1.5379 -0.2900
  132OSM    H5G14318   2.595   1.928   7.256  3.8024  0.4766  1.1961
  132OSM    C6F14319   2.551   1.869   7.061  0.7603 -0.1290  0.3297
  132OSM    H6F14320   2.555   1.973   7.021  3.0858 -0.7839 -1.3428
  132OSM    H6G14321   2.445   1.850   7.087  1.1574  0.1537  2.2939
  132OSM    C7F14322   2.599   1.778   6.950  1.5055 -0.1154  0.3184
  132OSM    H7F14323   2.628   1.677   6.986 -1.2255 -1.6300 -1.4149
  132OSM    H7G14324   2.692   1.825   6.910  0.8270  1.2643  0.3010
  132OSM    C8F14325   2.492   1.761   6.836 -0.1297 -0.0009 -0.2292
  132OSM    H8F14326   2.403   1.706   6.872  0.2629 -0.5958 -0.1401
  132OSM    H8G14327   2.543   1.694   6.763  0.0791 -0.3471  0.2310
  132OSM    C9F14328   2.455   1.889   6.769 -0.0141  0.3181  0.4359
  132OSM    H9F14329   2.370   1.940   6.817  0.8765  2.0203  0.2971
  132OSM   C10F14330   2.526   1.967   6.685  0.0032  0.1974  0.4220
  132OSM   H10F14331   2.476   2.057   6.645  0.5333 -0.3923 -1.7388
  132OSM   C11F14332   2.649   1.924   6.606  0.5523  0.3904 -0.2867
  132OSM   H11F14333   2.670   1.819   6.635 -1.1771  0.5718  1.8503
  132OSM   H11G14334   2.738   1.978   6.644  0.2806 -1.0237  2.5893
  132OSM   C12F14335   2.631   1.932   6.448  0.6710 -0.3836  0.0164
  132OSM   H12F14336   2.544   1.866   6.429  2.0084 -1.5248 -2.8161
  132OSM   H12G14337   2.727   1.892   6.410  0.9134 -1.5875  1.8068
  132OSM   C13F14338   2.605   2.064   6.377 -0.1988 -0.2074  0.1017
  132OSM   H13F14339   2.684   2.140   6.393 -1.3961  1.0569  0.1788
  132OSM   H13G14340   2.513   2.102   6.427  1.5925  2.8921  1.3581
  132OSM   C14F14341   2.581   2.053   6.227  0.1092  0.5353  0.0377
  132OSM   H14F14342   2.518   2.135   6.186  1.1759  0.6919 -1.3769
  132OSM   H14G14343   2.523   1.959   6.217  1.2926 -0.4122  1.6233
  132OSM   C15F14344   2.715   2.034   6.152 -1.1211  0.0945  0.1201
  132OSM   H15F14345   2.778   1.952   6.194  0.3064  1.3614  0.5537
  132OSM   H15G14346   2.772   2.128   6.169 -0.0708 -0.0269 -2.3356
  132OSM   C16F14347   2.701   2.015   6.000  0.8633 -0.6409 -0.3829
  132OSM   H16F14348   2.641   2.099   5.959  1.4274 -0.6802 -1.2984
  132OSM   H16G14349   2.636   1.927   5.984  1.1716 -1.2635  1.4847
  132OSM   C17F14350   2.828   2.010   5.920  0.6711  0.0877  0.8287
  132OSM   H17F14351   2.883   1.915   5.937  0.0807 -0.1717  1.3041
  132OSM   H17G14352   2.889   2.097   5.952  1.1444  1.1331 -2.5110
  132OSM   C18F14353   2.796   2.007   5.774  0.4709  0.9492 -0.4428
  132OSM   H18F14354   2.747   1.910   5.751 -1.1027  1.1481  1.8156
  132OSM   H18G14355   2.896   2.010   5.725  1.6819 -2.6133  1.4423
  132OSM   H18H14356   2.732   2.094   5.750 -0.4474  0.7378  1.0776
  133OSM      N14357   0.563   2.908   8.015 -0.7613  0.6596 -0.1970
  133OSM    C1514358   0.638   2.860   7.900  0.6051  0.0242 -0.0730
  133OSM   H15A14359   0.743   2.846   7.923  0.8623  0.6353 -0.8062
  133OSM   H15B14360   0.641   2.933   7.820 -1.2471  0.6266  0.3674
  133OSM   H15C14361   0.602   2.767   7.858 -1.0262  1.0208 -0.9521
  133OSM    C1414362   0.603   3.051   8.041  0.1551  0.1152 -0.6714
  133OSM   H14A14363   0.578   3.113   7.956 -1.6539  0.7705  0.2903
  133OSM   H14B14364   0.707   3.074   8.059 -0.1565  1.4219 -0.4533
  133OSM   H14C14365   0.552   3.090   8.127  2.5866 -0.3156  1.0601
  133OSM    C1314366   0.418   2.919   7.975 -0.2112 -0.1793  0.5627
  133OSM   H13A14367   0.368   3.003   8.021 -2.2098 -0.5725 -0.8059
  133OSM   H13B14368   0.372   2.826   8.005 -0.5165  0.3117  1.6923
  133OSM   H13C14369   0.415   2.938   7.869  1.1422 -0.7195  0.4055
  133OSM    C1214370   0.581   2.824   8.138 -0.0365  0.4913  0.3838
  133OSM   H12A14371   0.515   2.863   8.214  0.9961  1.7608  0.6749
  133OSM   H12B14372   0.683   2.828   8.174  1.0660 -4.2629 -1.3919
  133OSM    C1114373   0.544   2.667   8.134 -0.5684 -0.2867 -0.1289
  133OSM   H11A14374   0.590   2.628   8.226 -1.7422 -0.5584  0.3635
  133OSM   H11B14375   0.605   2.628   8.050  3.7193  2.4645  1.3434
  133OSM      P14376   0.345   2.509   8.085 -0.0786  0.0951  0.1950
  133OSM    O1314377   0.412   2.397   8.152  0.4720  0.3964 -0.5650
  133OSM    O1414378   0.202   2.513   8.106 -0.7831 -0.1670  0.2530
  133OSM    O1114379   0.385   2.494   7.928  0.3125 -0.3168  0.0020
  133OSM    O1214380   0.408   2.644   8.133  0.4319 -0.0230  0.1447
  133OSM    C1S14381   0.359   2.605   7.845  0.0202 -0.8647 -0.4401
  133OSM    H1S14382   0.450   2.668   7.850 -0.6164  0.1639 -1.3065
  133OSM    H1T14383   0.272   2.667   7.874  2.2831  2.5617 -0.4393
  133OSM     NF14384   0.373   2.690   7.612 -0.1800  0.3140  0.5324
  133OSM    HNF14385   0.293   2.731   7.569  0.3903  0.0465 -0.8415
  133OSM    C2S14386   0.356   2.565   7.692 -0.6920  0.1961  0.1572
  133OSM    H2S14387   0.439   2.497   7.664 -0.5427  0.9644 -1.3696
  133OSM    C3S14388   0.227   2.484   7.663  0.1510 -0.2762 -0.2723
  133OSM    H3S14389   0.137   2.548   7.678  0.7261  0.3001  0.8145
  133OSM     O314390   0.202   2.369   7.747 -0.3456 -0.2690  0.5368
  133OSM    HO314391   0.255   2.383   7.825  1.5179 -0.5788 -0.6190
  133OSM    C4S14392   0.236   2.447   7.516  0.1201 -0.6071  0.1384
  133OSM    H4S14393   0.171   2.500   7.445 -0.6208 -3.5138 -1.5016
  133OSM    C5S14394   0.310   2.342   7.474 -0.6486 -0.0039  0.4731
  133OSM    H5S14395   0.360   2.274   7.543 -0.2754  0.7080  0.9217
  133OSM    C6S14396   0.314   2.294   7.330  0.4037  0.3280 -0.1401
  133OSM    H6S14397   0.257   2.199   7.337  2.6600 -1.0018  2.1561
  133OSM    H6T14398   0.411   2.248   7.301  0.4659  1.7160 -2.3995
  133OSM    C7S14399   0.261   2.388   7.225  0.3177  0.4064  0.2199
  133OSM    H7S14400   0.333   2.471   7.242 -0.8715  0.9103  3.5335
  133OSM    H7T14401   0.160   2.433   7.235 -0.1267  0.5588 -3.6275
  133OSM    C8S14402   0.287   2.335   7.087  0.1411 -0.2954  0.0509
  133OSM    H8S14403   0.234   2.240   7.069  0.2365 -0.2694 -0.3624
  133OSM    H8T14404   0.391   2.297   7.077  0.3278 -0.4066  1.9558
  133OSM    C9S14405   0.257   2.428   6.966  0.4104  0.3248  0.7692
  133OSM    H9S14406   0.325   2.516   6.972  0.8039 -0.0127  1.4799
  133OSM    H9T14407   0.152   2.463   6.976  0.9083  2.3295 -0.3727
  133OSM   C10S14408   0.295   2.360   6.832  0.2657 -0.2019 -0.2985
  133OSM   H10S14409   0.257   2.256   6.842 -1.0936  0.1319 -1.6863
  133OSM   H10T14410   0.406   2.361   6.825  0.3890 -0.2102  1.1726
  133OSM   C11S14411   0.236   2.438   6.720 -0.3717 -0.2103 -0.0111
  133OSM   H11S14412   0.269   2.543   6.736 -1.7749  0.2168  0.2651
  133OSM   H11T14413   0.126   2.432   6.736 -0.2104 -1.9407  0.7227
  133OSM   C12S14414   0.272   2.391   6.582 -0.8318  0.3903  0.6389
  133OSM   H12S14415   0.265   2.282   6.561  1.0117  0.4990 -0.9219
  133OSM   H12T14416   0.379   2.415   6.564  0.0543 -3.5058 -0.2666
  133OSM   C13S14417   0.199   2.460   6.468 -0.2625  0.0414 -0.1655
  133OSM   H13S14418   0.191   2.570   6.480  1.3890 -0.0035  1.8584
  133OSM   H13T14419   0.095   2.420   6.470 -1.1779  2.2287 -0.8935
  133OSM   C14S14420   0.267   2.437   6.330  0.6311  0.1066 -0.3518
  133OSM   H14S14421   0.238   2.335   6.296  0.4068 -0.0805  0.3954
  133OSM   H14T14422   0.378   2.444   6.335  0.5368  2.8835 -0.3279
  133OSM   C15S14423   0.221   2.529   6.224 -0.6729 -0.2994 -0.0433
  133OSM   H15S14424   0.253   2.630   6.256  1.1517 -0.4988 -1.1166
  133OSM   H15T14425   0.111   2.546   6.220 -0.6074  1.0856  2.1480
  133OSM   C16S14426   0.270   2.491   6.087  0.2256  0.1006 -0.1064
  133OSM   H16S14427   0.215   2.404   6.046  2.5586 -1.1481 -0.7991
  133OSM   H16T14428   0.379   2.474   6.097  0.3969  1.2174  0.0343
  133OSM   C17S14429   0.254   2.609   5.991  0.7215 -0.0827 -0.7285
  133OSM   H17S14430   0.327   2.581   5.912 -0.9449  0.4675 -2.5268
  133OSM   H17T14431   0.283   2.710   6.028  0.8765  0.1515 -1.4773
  133OSM   C18S14432   0.108   2.621   5.945  0.4037 -0.0197  0.3398
  133OSM   H18S14433   0.045   2.631   6.036 -3.4515  1.5788 -2.2078
  133OSM   H18T14434   0.074   2.526   5.899  1.5100 -1.9473  3.2486
  133OSM   H18U14435   0.087   2.715   5.889  0.7424 -0.4136 -0.4756
  133OSM    C1F14436   0.493   2.745   7.591  0.4834  0.4251 -0.3612
  133OSM     OF14437   0.587   2.678   7.623  0.3619 -0.4011 -0.3856
  133OSM    C2F14438   0.517   2.877   7.526  0.2684  0.0393  0.6974
  133OSM    H2F14439   0.624   2.906   7.518 -0.2673  1.6913 -1.5058
  133OSM    H2G14440   0.460   2.952   7.584 -0.6116 -0.1202  0.0544
  133OSM    C3F14441   0.467   2.864   7.380 -0.0854 -0.9868 -0.0408
  133OSM    H3F14442   0.483   2.968   7.343 -1.2846 -1.0754 -0.8737
  133OSM    H3G14443   0.357   2.845   7.384 -0.2700  0.1571  1.0745
  133OSM    C4F14444   0.527   2.758   7.282 -0.0797 -0.2355  0.1259
  133OSM    H4F14445   0.537   2.661   7.334  3.4879  1.3142  2.7694
  133OSM    H4G14446   0.637   2.776   7.272 -0.2785  1.6764  0.8882
  133OSM    C5F14447   0.465   2.748   7.143  0.6583 -0.9308 -0.3733
  133OSM    H5F14448   0.355   2.734   7.150  0.4537  0.4744 -0.3725
  133OSM    H5G14449   0.520   2.667   7.091  1.8686 -0.6350  0.4089
  133OSM    C6F14450   0.491   2.878   7.062  0.3278 -0.4012 -0.3222
  133OSM    H6F14451   0.600   2.894   7.052  0.5062 -0.9775  0.5309
  133OSM    H6G14452   0.460   2.967   7.120 -1.3500 -0.9642 -0.2992
  133OSM    C7F14453   0.405   2.870   6.941 -0.4330 -0.2338  0.3271
  133OSM    H7F14454   0.301   2.867   6.980 -0.4649  1.2332  0.4094
  133OSM    H7G14455   0.433   2.773   6.894 -2.2434 -1.6613  2.0245
  133OSM    C8F14456   0.426   2.993   6.850 -0.3913  0.1436  0.2548
  133OSM    H8F14457   0.431   3.080   6.920  2.3998  1.6670 -1.6661
  133OSM    H8G14458   0.341   3.005   6.780 -0.2586 -0.4748 -0.0230
  133OSM    C9F14459   0.559   2.990   6.774  0.4025 -0.0501 -0.1147
  133OSM    H9F14460   0.647   3.041   6.817  0.1710  0.8067 -0.6355
  133OSM   C10F14461   0.569   2.939   6.648  0.1259 -0.9820  0.3732
  133OSM   H10F14462   0.666   2.929   6.597  0.9789  1.1386  1.4395
  133OSM   C11F14463   0.460   2.875   6.562  0.6178 -0.5487 -0.5135
  133OSM   H11F14464   0.381   2.834   6.629  1.1151 -0.6489  0.0224
  133OSM   H11G14465   0.489   2.790   6.498 -0.7139  0.2425 -2.2489
  133OSM   C12F14466   0.386   2.961   6.464 -0.2939 -0.1578  0.4861
  133OSM   H12F14467   0.346   3.057   6.505  3.6199  1.6074  0.6223
  133OSM   H12G14468   0.295   2.908   6.431 -2.0185  2.0788  1.3895
  133OSM   C13F14469   0.478   2.992   6.339  0.5634 -0.3216  0.0450
  133OSM   H13F14470   0.503   2.896   6.288  1.7952  0.0367 -0.0805
  133OSM   H13G14471   0.578   3.027   6.373 -0.0731 -1.1004  2.9989
  133OSM   C14F14472   0.404   3.090   6.237 -0.1721  0.1503 -0.1704
  133OSM   H14F14473   0.406   3.195   6.272  1.4953  0.1462 -0.1489
  133OSM   H14G14474   0.296   3.065   6.242 -0.3303  0.9463  0.8285
  133OSM   C15F14475   0.471   3.076   6.093 -0.5202 -0.2344 -0.2453
  133OSM   H15F14476   0.454   2.974   6.052  2.7656 -1.3475  0.7938
  133OSM   H15G14477   0.580   3.087   6.112 -0.5801  0.8195 -0.4649
  133OSM   C16F14478   0.425   3.177   5.995 -0.4190 -0.1406  0.0323
  133OSM   H16F14479   0.457   3.271   6.045  0.6497 -0.4856  0.0358
  133OSM   H16G14480   0.316   3.183   5.978 -0.5520 -1.3915  0.3605
  133OSM   C17F14481   0.493   3.169   5.864 -0.1166 -0.3114 -0.4734
  133OSM   H17F14482   0.444   3.104   5.788  0.8602  1.2867 -2.5627
  133OSM   H17G14483   0.595   3.125   5.880  0.4264  1.3284  0.8547
  133OSM   C18F14484   0.507   3.312   5.788 -0.3632  0.1718  0.5544
  133OSM   H18F14485   0.408   3.335   5.742  1.1215  0.1934 -2.9477
  133OSM   H18G14486   0.586   3.306   5.710 -2.0572 -1.0409 -1.1516
  133OSM   H18H14487   0.549   3.386   5.859  2.9732 -1.6576  0.6984
  134OSM      N14488   5.639   2.006   8.613 -0.0932  0.5333 -0.3353
  134OSM    C1514489   5.577   2.090   8.719 -0.0576  0.6395 -0.6897
  134OSM   H15A14490   5.636   2.176   8.747  0.2596 -0.2571  1.6377
  134OSM   H15B14491   5.572   2.035   8.812 -0.2197 -0.3323 -1.2674
  134OSM   H15C14492   5.475   2.114   8.693 -0.4958  0.0478  0.4274
  134OSM    C1414493   5.772   1.952   8.648  0.6173  0.1482 -0.1934
  134OSM   H14A14494   5.811   1.891   8.569 -0.1694  0.5825 -0.9371
  134OSM   H14B14495   5.768   1.899   8.743  1.1170  0.6333  0.1043
  134OSM   H14C14496   5.840   2.034   8.664  0.1297  0.1806  2.0660
  134OSM    C1314497   5.549   1.891   8.575  0.0636  0.6281  0.0059
  134OSM   H13A14498   5.458   1.921   8.525  0.1902 -1.2681 -1.4425
  134OSM   H13B14499   5.523   1.829   8.660  1.0688 -0.4325 -0.4362
  134OSM   H13C14500   5.597   1.825   8.505  0.1615  1.1569 -0.4297
  134OSM    C1214501   5.664   2.091   8.494 -0.0128 -0.1342 -0.1869
  134OSM   H12A14502   5.716   2.030   8.422 -1.1405 -1.0902 -0.2052
  134OSM   H12B14503   5.737   2.167   8.518 -1.7665  1.7303 -0.4450
  134OSM    C1114504   5.542   2.149   8.416  0.4205  0.7924  0.5678
  134OSM   H11A14505   5.585   2.212   8.335  1.0125 -0.0698  0.1947
  134OSM   H11B14506   5.482   2.218   8.479 -2.9711  0.0104 -1.6018
  134OSM      P14507   5.487   1.961   8.241 -0.1735  0.1041 -0.4579
  134OSM    O1314508   5.620   1.905   8.261  0.0708  0.9709 -0.2100
  134OSM    O1414509   5.378   1.861   8.224  0.3415  0.0687 -0.1982
  134OSM    O1114510   5.483   2.061   8.115 -0.0587 -0.3689  0.1441
  134OSM    O1214511   5.449   2.048   8.364 -0.4447  0.7534 -0.6628
  134OSM    C1S14512   5.392   2.173   8.117  0.1259 -0.4519  0.1971
  134OSM    H1S14513   5.447   2.265   8.144 -0.0498 -0.1742 -0.3767
  134OSM    H1T14514   5.305   2.155   8.185  0.2099 -1.6267  0.0262
  134OSM     NF14515   5.264   2.327   7.981 -0.3910  0.3359  0.3335
  134OSM    HNF14516   5.164   2.328   7.974 -0.2948  0.2554 -1.4050
  134OSM    C2S14517   5.330   2.204   7.974 -0.0607  0.4644 -0.4854
  134OSM    H2S14518   5.420   2.218   7.910  0.3736  1.5091  0.3235
  134OSM    C3S14519   5.246   2.084   7.922 -0.5356  0.6957  0.6427
  134OSM    H3S14520   5.163   2.080   7.996 -2.5556 -3.4535 -1.5208
  134OSM     O314521   5.310   1.951   7.929  0.2137 -0.3142 -0.0045
  134OSM    HO314522   5.381   1.967   7.991  0.3708  0.8230 -0.4635
  134OSM    C4S14523   5.176   2.107   7.796  0.8167 -1.0079  0.5756
  134OSM    H4S14524   5.082   2.159   7.820  1.7803  0.3025  1.6329
  134OSM    C5S14525   5.212   2.105   7.670  0.3276 -0.2795 -0.4046
  134OSM    H5S14526   5.319   2.087   7.650  0.7687  0.3762  1.2024
  134OSM    C6S14527   5.126   2.145   7.551  0.0257  0.0043  0.0382
  134OSM    H6S14528   5.126   2.255   7.537 -0.9236 -0.0572 -0.5025
  134OSM    H6T14529   5.022   2.128   7.584 -0.0251  0.0506 -0.0959
  134OSM    C7S14530   5.156   2.071   7.420  0.2185 -0.0852  0.8259
  134OSM    H7S14531   5.171   1.961   7.432  1.6221 -0.2864 -1.9784
  134OSM    H7T14532   5.256   2.110   7.393 -0.7715  1.0324 -1.4864
  134OSM    C8S14533   5.060   2.107   7.311 -0.2834  0.5501  0.2475
  134OSM    H8S14534   5.039   2.215   7.324 -0.7838  0.6168 -1.0582
  134OSM    H8T14535   4.968   2.044   7.316  0.4230 -0.4675  1.0177
  134OSM    C9S14536   5.113   2.082   7.174  0.5503  0.3234  0.0743
  134OSM    H9S14537   5.152   1.978   7.178  1.5687  0.6855 -0.0832
  134OSM    H9T14538   5.201   2.150   7.164  0.8715  0.0104  0.7142
  134OSM   C10S14539   5.010   2.116   7.063 -0.0405  0.1594 -0.1155
  134OSM   H10S14540   5.000   2.227   7.058 -0.4119  0.0851 -1.0038
  134OSM   H10T14541   4.918   2.058   7.086  0.2234 -0.5782 -0.8715
  134OSM   C11S14542   5.059   2.083   6.927 -0.7925 -0.5359 -0.1192
  134OSM   H11S14543   5.070   1.973   6.912 -0.8207 -0.7197  1.0828
  134OSM   H11T14544   5.155   2.138   6.920 -0.9715 -0.4022 -2.0081
  134OSM   C12S14545   4.961   2.144   6.833  0.4004 -0.1264  0.4768
  134OSM   H12S14546   4.946   2.253   6.851 -1.3973 -0.4780  1.3195
  134OSM   H12T14547   4.864   2.093   6.849 -0.4573  1.0819 -0.6419
  134OSM   C13S14548   5.005   2.129   6.687 -0.1165  1.2175 -0.7209
  134OSM   H13S14549   5.018   2.022   6.664  0.9393  1.2029 -0.1396
  134OSM   H13T14550   5.112   2.159   6.675 -0.3296  1.4870 -2.1344
  134OSM   C14S14551   4.909   2.186   6.576 -0.3757 -0.7752 -0.2671
  134OSM   H14S14552   4.888   2.293   6.593  0.4614 -0.8142  1.1738
  134OSM   H14T14553   4.809   2.139   6.575 -0.4460 -0.6798  0.7910
  134OSM   C15S14554   4.969   2.171   6.435  0.4098  0.8265  0.8140
  134OSM   H15S14555   5.006   2.066   6.428 -1.5934  0.0877  0.7040
  134OSM   H15T14556   5.060   2.235   6.431 -0.1703  1.6251  0.0863
  134OSM   C16S14557   4.864   2.199   6.326  0.2673  0.6163  0.0130
  134OSM   H16S14558   4.807   2.294   6.330  0.4924  0.8163 -1.2592
  134OSM   H16T14559   4.794   2.113   6.337 -0.7695  1.6296  2.1317
  134OSM   C17S14560   4.921   2.192   6.186 -0.1883  0.3808  0.9565
  134OSM   H17S14561   4.996   2.110   6.187 -0.6563 -0.0553  0.6839
  134OSM   H17T14562   4.995   2.274   6.172  2.1726 -1.7932 -0.2306
  134OSM   C18S14563   4.821   2.169   6.066  0.1088  0.2246  0.0225
  134OSM   H18S14564   4.767   2.072   6.075  0.4775  0.0392  0.2993
  134OSM   H18T14565   4.891   2.162   5.980  0.2530 -1.5422  0.2345
  134OSM   H18U14566   4.748   2.251   6.050  0.9798  1.0471  0.1124
  134OSM    C1F14567   5.324   2.441   8.014 -0.6348  0.1562  0.7743
  134OSM     OF14568   5.444   2.444   7.989 -0.5725  0.4220 -0.8954
  134OSM    C2F14569   5.245   2.556   8.078  0.1427  0.0949  0.1097
  134OSM    H2F14570   5.240   2.545   8.188  1.9723 -4.4176 -0.0487
  134OSM    H2G14571   5.144   2.541   8.034  0.3706  1.9033 -1.1287
  134OSM    C3F14572   5.293   2.699   8.025  0.0905  0.3187 -0.4862
  134OSM    H3F14573   5.397   2.722   8.055 -0.7461  2.1482  1.1944
  134OSM    H3G14574   5.228   2.780   8.064 -0.3120 -0.9038  1.5255
  134OSM    C4F14575   5.281   2.716   7.868  0.0875 -0.0383 -0.1577
  134OSM    H4F14576   5.344   2.641   7.816  2.1879  0.1529  1.9805
  134OSM    H4G14577   5.329   2.815   7.851  2.8819 -1.5969 -2.3446
  134OSM    C5F14578   5.129   2.716   7.819 -0.1553  0.5224 -0.0604
  134OSM    H5F14579   5.084   2.808   7.863 -1.0263 -0.0131  0.2008
  134OSM    H5G14580   5.063   2.631   7.848 -0.4515  0.0033 -2.0900
  134OSM    C6F14581   5.115   2.729   7.665  0.0875  0.2245 -0.3148
  134OSM    H6F14582   5.194   2.799   7.630 -0.3324  0.6638 -0.3852
  134OSM    H6G14583   5.025   2.787   7.636  0.5778  0.0488 -2.3290
  134OSM    C7F14584   5.127   2.602   7.584 -0.1079  0.4444  0.7563
  134OSM    H7F14585   5.063   2.517   7.614  1.2891 -0.9327  0.0167
  134OSM    H7G14586   5.232   2.565   7.577 -0.4972 -0.5100 -0.4646
  134OSM    C8F14587   5.103   2.624   7.434  0.4835  0.2285  0.2155
  134OSM    H8F14588   5.163   2.709   7.396  2.6428 -1.5179 -0.4947
  134OSM    H8G14589   4.996   2.654   7.435  0.4197  0.0524  2.2783
  134OSM    C9F14590   5.123   2.507   7.339 -0.6153 -0.0954 -0.3582
  134OSM    H9F14591   5.212   2.445   7.358 -1.7902 -1.0427  2.5743
  134OSM   C10F14592   5.040   2.486   7.237  0.2758 -0.2532 -0.4931
  134OSM   H10F14593   5.059   2.409   7.161  2.0172 -2.7078  2.2170
  134OSM   C11F14594   4.912   2.562   7.211  0.0603  0.2699  0.1157
  134OSM   H11F14595   4.924   2.669   7.235  0.0371  0.9061 -2.4383
  134OSM   H11G14596   4.837   2.507   7.272  0.3697 -1.3550 -0.8931
  134OSM   C12F14597   4.872   2.563   7.063  0.1491 -0.2277 -1.0170
  134OSM   H12F14598   4.837   2.462   7.033  0.6193 -0.6480 -0.1693
  134OSM   H12G14599   4.959   2.592   7.000 -0.1092 -0.7354 -1.6189
  134OSM   C13F14600   4.769   2.671   7.037  0.5044 -0.4750 -0.2656
  134OSM   H13F14601   4.821   2.768   7.044  0.5901 -0.2839 -2.8827
  134OSM   H13G14602   4.685   2.667   7.110  1.3477  0.5403  0.7820
  134OSM   C14F14603   4.699   2.667   6.896 -0.3559  0.8703  0.2203
  134OSM   H14F14604   4.618   2.743   6.894 -2.8308 -1.6361  0.2193
  134OSM   H14G14605   4.657   2.567   6.876  2.0357 -0.4938  1.5656
  134OSM   C15F14606   4.799   2.692   6.782  0.0214  0.1621  0.4866
  134OSM   H15F14607   4.881   2.616   6.790  1.2764  1.6450  3.0289
  134OSM   H15G14608   4.844   2.789   6.811  1.0000 -0.1151 -0.0437
  134OSM   C16F14609   4.738   2.669   6.641  0.1100 -0.1522 -0.3755
  134OSM   H16F14610   4.700   2.565   6.632  3.4906 -1.5271 -0.2839
  134OSM   H16G14611   4.815   2.679   6.562  1.0375 -1.6783  0.2985
  134OSM   C17F14612   4.629   2.774   6.612 -0.4057  0.3254 -0.2489
  134OSM   H17F14613   4.671   2.873   6.638  2.6159 -1.2302  1.3689
  134OSM   H17G14614   4.547   2.750   6.684 -0.5560  0.7541 -0.2794
  134OSM   C18F14615   4.576   2.754   6.468  0.7347 -0.2257 -0.1942
  134OSM   H18F14616   4.491   2.820   6.441  0.6798 -0.3170 -0.2437
  134OSM   H18G14617   4.537   2.651   6.452  3.3967 -1.5201  1.0840
  134OSM   H18H14618   4.660   2.768   6.397  2.4455  0.5499  1.8606
  135OSM      N14619   1.330   0.726   7.080 -0.1556  0.2324 -0.0903
  135OSM    C1514620   1.289   0.862   7.049  0.1073 -0.0456  0.0243
  135OSM   H15A14621   1.303   0.920   7.139 -0.0378  0.9407 -0.5716
  135OSM   H15B14622   1.185   0.879   7.028  0.2278  0.3466 -0.2673
  135OSM   H15C14623   1.348   0.894   6.964  0.4504 -0.3267  0.1522
  135OSM    C1414624   1.476   0.716   7.099 -0.2835 -0.4224  0.9473
  135OSM   H14A14625   1.520   0.789   7.166  1.9749 -2.5543  1.9157
  135OSM   H14B14626   1.516   0.717   6.999 -1.2993  1.0984  0.5132
  135OSM   H14C14627   1.494   0.624   7.152  2.5808 -0.4584  0.0546
  135OSM    C1314628   1.261   0.692   7.214 -0.2408  0.0095 -0.1117
  135OSM   H13A14629   1.157   0.720   7.207  0.5275  2.8143 -1.6891
  135OSM   H13B14630   1.314   0.758   7.281  2.0905  1.1138 -2.8678
  135OSM   H13C14631   1.274   0.591   7.251  1.7191  0.8381  1.6338
  135OSM    C1214632   1.279   0.629   6.973 -0.0263 -1.1303 -0.2248
  135OSM   H12A14633   1.178   0.663   6.957  1.3057  3.1761 -1.0110
  135OSM   H12B14634   1.274   0.528   7.009 -2.1507 -0.6130  1.0403
  135OSM    C1114635   1.358   0.623   6.843  0.0952  0.2706  0.2550
  135OSM   H11A14636   1.411   0.720   6.836  0.7231 -0.1435 -1.3655
  135OSM   H11B14637   1.286   0.611   6.759  1.4482 -1.1682 -0.7744
  135OSM      P14638   1.448   0.370   6.835 -0.2048 -0.0009  0.1735
  135OSM    O1314639   1.585   0.316   6.832  0.0972 -1.0300 -0.1054
  135OSM    O1414640   1.362   0.320   6.945  0.2002  0.7038  0.4483
  135OSM    O1114641   1.392   0.346   6.692  0.3829  0.4427 -0.4533
  135OSM    O1214642   1.457   0.528   6.840 -0.1017  0.5216  0.9526
  135OSM    C1S14643   1.434   0.401   6.569  0.0682  0.2756  0.1646
  135OSM    H1S14644   1.544   0.392   6.554  0.3267 -0.1916  2.1214
  135OSM    H1T14645   1.404   0.508   6.571  0.2566  0.3221  0.8051
  135OSM     NF14646   1.387   0.354   6.323 -0.3404  0.1624  0.1203
  135OSM    HNF14647   1.337   0.430   6.283 -0.2319 -0.9175 -2.2417
  135OSM    C2S14648   1.347   0.323   6.464 -0.1218  0.2874  0.7110
  135OSM    H2S14649   1.370   0.215   6.474  0.2855  0.2043 -0.7820
  135OSM    C3S14650   1.195   0.349   6.497  0.2219  0.0360  0.4332
  135OSM    H3S14651   1.184   0.458   6.513 -0.3753 -0.1350  1.2780
  135OSM     O314652   1.148   0.303   6.616 -0.5893 -0.2532  0.1077
  135OSM    HO314653   1.223   0.285   6.673 -1.2495  1.1069  1.4817
  135OSM    C4S14654   1.106   0.312   6.376  0.4294  0.5516  0.1688
  135OSM    H4S14655   1.092   0.394   6.304 -0.3942  0.2433 -0.0338
  135OSM    C5S14656   1.057   0.189   6.362 -0.0150 -1.0857  0.0225
  135OSM    H5S14657   1.072   0.113   6.441  0.5172 -3.1435 -1.9392
  135OSM    C6S14658   0.981   0.130   6.246  0.1308 -0.2829 -0.7043
  135OSM    H6S14659   0.875   0.154   6.271  1.2586  1.8028  2.9176
  135OSM    H6T14660   0.972   0.020   6.237 -2.2197 -0.0905 -1.4260
  135OSM    C7S14661   0.984   0.188   6.104  0.0285 -0.2872 -0.1425
  135OSM    H7S14662   1.082   0.159   6.061  0.8843 -1.1032  2.1855
  135OSM    H7T14663   0.972   0.298   6.114 -0.6692 -0.2273 -1.4353
  135OSM    C8S14664   0.873   0.126   6.016 -0.6559  0.0188 -0.1748
  135OSM    H8S14665   0.771   0.145   6.054 -0.5225  1.5620 -0.5064
  135OSM    H8T14666   0.892   0.018   6.030  0.2084 -0.3909 -3.5381
  135OSM    C9S14667   0.872   0.181   5.876  0.0314 -0.8389  0.0048
  135OSM    H9S14668   0.972   0.194   5.829 -0.7070 -3.0220 -2.4447
  135OSM    H9T14669   0.839   0.286   5.889  0.5975 -0.6412 -0.1266
  135OSM   C10S14670   0.770   0.109   5.787 -0.8333 -0.1913  0.0958
  135OSM   H10S14671   0.667   0.107   5.827 -1.3196  0.8661 -1.0395
  135OSM   H10T14672   0.807   0.004   5.780  3.5132  1.0645  1.1787
  135OSM   C11S14673   0.760   0.174   5.641  0.1394  0.6661 -0.1912
  135OSM   H11S14674   0.724   0.278   5.651 -0.2238  0.5859 -0.6462
  135OSM   H11T14675   0.680   0.112   5.595 -0.5004  1.1925  0.2046
  135OSM   C12S14676   0.882   0.172   5.541  0.3071  0.2700 -0.6416
  135OSM   H12S14677   0.932   0.073   5.540 -2.7852 -1.5342  2.4267
  135OSM   H12T14678   0.959   0.246   5.575  0.2567 -0.9794  2.5900
  135OSM   C13S14679   0.848   0.205   5.394 -1.0639 -0.0836  0.8994
  135OSM   H13S14680   0.775   0.289   5.389 -1.7248 -0.6929 -0.0140
  135OSM   H13T14681   0.781   0.132   5.345 -1.0952  0.4558  0.1262
  135OSM   C14S14682   0.982   0.241   5.316  0.3848  1.0224  0.4274
  135OSM   H14S14683   1.045   0.150   5.316 -2.3098 -0.9699 -0.6671
  135OSM   H14T14684   1.027   0.334   5.358 -0.3815  1.8258 -0.4481
  135OSM   C15S14685   0.961   0.255   5.166 -0.6061 -0.0900 -0.3705
  135OSM   H15S14686   1.040   0.325   5.132  1.6895 -1.8333  1.0435
  135OSM   H15T14687   0.866   0.313   5.169  0.6060  1.9310  1.6866
  135OSM   C16S14688   0.959   0.127   5.086  0.2862  0.1641  0.9101
  135OSM   H16S14689   0.903   0.051   5.144  2.1771 -1.5772  0.5403
  135OSM   H16T14690   1.064   0.092   5.075 -0.3175 -1.1362 -1.4343
  135OSM   C17S14691   0.921   0.141   4.940  0.2204 -0.1041  0.1801
  135OSM   H17S14692   0.947   0.244   4.910 -0.5120  0.2337  0.6967
  135OSM   H17T14693   0.811   0.129   4.950  0.4741 -1.0167  2.5022
  135OSM   C18S14694   0.981   0.037   4.842 -0.0215 -0.3919 -0.2746
  135OSM   H18S14695   0.919   0.047   4.749 -0.6646  2.4219  0.3773
  135OSM   H18T14696   0.968  -0.066   4.883  0.8216 -0.1195  0.6847
  135OSM   H18U14697   1.087   0.051   4.815  0.4507 -1.0264  1.1733
  135OSM    C1F14698   1.507   0.330   6.285 -0.4453  0.1100  0.0428
  135OSM     OF14699   1.583   0.255   6.344 -0.5832 -0.0051  0.5296
  135OSM    C2F14700   1.562   0.407   6.163 -0.4382  0.2135  0.0142
  135OSM    H2F14701   1.665   0.442   6.187  1.0445 -2.1863 -2.3209
  135OSM    H2G14702   1.502   0.500   6.152  0.3465  0.6177 -1.1463
  135OSM    C3F14703   1.543   0.317   6.042  0.3132  0.4007 -0.5179
  135OSM    H3F14704   1.435   0.290   6.040  1.0832 -3.3548 -2.9315
  135OSM    H3G14705   1.601   0.226   6.069 -0.9363  0.3133  2.1740
  135OSM    C4F14706   1.596   0.376   5.912  0.0908  1.1698  0.6784
  135OSM    H4F14707   1.525   0.459   5.892 -1.0401 -0.0472 -0.5531
  135OSM    H4G14708   1.701   0.412   5.920 -0.1140  2.0909 -0.5596
  135OSM    C5F14709   1.576   0.287   5.789 -0.0094  0.1470  0.0566
  135OSM    H5F14710   1.571   0.349   5.697 -2.5370  0.8434  0.5926
  135OSM    H5G14711   1.474   0.243   5.794 -0.7563  1.8507  0.4767
  135OSM    C6F14712   1.683   0.184   5.765  0.4828  0.1906  0.4871
  135OSM    H6F14713   1.690   0.124   5.858  0.1740  0.3211  0.5941
  135OSM    H6G14714   1.785   0.224   5.744  0.7892  0.5604  2.4515
  135OSM    C7F14715   1.648   0.079   5.657 -0.4725 -0.6079  0.1284
  135OSM    H7F14716   1.650   0.127   5.557  1.2042 -0.9523 -0.0227
  135OSM    H7G14717   1.554   0.026   5.686 -0.7001 -0.0323  0.4617
  135OSM    C8F14718   1.749  -0.037   5.659  0.3585 -0.0053 -0.1761
  135OSM    H8F14719   1.745  -0.085   5.759 -0.1297 -1.6843 -0.9675
  135OSM    H8G14720   1.850   0.008   5.642  0.2725 -0.4792 -2.2183
  135OSM    C9F14721   1.710  -0.137   5.551 -0.2904  0.1099 -0.2517
  135OSM    H9F14722   1.610  -0.183   5.557 -0.0060 -0.4432  0.3358
  135OSM   C10F14723   1.786  -0.181   5.449  0.5115  0.4950  0.2144
  135OSM   H10F14724   1.744  -0.256   5.381 -1.2811  1.5959  0.0433
  135OSM   C11F14725   1.916  -0.114   5.402 -0.3538 -0.4540  0.1718
  135OSM   H11F14726   1.907  -0.009   5.439 -2.5533 -0.6919  0.4144
  135OSM   H11G14727   1.907  -0.096   5.293 -1.1055  1.6530  0.5286
  135OSM   C12F14728   2.042  -0.188   5.450 -0.0633  0.2426 -0.6653
  135OSM   H12F14729   2.020  -0.293   5.422 -1.8428  0.0221  1.2444
  135OSM   H12G14730   2.042  -0.196   5.561 -3.2420  2.1079 -0.4067
  135OSM   C13F14731   2.171  -0.139   5.383  0.0714  0.0340 -0.9132
  135OSM   H13F14732   2.180  -0.033   5.415 -0.5629 -0.5890  1.4604
  135OSM   H13G14733   2.157  -0.141   5.272  1.9833 -2.9947 -1.2235
  135OSM   C14F14734   2.290  -0.218   5.435  0.0735  0.4101 -0.7482
  135OSM   H14F14735   2.382  -0.204   5.374  0.7279  0.3846  0.2251
  135OSM   H14G14736   2.277  -0.328   5.425  3.3293  0.0130 -2.1658
  135OSM   C15F14737   2.328  -0.191   5.586  0.5472  0.0381  0.0115
  135OSM   H15F14738   2.425  -0.242   5.605  1.3896  0.9614 -1.6623
  135OSM   H15G14739   2.257  -0.230   5.662 -1.8054  0.4140 -1.8709
  135OSM   C16F14740   2.359  -0.045   5.610 -0.3952  0.8883  0.2035
  135OSM   H16F14741   2.263   0.012   5.611 -0.4586  0.8242 -0.9907
  135OSM   H16G14742   2.431  -0.009   5.534  1.2361 -1.2723  0.6302
  135OSM   C17F14743   2.433  -0.027   5.747  0.0643 -0.1067 -0.2436
  135OSM   H17F14744   2.474   0.075   5.730 -0.1044  0.4406  2.2847
  135OSM   H17G14745   2.529  -0.082   5.749  1.8338  2.7692  0.7632
  135OSM   C18F14746   2.351  -0.029   5.874 -0.3335  0.4592  0.0573
  135OSM   H18F14747   2.250   0.016   5.858 -0.6663  0.7797  2.6371
  135OSM   H18G14748   2.403   0.026   5.955  2.5274 -0.2255 -1.2023
  135OSM   H18H14749   2.340  -0.135   5.904 -2.1241  0.7641  0.5821
  136OSM      N14750   0.655   0.972   7.859 -0.0835  0.0477 -0.3592
  136OSM    C1514751   0.599   1.115   7.845  0.5608  0.3295 -0.1462
  136OSM   H15A14752   0.515   1.129   7.912 -0.7791  0.4244 -1.7855
  136OSM   H15B14753   0.565   1.126   7.743  0.2796 -0.9566 -0.2076
  136OSM   H15C14754   0.671   1.192   7.869 -2.7062  3.5273  0.1881
  136OSM    C1414755   0.723   0.959   7.988  0.6872  0.8507  0.0465
  136OSM   H14A14756   0.658   0.918   8.063  0.8806 -1.3304 -0.8886
  136OSM   H14B14757   0.765   1.053   8.020  1.3729  0.5117  0.1588
  136OSM   H14C14758   0.801   0.885   7.989 -0.3554 -0.3387 -1.4151
  136OSM    C1314759   0.538   0.877   7.849  0.3645 -0.4413 -0.2093
  136OSM   H13A14760   0.556   0.771   7.837 -1.4695 -0.5955 -2.1673
  136OSM   H13B14761   0.491   0.902   7.755  0.9887  1.0864 -0.1343
  136OSM   H13C14762   0.463   0.899   7.923 -3.1545  0.6155 -3.7484
  136OSM    C1214763   0.741   0.945   7.740  0.4972 -0.6449  0.3454
  136OSM   H12A14764   0.820   1.018   7.729 -1.2046  0.9798 -1.7437
  136OSM   H12B14765   0.682   0.961   7.651  0.2291 -1.5505  0.3506
  136OSM    C1114766   0.798   0.801   7.728  0.1261 -0.0177  0.3417
  136OSM   H11A14767   0.836   0.764   7.825  0.3542 -0.3261  0.1380
  136OSM   H11B14768   0.888   0.806   7.663 -0.5081  0.6509 -0.5058
  136OSM      P14769   0.676   0.681   7.519  0.0656 -0.0265 -0.1258
  136OSM    O1314770   0.746   0.560   7.486  0.0864 -0.0728 -0.2133
  136OSM    O1414771   0.529   0.687   7.493 -0.6361  0.4490  0.5179
  136OSM    O1114772   0.762   0.796   7.452 -0.3230  0.2511 -0.2028
  136OSM    O1214773   0.693   0.711   7.672  0.4481 -0.4992 -0.3950
  136OSM    C1S14774   0.719   0.821   7.318 -0.3110  0.1140  0.4912
  136OSM    H1S14775   0.611   0.850   7.312 -0.2192  0.6517  1.2030
  136OSM    H1T14776   0.748   0.738   7.252  0.7112  2.0615 -1.6448
  136OSM     NF14777   0.742   0.965   7.111  0.6950 -0.3621  0.3478
  136OSM    HNF14778   0.797   0.926   7.037 -1.1855 -0.4269 -1.1046
  136OSM    C2S14779   0.786   0.949   7.252 -0.1220  0.2105 -0.6060
  136OSM    H2S14780   0.743   1.033   7.310  0.0276 -0.1290  0.0030
  136OSM    C3S14781   0.937   0.965   7.285 -0.3499 -0.3284  0.1020
  136OSM    H3S14782   0.994   0.886   7.231 -0.9229  0.8714 -2.4560
  136OSM     O314783   0.957   0.954   7.416 -0.3183  0.1521  0.1648
  136OSM    HO314784   0.879   0.907   7.447 -0.3115  0.8569  1.3022
  136OSM    C4S14785   0.994   1.101   7.237 -0.0744  0.5508 -0.4323
  136OSM    H4S14786   1.022   1.093   7.131 -1.0406  3.4782 -0.9993
  136OSM    C5S14787   1.007   1.221   7.297 -0.0565  0.5573 -0.0702
  136OSM    H5S14788   0.994   1.228   7.406 -2.3774 -0.0107 -0.2628
  136OSM    C6S14789   1.076   1.337   7.229 -0.5152  0.5830 -0.5918
  136OSM    H6S14790   1.152   1.379   7.297 -2.4688  0.0651  2.0970
  136OSM    H6T14791   1.004   1.418   7.204 -0.6075  0.4726 -0.6876
  136OSM    C7S14792   1.135   1.306   7.085  0.4275  0.3136  0.0659
  136OSM    H7S14793   1.051   1.263   7.027 -0.2736 -0.0879  1.3358
  136OSM    H7T14794   1.207   1.222   7.080 -0.4329 -0.4666  0.4786
  136OSM    C8S14795   1.176   1.431   7.008  0.1438 -0.5786 -0.0895
  136OSM    H8S14796   1.268   1.466   7.059 -0.8458 -1.2432  2.2455
  136OSM    H8T14797   1.105   1.514   7.028  0.3438 -0.4969  0.2840
  136OSM    C9S14798   1.189   1.400   6.859  0.0648  0.2488 -0.2481
  136OSM    H9S14799   1.090   1.368   6.820  0.6514 -3.3086  0.8180
  136OSM    H9T14800   1.267   1.324   6.838  0.2389  0.4698 -0.4047
  136OSM   C10S14801   1.230   1.523   6.775 -0.1439 -0.1963  0.4084
  136OSM   H10S14802   1.335   1.548   6.799  0.0714  0.9104 -1.4737
  136OSM   H10T14803   1.170   1.614   6.797 -0.4284 -0.4996  0.9219
  136OSM   C11S14804   1.248   1.499   6.624 -0.6213 -0.1937 -0.4220
  136OSM   H11S14805   1.154   1.453   6.587 -1.8727  0.7495  1.4399
  136OSM   H11T14806   1.329   1.423   6.619  1.0233  1.5627 -1.9391
  136OSM   C12S14807   1.304   1.621   6.549 -0.3831 -0.2484  0.2609
  136OSM   H12S14808   1.412   1.636   6.571 -0.8375 -0.8655  3.4111
  136OSM   H12T14809   1.255   1.714   6.584 -0.2890  0.3741 -1.1888
  136OSM   C13S14810   1.286   1.602   6.400  0.3512 -0.4490 -0.2562
  136OSM   H13S14811   1.181   1.615   6.364  0.1605 -0.8997  0.1201
  136OSM   H13T14812   1.311   1.495   6.383  0.8122 -0.2655 -0.7706
  136OSM   C14S14813   1.383   1.681   6.313  0.2029 -0.2802 -0.2264
  136OSM   H14S14814   1.482   1.681   6.363 -0.7169  1.0643  1.6907
  136OSM   H14T14815   1.345   1.785   6.304  0.1789 -0.4243 -2.6478
  136OSM   C15S14816   1.380   1.620   6.172 -0.2334  0.6097  0.4372
  136OSM   H15S14817   1.277   1.645   6.139 -0.5845  3.1409  3.0267
  136OSM   H15T14818   1.393   1.510   6.167 -0.4326  0.5932  0.2893
  136OSM   C16S14819   1.477   1.678   6.072  0.3106 -0.9172  0.8630
  136OSM   H16S14820   1.582   1.655   6.100  0.9220  2.2390  1.5147
  136OSM   H16T14821   1.460   1.788   6.072  0.3478 -0.9039 -0.3185
  136OSM   C17S14822   1.442   1.635   5.929 -0.1780  0.0356 -0.3033
  136OSM   H17S14823   1.334   1.660   5.922  0.1637  1.8753  0.3544
  136OSM   H17T14824   1.448   1.525   5.913 -1.0977 -0.3535  1.7287
  136OSM   C18S14825   1.515   1.703   5.819 -0.4088 -0.2625 -0.1024
  136OSM   H18S14826   1.501   1.659   5.718 -0.0832 -1.0488  0.1830
  136OSM   H18T14827   1.623   1.680   5.833 -0.2777  0.3827 -0.0164
  136OSM   H18U14828   1.517   1.814   5.816 -1.4464 -0.2377 -0.1159
  136OSM    C1F14829   0.610   0.976   7.081 -0.5830 -0.3159 -0.1146
  136OSM     OF14830   0.520   0.990   7.161  0.0879  0.0232 -0.0031
  136OSM    C2F14831   0.588   0.959   6.937 -0.3475 -0.2470 -0.5204
  136OSM    H2F14832   0.551   0.859   6.905 -1.2668  0.3866 -1.5354
  136OSM    H2G14833   0.679   0.986   6.879 -0.1270  1.5916  0.5905
  136OSM    C3F14834   0.485   1.067   6.888  0.1265 -0.4253 -0.6556
  136OSM    H3F14835   0.531   1.168   6.886  0.2991 -0.4229  1.3167
  136OSM    H3G14836   0.401   1.063   6.961  1.5339 -0.6245  1.0257
  136OSM    C4F14837   0.442   1.048   6.736  0.3716  0.0877 -0.1510
  136OSM    H4F14838   0.370   1.129   6.711 -0.0229  0.4490  2.0003
  136OSM    H4G14839   0.391   0.949   6.736  2.3208 -0.9618 -0.5500
  136OSM    C5F14840   0.553   1.010   6.640 -0.0320 -0.3856  0.2593
  136OSM    H5F14841   0.601   0.915   6.671  2.0968  0.6536  0.3157
  136OSM    H5G14842   0.628   1.088   6.664  0.5060 -0.2113 -1.8003
  136OSM    C6F14843   0.533   1.020   6.493 -0.4496  0.0984 -0.3082
  136OSM    H6F14844   0.454   0.952   6.454  0.6750  0.1122 -2.8177
  136OSM    H6G14845   0.630   0.989   6.449 -0.8688 -0.0557 -1.1608
  136OSM    C7F14846   0.482   1.165   6.461 -0.4290  0.2044  0.4145
  136OSM    H7F14847   0.537   1.248   6.510  0.0594  0.7269 -0.9490
  136OSM    H7G14848   0.373   1.167   6.483 -0.1619  1.0033  1.7706
  136OSM    C8F14849   0.502   1.189   6.308 -0.6171 -0.0268  0.1291
  136OSM    H8F14850   0.411   1.239   6.269  0.4501 -0.9135 -4.0466
  136OSM    H8G14851   0.484   1.091   6.259 -0.9851  0.6002 -1.0336
  136OSM    C9F14852   0.632   1.253   6.255 -0.6759 -0.5604 -0.0865
  136OSM    H9F14853   0.689   1.311   6.330 -2.6063  0.1997  0.8600
  136OSM   C10F14854   0.656   1.267   6.118 -0.1627  0.8151  0.7277
  136OSM   H10F14855   0.744   1.321   6.080 -0.4814 -0.6250 -2.2896
  136OSM   C11F14856   0.567   1.211   6.006  0.9286  0.5084 -0.2825
  136OSM   H11F14857   0.485   1.148   6.047  0.3886 -0.3739 -2.5437
  136OSM   H11G14858   0.615   1.129   5.949 -0.7362 -1.0661  0.4819
  136OSM   C12F14859   0.512   1.327   5.926  0.2284  0.4095  0.0061
  136OSM   H12F14860   0.462   1.401   5.993 -2.0939  0.8288 -2.0061
  136OSM   H12G14861   0.423   1.291   5.870  0.7668 -0.4667 -0.3017
  136OSM   C13F14862   0.608   1.402   5.831  0.2203 -0.6817  0.0710
  136OSM   H13F14863   0.687   1.443   5.897  0.7573 -0.3249 -0.7674
  136OSM   H13G14864   0.560   1.493   5.790  0.1526 -0.5244  0.5041
  136OSM   C14F14865   0.664   1.334   5.715 -0.3870  0.7778 -0.0309
  136OSM   H14F14866   0.723   1.242   5.737 -1.8451 -0.1988 -0.0299
  136OSM   H14G14867   0.737   1.399   5.662 -0.0428  0.5001  0.1032
  136OSM   C15F14868   0.561   1.290   5.606 -0.4287 -0.1545  0.0611
  136OSM   H15F14869   0.490   1.210   5.637 -0.1228 -1.1944 -1.7717
  136OSM   H15G14870   0.629   1.244   5.531  0.2088 -1.9814  1.6603
  136OSM   C16F14871   0.473   1.408   5.554  0.5188 -0.0380  0.7714
  136OSM   H16F14872   0.533   1.491   5.511 -0.0794 -0.1178 -0.2576
  136OSM   H16G14873   0.412   1.452   5.636 -0.1150  1.4225 -0.4383
  136OSM   C17F14874   0.367   1.371   5.447 -1.0221  0.5986 -0.4436
  136OSM   H17F14875   0.434   1.358   5.360 -2.0563 -0.7939 -1.0791
  136OSM   H17G14876   0.310   1.467   5.446 -1.0920  0.7059  3.1065
  136OSM   C18F14877   0.281   1.243   5.484 -1.0428  0.0488 -0.5703
  136OSM   H18F14878   0.192   1.231   5.419 -0.8520 -1.5512 -0.5723
  136OSM   H18G14879   0.238   1.251   5.587 -1.5675 -0.2405 -0.7638
  136OSM   H18H14880   0.350   1.158   5.471  1.2433  1.5864  0.7273
  137OSM      N14881   6.001   0.108   7.590 -0.4609  0.5475 -0.1938
  137OSM    C1514882   6.017   0.233   7.671  0.4516 -0.1697 -0.1877
  137OSM   H15A14883   6.032   0.231   7.778  0.3194  0.6054 -0.1483
  137OSM   H15B14884   5.923   0.284   7.653  0.5773  0.0639 -0.1823
  137OSM   H15C14885   6.094   0.296   7.630 -2.2767  3.0582 -0.8905
  137OSM    C1414886   6.030   0.129   7.442  0.0645 -0.4871  0.5518
  137OSM   H14A14887   6.014   0.041   7.382  0.1991  0.4053 -0.8274
  137OSM   H14B14888   6.135   0.139   7.420 -0.2845 -2.6130 -2.9731
  137OSM   H14C14889   5.964   0.208   7.409 -1.7457 -1.2509  2.1614
  137OSM    C1314890   6.107   0.015   7.637  0.2376  0.8957  0.0539
  137OSM   H13A14891   6.120  -0.078   7.584 -3.1594  0.1055  0.3254
  137OSM   H13B14892   6.082  -0.012   7.739 -1.6971  0.5471 -0.4673
  137OSM   H13C14893   6.206   0.056   7.643  0.2551  1.0140 -0.8259
  137OSM    C1214894   5.867   0.040   7.618  0.6456  0.2042 -0.1938
  137OSM   H12A14895   5.854   0.018   7.723 -0.3872  0.1076 -0.3309
  137OSM   H12B14896   5.855  -0.053   7.564  0.1047 -0.4894  1.0829
  137OSM    C1114897   5.736   0.119   7.581  0.4180  0.5213 -0.0746
  137OSM   H11A14898   5.651   0.047   7.588  0.3214  0.6496  0.1041
  137OSM   H11B14899   5.750   0.169   7.483  0.4048  1.8948  0.5931
  137OSM      P14900   5.616   0.334   7.671  0.0086  0.0224  0.2537
  137OSM    O1314901   5.531   0.331   7.790 -0.6596  0.2095 -0.3163
  137OSM    O1414902   5.693   0.460   7.643  1.0144  0.2519  0.0437
  137OSM    O1114903   5.531   0.313   7.540  0.3931  0.1727 -0.2828
  137OSM    O1214904   5.719   0.213   7.686  0.3328  0.4175 -0.2022
  137OSM    C1S14905   5.412   0.375   7.506 -0.2223  0.1425 -0.8172
  137OSM    H1S14906   5.442   0.459   7.440  0.1345  0.9685  0.3616
  137OSM    H1T14907   5.374   0.442   7.586 -0.0679 -0.4595 -0.2351
  137OSM     NF14908   5.172   0.358   7.414 -0.0341  0.1152  0.0320
  137OSM    HNF14909   5.095   0.337   7.474 -0.1759 -0.4985 -0.3537
  137OSM    C2S14910   5.300   0.283   7.445  0.0893 -0.9134 -0.3153
  137OSM    H2S14911   5.333   0.245   7.346  0.5593  0.4094 -0.6836
  137OSM    C3S14912   5.276   0.151   7.527 -0.3587 -0.5664  0.0191
  137OSM    H3S14913   5.243   0.185   7.627 -0.5446 -1.0336  0.1182
  137OSM     O314914   5.385   0.061   7.560 -0.7320  0.1654 -0.3820
  137OSM    HO314915   5.459   0.121   7.564 -0.8584  0.3685 -1.0557
  137OSM    C4S14916   5.166   0.069   7.464  0.3009  1.5505  0.0070
  137OSM    H4S14917   5.185   0.044   7.359 -0.3682  0.1884  0.1898
  137OSM    C5S14918   5.051   0.022   7.518 -0.0640 -1.1135 -0.3005
  137OSM    H5S14919   5.044   0.025   7.628  0.4114 -0.1841 -0.2888
  137OSM    C6S14920   4.951  -0.057   7.438  0.2264  0.0324 -0.3489
  137OSM    H6S14921   4.852  -0.016   7.467  1.3963  1.6971  1.5613
  137OSM    H6T14922   4.954  -0.164   7.467 -0.0700 -0.5037 -2.1726
  137OSM    C7S14923   4.963  -0.061   7.286 -0.3757  0.2505 -0.4796
  137OSM    H7S14924   4.887  -0.136   7.254 -0.2319 -0.6578  1.1947
  137OSM    H7T14925   5.065  -0.082   7.246 -2.0668 -0.8799 -4.6964
  137OSM    C8S14926   4.933   0.083   7.246  0.2061  0.3070  0.5596
  137OSM    H8S14927   5.004   0.149   7.300 -0.1442  0.5400  0.7434
  137OSM    H8T14928   4.831   0.117   7.277 -0.0066 -0.0249  0.2281
  137OSM    C9S14929   4.931   0.112   7.094 -0.8553 -0.2863 -0.0043
  137OSM    H9S14930   5.034   0.080   7.064 -0.6493  1.4427 -1.2878
  137OSM    H9T14931   4.926   0.218   7.063  0.9451 -0.1411  0.0926
  137OSM   C10S14932   4.845   0.011   7.012 -0.0879  0.3344  0.4211
  137OSM   H10S14933   4.742   0.024   7.052  0.1281 -0.2321  1.1900
  137OSM   H10T14934   4.883  -0.093   7.022 -1.8897 -0.6649 -2.0759
  137OSM   C11S14935   4.833   0.027   6.859 -0.8523 -0.5516 -0.0263
  137OSM   H11S14936   4.937   0.030   6.820  0.4690  1.4574  3.1603
  137OSM   H11T14937   4.790   0.129   6.848 -2.5175 -1.1265  0.8189
  137OSM   C12S14938   4.766  -0.083   6.777  0.2900  0.5161  0.1695
  137OSM   H12S14939   4.691  -0.132   6.843  2.2845 -2.5976  0.3478
  137OSM   H12T14940   4.850  -0.155   6.767 -0.0820 -0.4365  2.9608
  137OSM   C13S14941   4.702  -0.044   6.647 -0.0503 -0.5204 -0.5328
  137OSM   H13S14942   4.631   0.041   6.653  0.6510  0.0610 -0.4045
  137OSM   H13T14943   4.645  -0.129   6.603 -0.2296 -0.6819 -0.0032
  137OSM   C14S14944   4.804  -0.010   6.532 -0.3277 -0.3993 -0.3198
  137OSM   H14S14945   4.849  -0.109   6.509  0.8123 -0.2790  1.2356
  137OSM   H14T14946   4.880   0.059   6.573 -1.3916  0.5148  0.1834
  137OSM   C15S14947   4.738   0.060   6.407 -0.1025  0.2738  0.0102
  137OSM   H15S14948   4.815   0.071   6.328 -0.5837 -1.3356 -0.7222
  137OSM   H15T14949   4.702   0.159   6.440 -0.7863  0.3480 -0.9382
  137OSM   C16S14950   4.621  -0.016   6.350 -0.2487 -0.2350 -1.0432
  137OSM   H16S14951   4.538   0.019   6.415  0.7552  2.2265 -0.9822
  137OSM   H16T14952   4.641  -0.124   6.367 -2.0106 -0.6475 -1.3047
  137OSM   C17S14953   4.587   0.025   6.211 -0.0516  0.3454 -0.0020
  137OSM   H17S14954   4.676   0.003   6.150  0.0156 -1.1866  0.6146
  137OSM   H17T14955   4.569   0.133   6.190  0.9393  0.6774  0.7821
  137OSM   C18S14956   4.476  -0.059   6.145 -0.4576  0.2179 -0.1976
  137OSM   H18S14957   4.482  -0.169   6.158 -2.5577  0.2228  1.1659
  137OSM   H18T14958   4.475  -0.024   6.040 -0.0704 -1.4840 -0.7962
  137OSM   H18U14959   4.382  -0.025   6.193 -0.0458  0.3589  0.5268
  137OSM    C1F14960   5.147   0.461   7.336 -1.5905 -0.8127  0.4875
  137OSM     OF14961   5.240   0.508   7.275  0.1594 -0.1716  0.2642
  137OSM    C2F14962   5.007   0.518   7.322 -0.3583  0.1871  0.4909
  137OSM    H2F14963   4.986   0.586   7.407  0.1233  0.0582  0.7180
  137OSM    H2G14964   4.931   0.437   7.326 -1.4778  1.2304  0.8056
  137OSM    C3F14965   4.996   0.603   7.194 -0.1193 -0.1261  0.2562
  137OSM    H3F14966   5.085   0.670   7.192  0.2468 -0.6156 -0.9122
  137OSM    H3G14967   4.907   0.667   7.202  1.0444  1.5679  0.1722
  137OSM    C4F14968   4.985   0.518   7.066  0.1267 -1.4096  0.3939
  137OSM    H4F14969   4.905   0.443   7.080 -0.4436 -0.8593  0.1092
  137OSM    H4G14970   5.075   0.454   7.050  1.5256  0.9792 -2.2946
  137OSM    C5F14971   4.964   0.605   6.941 -0.0338  0.2170  0.1124
  137OSM    H5F14972   5.048   0.672   6.913  0.3501  0.6153  2.0992
  137OSM    H5G14973   4.887   0.683   6.962 -0.2101  0.0227  0.1939
  137OSM    C6F14974   4.940   0.523   6.815 -0.7035 -0.0926  0.1662
  137OSM    H6F14975   4.858   0.449   6.825  0.3454 -1.0942  1.7602
  137OSM    H6G14976   5.031   0.464   6.789 -0.4065  0.5894 -0.3749
  137OSM    C7F14977   4.916   0.616   6.701 -0.6840 -0.2425 -0.5478
  137OSM    H7F14978   4.984   0.702   6.715 -2.9650  1.5362  0.1648
  137OSM    H7G14979   4.816   0.664   6.709  0.2973  2.1585 -1.8474
  137OSM    C8F14980   4.946   0.554   6.569 -0.7851 -0.2734  0.2028
  137OSM    H8F14981   4.894   0.457   6.558  2.2883 -2.2547  1.8599
  137OSM    H8G14982   5.054   0.529   6.569 -0.7299 -0.0769 -0.8328
  137OSM    C9F14983   4.923   0.649   6.460  0.0915 -0.3622  0.0950
  137OSM    H9F14984   4.980   0.743   6.469 -0.6185  0.2987 -1.8541
  137OSM   C10F14985   4.837   0.630   6.357 -0.0922 -0.3601 -0.7786
  137OSM   H10F14986   4.817   0.721   6.299  0.1817 -0.0509 -0.3968
  137OSM   C11F14987   4.734   0.513   6.337 -0.4091 -0.5970  0.1569
  137OSM   H11F14988   4.631   0.547   6.314 -0.2342 -1.0301 -1.3469
  137OSM   H11G14989   4.726   0.446   6.426  0.6523 -1.6054 -0.4737
  137OSM   C12F14990   4.764   0.426   6.205  0.0445 -0.4424 -0.3771
  137OSM   H12F14991   4.759   0.496   6.119  0.0394 -1.2287 -1.0249
  137OSM   H12G14992   4.689   0.344   6.215  1.0737 -1.1756  2.2042
  137OSM   C13F14993   4.903   0.362   6.200 -0.2794 -0.8271 -0.2484
  137OSM   H13F14994   4.929   0.300   6.288 -0.2162  0.4359  0.6525
  137OSM   H13G14995   4.968   0.452   6.195 -2.6327  1.1857  1.8785
  137OSM   C14F14996   4.919   0.275   6.074  0.2285  0.0834 -0.2490
  137OSM   H14F14997   4.903   0.324   5.975  1.3223  0.9904  0.0025
  137OSM   H14G14998   4.842   0.195   6.064 -0.2897  0.3468  1.3529
  137OSM   C15F14999   5.050   0.205   6.067 -0.6352 -0.0541  0.7034
  137OSM   H15F15000   5.075   0.140   6.153  0.6611 -1.6277 -0.7819
  137OSM   H15G15001   5.128   0.281   6.048 -1.8693  0.9301 -0.7037
  137OSM   C16F15002   5.073   0.116   5.938 -0.2718 -0.4041 -0.3397
  137OSM   H16F15003   5.055   0.182   5.850 -0.6727  0.8491  0.6490
  137OSM   H16G15004   4.991   0.042   5.931 -2.5219  1.8780  0.3312
  137OSM   C17F15005   5.222   0.061   5.916  0.2571 -0.3837 -0.0003
  137OSM   H17F15006   5.212  -0.047   5.891  1.3538  0.0974 -2.8300
  137OSM   H17G15007   5.277   0.076   6.011 -0.3562  2.6490 -0.0302
  137OSM   C18F15008   5.295   0.135   5.800  0.6460  0.4160 -0.1872
  137OSM   H18F15009   5.294   0.245   5.817  0.3912  0.2361  1.0124
  137OSM   H18G15010   5.241   0.115   5.705 -0.2852 -0.5549  0.5319
  137OSM   H18H15011   5.401   0.103   5.791  0.6237 -0.1872  1.3964
  138OSM      N15012   2.629   3.949   8.458  0.2655  0.0609 -0.6780
  138OSM    C1515013   2.683   3.963   8.598  0.6061  0.0385 -0.0128
  138OSM   H15A15014   2.645   3.889   8.667 -2.4251  1.5802  0.1040
  138OSM   H15B15015   2.640   4.048   8.649 -0.6808 -1.0836  0.8611
  138OSM   H15C15016   2.790   3.978   8.608  0.6274 -0.0256 -0.1381
  138OSM    C1415017   2.481   3.978   8.460 -0.2608  0.2154 -0.8953
  138OSM   H14A15018   2.451   3.984   8.356 -0.9951  0.6124 -0.6691
  138OSM   H14B15019   2.445   4.059   8.522 -1.5187 -1.9709  1.4418
  138OSM   H14C15020   2.427   3.888   8.488  0.4416 -0.1151 -0.5805
  138OSM    C1315021   2.693   4.067   8.390  0.5502  0.3094  0.0693
  138OSM   H13A15022   2.658   4.077   8.288  3.8398  0.5064 -1.1754
  138OSM   H13B15023   2.801   4.059   8.387  0.5513  0.3554 -0.0178
  138OSM   H13C15024   2.677   4.150   8.457  1.6827  0.2069  0.4921
  138OSM    C1215025   2.670   3.821   8.385 -0.1645  0.4580 -0.3873
  138OSM   H12A15026   2.652   3.734   8.447 -0.3385  1.3665  0.8875
  138OSM   H12B15027   2.777   3.820   8.369 -0.1710  1.7970 -0.6318
  138OSM    C1115028   2.616   3.802   8.242 -0.1752  1.0895  0.2784
  138OSM   H11A15029   2.648   3.704   8.200  2.8705  0.9282  2.6596
  138OSM   H11B15030   2.668   3.877   8.179 -1.3418 -0.6132 -2.9483
  138OSM      P15031   2.385   3.697   8.198  0.1239  0.1897 -0.1079
  138OSM    O1315032   2.390   3.594   8.303 -0.8711 -0.3167 -0.2885
  138OSM    O1415033   2.246   3.753   8.180 -0.2490 -0.0101  0.6608
  138OSM    O1115034   2.441   3.645   8.061 -0.0578  0.1852 -0.1677
  138OSM    O1215035   2.477   3.816   8.232 -0.5577  0.2513  0.0434
  138OSM    C1S15036   2.450   3.749   7.954  0.2456 -0.0666  0.1104
  138OSM    H1S15037   2.559   3.772   7.945  0.7011 -2.0067  0.1354
  138OSM    H1T15038   2.394   3.842   7.977  0.7570  0.3782 -0.4070
  138OSM     NF15039   2.450   3.793   7.708 -0.9401 -0.0834 -0.1208
  138OSM    HNF15040   2.377   3.839   7.658 -0.2734  2.4532  1.0919
  138OSM    C2S15041   2.416   3.698   7.810 -0.4705  0.4088 -0.2441
  138OSM    H2S15042   2.479   3.609   7.790  1.5930  0.9284  3.0631
  138OSM    C3S15043   2.264   3.661   7.805 -0.1345 -0.3778 -0.9202
  138OSM    H3S15044   2.223   3.764   7.810  1.2224  0.1721  4.5637
  138OSM     O315045   2.215   3.585   7.916 -0.4540  0.7420  0.1616
  138OSM    HO315046   2.299   3.575   7.960  1.0411  1.2547 -2.3765
  138OSM    C4S15047   2.234   3.594   7.674  0.2455 -0.3996 -0.1277
  138OSM    H4S15048   2.179   3.665   7.610 -0.7075 -1.2878 -0.3193
  138OSM    C5S15049   2.249   3.464   7.633 -0.7677 -0.4480  0.2518
  138OSM    H5S15050   2.312   3.401   7.697 -0.5847 -0.8401 -0.3104
  138OSM    C6S15051   2.206   3.415   7.498  0.6478 -0.6274 -0.0500
  138OSM    H6S15052   2.126   3.340   7.514  0.9754 -0.6730  1.5923
  138OSM    H6T15053   2.296   3.362   7.461  1.0111  0.6947 -1.1364
  138OSM    C7S15054   2.158   3.508   7.390  0.0263 -1.1209  0.5735
  138OSM    H7S15055   2.240   3.582   7.375 -1.2568 -0.1194 -2.2690
  138OSM    H7T15056   2.072   3.572   7.418  1.2246  0.4534  0.8445
  138OSM    C8S15057   2.128   3.446   7.252  0.1544  1.0427  1.0782
  138OSM    H8S15058   2.031   3.392   7.259  1.3193 -1.1577  0.9676
  138OSM    H8T15059   2.206   3.371   7.226 -1.9374 -0.5646 -0.9410
  138OSM    C9S15060   2.128   3.561   7.157  0.2140  0.2934 -0.6055
  138OSM    H9S15061   2.230   3.606   7.161 -0.4055  1.8621 -1.5638
  138OSM    H9T15062   2.064   3.646   7.188  1.6977  1.3236 -0.2815
  138OSM   C10S15063   2.113   3.511   7.015 -0.0893  0.9487  0.0393
  138OSM   H10S15064   2.026   3.442   7.020  0.8848 -0.4614 -1.3384
  138OSM   H10T15065   2.206   3.460   6.981 -1.4412 -2.9468  1.6334
  138OSM   C11S15066   2.090   3.630   6.921 -0.1818 -0.5704  0.4526
  138OSM   H11S15067   2.188   3.680   6.905 -0.5386 -0.2057 -0.6662
  138OSM   H11T15068   2.011   3.698   6.960 -0.7111 -0.4190 -0.8441
  138OSM   C12S15069   2.053   3.576   6.777 -0.5238  0.2185 -0.1523
  138OSM   H12S15070   2.015   3.656   6.710 -0.1977 -0.2285 -0.8843
  138OSM   H12T15071   1.972   3.499   6.783  0.4025 -0.6952  1.1444
  138OSM   C13S15072   2.172   3.520   6.701 -0.3087 -1.1582 -0.1080
  138OSM   H13S15073   2.221   3.429   6.744  0.4803 -2.1853 -2.9590
  138OSM   H13T15074   2.255   3.592   6.686 -0.0669 -1.5207 -0.5173
  138OSM   C14S15075   2.122   3.475   6.561  0.3404 -0.3228 -0.6555
  138OSM   H14S15076   2.085   3.573   6.524 -0.2146 -0.7294 -1.1865
  138OSM   H14T15077   2.043   3.398   6.564 -1.0042  1.0505  0.9760
  138OSM   C15S15078   2.227   3.433   6.476 -0.3309  0.2365 -0.7203
  138OSM   H15S15079   2.260   3.334   6.515  1.1338  0.6736 -0.8016
  138OSM   H15T15080   2.323   3.487   6.486  0.1438 -0.7777  0.5601
  138OSM   C16S15081   2.189   3.426   6.336  0.5840  0.2873  0.8668
  138OSM   H16S15082   2.156   3.529   6.312 -2.2106 -0.7016  0.0900
  138OSM   H16T15083   2.092   3.372   6.327 -0.1080  1.8764 -3.0197
  138OSM   C17S15084   2.302   3.372   6.252  0.9200  0.6739  0.4319
  138OSM   H17S15085   2.341   3.282   6.303 -0.6239  1.0395  2.3758
  138OSM   H17T15086   2.390   3.440   6.251  0.5947  1.1116  0.7435
  138OSM   C18S15087   2.268   3.330   6.106  0.5201  0.2670  0.3486
  138OSM   H18S15088   2.357   3.306   6.044 -1.0971 -1.9610 -1.2437
  138OSM   H18T15089   2.206   3.407   6.055  1.8222  0.4460 -1.0389
  138OSM   H18U15090   2.199   3.244   6.099  1.4370 -0.6075  1.6814
  138OSM    C1F15091   2.574   3.822   7.666 -0.1389  0.3293 -0.0272
  138OSM     OF15092   2.671   3.759   7.719  0.2219 -0.0254 -0.0768
  138OSM    C2F15093   2.593   3.918   7.550  0.3317  0.2368  0.4626
  138OSM    H2F15094   2.532   4.009   7.567 -2.2160 -1.7212  2.7649
  138OSM    H2G15095   2.553   3.871   7.458 -2.3925 -0.5214  1.9190
  138OSM    C3F15096   2.743   3.943   7.541 -0.1317  0.0147 -0.0888
  138OSM    H3F15097   2.789   3.843   7.526 -1.1833 -0.4676 -0.1458
  138OSM    H3G15098   2.781   3.986   7.637 -0.5800 -1.3741  0.7387
  138OSM    C4F15099   2.782   4.032   7.418  0.7165  0.3159  0.2933
  138OSM    H4F15100   2.712   4.013   7.333  1.2771  0.1003 -0.1238
  138OSM    H4G15101   2.883   3.999   7.387  0.5823  0.0050  0.1705
  138OSM    C5F15102   2.773   4.184   7.464 -0.3197 -0.0425 -1.0145
  138OSM    H5F15103   2.826   4.184   7.561 -2.2015 -1.6328  0.0778
  138OSM    H5G15104   2.671   4.222   7.487  0.1298 -0.3371  1.7927
  138OSM    C6F15105   2.837   4.276   7.361 -0.4024  0.5254 -0.1440
  138OSM    H6F15106   2.938   4.249   7.324 -0.0115  0.4973  0.9238
  138OSM    H6G15107   2.841   4.380   7.397 -0.7439  1.1137 -1.7054
  138OSM    C7F15108   2.755   4.273   7.233 -0.6285 -0.9835 -0.3174
  138OSM    H7F15109   2.652   4.307   7.254 -0.5442  0.4048 -1.8728
  138OSM    H7G15110   2.754   4.166   7.204  2.5184 -1.5428  1.1958
  138OSM    C8F15111   2.803   4.376   7.133  0.4000 -0.4404 -0.0493
  138OSM    H8F15112   2.810   4.466   7.198  2.2365 -1.5449  1.4064
  138OSM    H8G15113   2.720   4.389   7.061 -0.0081  0.2172  0.5297
  138OSM    C9F15114   2.936   4.351   7.070 -0.4663 -0.0890  0.0039
  138OSM    H9F15115   3.028   4.392   7.114  0.1866 -0.6411 -0.7954
  138OSM   C10F15116   2.955   4.291   6.951  0.3107 -0.4124 -0.0461
  138OSM   H10F15117   3.058   4.277   6.918  0.1801  1.9065 -1.6502
  138OSM   C11F15118   2.846   4.218   6.878  0.7349  0.4901 -0.1940
  138OSM   H11F15119   2.744   4.254   6.902  0.9370  1.3967 -0.6263
  138OSM   H11G15120   2.840   4.112   6.909 -0.8008  1.0296  1.5463
  138OSM   C12F15121   2.868   4.227   6.722 -0.0347 -0.6022 -0.4245
  138OSM   H12F15122   2.786   4.158   6.692  1.8792 -3.6177  0.8375
  138OSM   H12G15123   2.960   4.172   6.694  0.2783 -0.5807  0.5332
  138OSM   C13F15124   2.849   4.363   6.664 -0.1035  0.3099 -0.2129
  138OSM   H13F15125   2.947   4.401   6.628 -1.1243  0.6447 -2.8600
  138OSM   H13G15126   2.790   4.422   6.737  0.9914 -2.6779  3.3897
  138OSM   C14F15127   2.768   4.349   6.525 -0.2366  0.3439 -1.0740
  138OSM   H14F15128   2.673   4.295   6.546  0.8161 -1.9717 -1.8636
  138OSM   H14G15129   2.830   4.293   6.451  0.3210 -1.4085  0.6396
  138OSM   C15F15130   2.742   4.487   6.462  0.2319 -0.1726  0.1623
  138OSM   H15F15131   2.837   4.522   6.416  0.8544 -2.2901 -0.2666
  138OSM   H15G15132   2.706   4.567   6.531  0.7983  2.8769 -2.7983
  138OSM   C16F15133   2.638   4.466   6.354  0.2642 -0.3338 -0.1979
  138OSM   H16F15134   2.633   4.556   6.288 -0.6336 -0.2078  0.0290
  138OSM   H16G15135   2.537   4.455   6.399 -0.6239 -0.3002 -2.0863
  138OSM   C17F15136   2.669   4.344   6.268 -0.3126  0.4681  0.4317
  138OSM   H17F15137   2.643   4.253   6.326  0.6804 -1.4991 -2.0411
  138OSM   H17G15138   2.778   4.354   6.250 -0.0386  2.8450  2.6866
  138OSM   C18F15139   2.598   4.341   6.134 -0.5845  0.3061  0.4771
  138OSM   H18F15140   2.491   4.366   6.148 -0.5036  1.1460 -0.3056
  138OSM   H18G15141   2.595   4.238   6.094  0.6962 -0.4198  2.1520
  138OSM   H18H15142   2.648   4.414   6.067 -1.6628 -0.1880 -0.8953
  139OSM      N15143   3.576   0.864   8.107 -0.0422 -0.0056 -0.2705
  139OSM    C1515144   3.631   0.851   7.968 -0.6183 -0.4623 -0.4928
  139OSM   H15A15145   3.725   0.902   7.983 -0.3266 -1.3367  0.7164
  139OSM   H15B15146   3.582   0.918   7.898 -0.3585  2.7985  2.1816
  139OSM   H15C15147   3.659   0.750   7.945  0.8324 -0.3499  0.6990
  139OSM    C1415148   3.540   1.010   8.117 -0.1629  0.2123  0.0736
  139OSM   H14A15149   3.618   1.070   8.074  1.4712 -0.9345  1.3069
  139OSM   H14B15150   3.525   1.041   8.219 -1.6282  0.3953 -0.1756
  139OSM   H14C15151   3.445   1.019   8.067 -0.8693 -0.9467  1.1361
  139OSM    C1315152   3.455   0.782   8.124  0.5248  0.1492 -0.9975
  139OSM   H13A15153   3.473   0.678   8.101  0.6590  0.4593 -2.3923
  139OSM   H13B15154   3.380   0.804   8.050 -2.2831 -0.0560  1.5892
  139OSM   H13C15155   3.401   0.788   8.218  1.9961 -1.5131  0.0211
  139OSM    C1215156   3.683   0.822   8.204  0.9412  0.0325  0.2155
  139OSM   H12A15157   3.716   0.726   8.170 -0.3259 -0.7841  1.1603
  139OSM   H12B15158   3.637   0.802   8.300 -2.1181 -0.7662 -1.2689
  139OSM    C1115159   3.812   0.908   8.222 -0.1157 -1.0437  0.2416
  139OSM   H11A15160   3.859   0.887   8.321  0.5007 -3.5199 -0.4834
  139OSM   H11B15161   3.779   1.013   8.235  2.7965  0.1994 -1.3863
  139OSM      P15162   4.015   0.778   8.107  0.4315  0.0714  0.4756
  139OSM    O1315163   4.113   0.797   8.212  0.2986  0.5502  0.4963
  139OSM    O1415164   3.944   0.644   8.103 -0.8190  0.2803 -0.1479
  139OSM    O1115165   4.086   0.799   7.963  0.3125  0.1151 -0.3759
  139OSM    O1215166   3.902   0.891   8.113 -0.1222 -0.3510 -0.2277
  139OSM    C1S15167   4.089   0.923   7.896 -0.2920  0.4372  0.5781
  139OSM    H1S15168   4.184   0.975   7.921  0.9380 -0.9975 -0.9286
  139OSM    H1T15169   4.004   0.992   7.915 -0.6885  0.5723 -1.4556
  139OSM     NF15170   4.126   1.017   7.674 -0.1587 -0.4966  0.0740
  139OSM    HNF15171   4.057   1.073   7.629  0.5278  1.0826  0.8846
  139OSM    C2S15172   4.074   0.904   7.743 -0.1312  0.6634  0.0309
  139OSM    H2S15173   4.143   0.822   7.715  0.0186  1.0382 -0.7214
  139OSM    C3S15174   3.924   0.857   7.717  0.2201 -0.6149  0.4052
  139OSM    H3S15175   3.859   0.942   7.745 -1.4681 -1.6908 -0.0537
  139OSM     O315176   3.877   0.752   7.792 -0.0305  0.7988  0.1583
  139OSM    HO315177   3.955   0.717   7.837  0.0605  1.0769  0.2176
  139OSM    C4S15178   3.898   0.845   7.571 -0.1147  0.0866  0.3169
  139OSM    H4S15179   3.843   0.929   7.527  0.7195  1.2725  1.4296
  139OSM    C5S15180   3.915   0.734   7.494 -0.0634 -0.4696 -0.6745
  139OSM    H5S15181   3.961   0.640   7.524  0.1565  0.2790  1.4846
  139OSM    C6S15182   3.882   0.733   7.346  0.3707 -0.1219  0.8084
  139OSM    H6S15183   3.869   0.838   7.310  1.1868 -0.8589 -1.8867
  139OSM    H6T15184   3.795   0.668   7.323  0.1753  0.0635  1.0186
  139OSM    C7S15185   3.988   0.662   7.243  0.4675  0.1266  0.2433
  139OSM    H7S15186   3.989   0.556   7.274 -0.2239  0.8262  2.9633
  139OSM    H7T15187   4.085   0.707   7.274  0.5892 -0.5345  0.8393
  139OSM    C8S15188   3.951   0.689   7.098 -0.1414  0.0756  0.5018
  139OSM    H8S15189   3.968   0.794   7.064 -1.6704  0.0815 -0.3666
  139OSM    H8T15190   3.841   0.691   7.081  0.2302  0.0683 -2.4310
  139OSM    C9S15191   4.012   0.603   7.002  0.2507 -0.9497 -0.2611
  139OSM    H9S15192   3.991   0.498   7.030 -1.3254 -0.6439 -0.2269
  139OSM    H9T15193   4.122   0.618   6.998  0.0724  0.8903  0.4940
  139OSM   C10S15194   3.949   0.637   6.864  0.0783 -0.4426  0.1280
  139OSM   H10S15195   3.950   0.745   6.841 -0.8385 -0.6357 -0.9311
  139OSM   H10T15196   3.843   0.603   6.862  0.1864 -1.0124  2.0240
  139OSM   C11S15197   4.022   0.564   6.748  0.3421  0.2398 -0.9474
  139OSM   H11S15198   4.023   0.455   6.767 -1.1224  0.5919  1.6449
  139OSM   H11T15199   4.125   0.605   6.748  2.3549 -3.9715  2.5643
  139OSM   C12S15200   3.958   0.593   6.620  0.3743 -0.2350  0.6882
  139OSM   H12S15201   3.971   0.702   6.605  1.2143 -0.5863 -1.3859
  139OSM   H12T15202   3.852   0.561   6.606  0.4742  0.1575 -1.2180
  139OSM   C13S15203   4.032   0.544   6.496  0.1049  0.0978  0.0124
  139OSM   H13S15204   4.029   0.432   6.499 -1.2885  0.0753 -1.1374
  139OSM   H13T15205   4.134   0.585   6.505  1.0375 -1.4712 -2.3688
  139OSM   C14S15206   3.959   0.590   6.361  0.2596 -0.6491  0.1339
  139OSM   H14S15207   3.960   0.701   6.353  1.3478 -0.5169  1.6529
  139OSM   H14T15208   3.851   0.568   6.370 -0.3406  1.4769 -1.1417
  139OSM   C15S15209   4.016   0.528   6.237 -0.7709 -0.0812  0.5030
  139OSM   H15S15210   4.013   0.417   6.242 -1.7253 -0.2058 -1.7068
  139OSM   H15T15211   4.122   0.558   6.244 -1.8502  4.0338  2.4270
  139OSM   C16S15212   3.947   0.572   6.114  0.0405  0.3626  0.2715
  139OSM   H16S15213   3.909   0.677   6.118  0.4150  0.5033  0.1670
  139OSM   H16T15214   3.859   0.504   6.114  0.2196  0.1295  0.7946
  139OSM   C17S15215   4.021   0.544   5.988 -0.4668  0.1641  0.4846
  139OSM   H17S15216   3.947   0.550   5.904  0.3345  0.7586 -0.1970
  139OSM   H17T15217   4.056   0.439   5.979 -1.2336  0.0015 -0.9154
  139OSM   C18S15218   4.139   0.632   5.956  0.6049  0.4401  0.1624
  139OSM   H18S15219   4.114   0.740   5.954 -2.1856 -0.1410 -0.3196
  139OSM   H18T15220   4.176   0.599   5.857 -0.0984 -2.5085  0.7777
  139OSM   H18U15221   4.228   0.610   6.020  2.8953 -0.4861 -3.0989
  139OSM    C1F15222   4.255   1.053   7.672 -0.3153 -0.5591 -0.0110
  139OSM     OF15223   4.341   0.972   7.714  0.2609 -0.1801  0.8094
  139OSM    C2F15224   4.299   1.186   7.604  0.3935  0.5226  0.0258
  139OSM    H2F15225   4.343   1.251   7.683  0.4997 -0.3949  0.7461
  139OSM    H2G15226   4.214   1.239   7.557  0.5511  0.1076 -0.7409
  139OSM    C3F15227   4.413   1.163   7.494  0.5574  0.0300  0.0874
  139OSM    H3F15228   4.370   1.085   7.428 -0.0619  0.4234  0.0079
  139OSM    H3G15229   4.506   1.126   7.542  0.5270 -0.6003 -0.3285
  139OSM    C4F15230   4.440   1.289   7.407 -0.6778  0.4452 -0.2983
  139OSM    H4F15231   4.475   1.381   7.459  1.4036 -1.1275  1.2635
  139OSM    H4G15232   4.350   1.316   7.348 -1.0349  1.3689  0.6439
  139OSM    C5F15233   4.549   1.254   7.308  0.0289 -0.1022 -0.0288
  139OSM    H5F15234   4.552   1.145   7.287  2.3027 -0.0026 -0.4943
  139OSM    H5G15235   4.650   1.274   7.351  0.5096 -0.1266 -1.1063
  139OSM    C6F15236   4.536   1.340   7.186 -0.6432  0.5434 -0.0297
  139OSM    H6F15237   4.562   1.445   7.214  1.9710 -0.2061  0.6755
  139OSM    H6G15238   4.430   1.337   7.156 -0.9394  2.8377  0.6138
  139OSM    C7F15239   4.638   1.302   7.074  0.3542 -0.2571 -0.2649
  139OSM    H7F15240   4.629   1.192   7.058 -0.1405 -0.4381  1.0771
  139OSM    H7G15241   4.740   1.328   7.112 -0.5031  3.0112  0.0937
  139OSM    C8F15242   4.603   1.376   6.948 -0.0559  0.0329 -0.0131
  139OSM    H8F15243   4.689   1.389   6.879  2.0820 -0.2906  2.4658
  139OSM    H8G15244   4.583   1.483   6.966  0.6555  0.7349 -2.8294
  139OSM    C9F15245   4.479   1.315   6.875 -0.0434 -0.0741 -0.7493
  139OSM    H9F15246   4.406   1.274   6.946 -0.7391  0.9672 -0.8404
  139OSM   C10F15247   4.456   1.289   6.747 -0.0480  0.0717 -1.1821
  139OSM   H10F15248   4.362   1.236   6.725 -0.1939  0.0540 -0.5466
  139OSM   C11F15249   4.544   1.340   6.629  0.1891  0.3792 -0.2448
  139OSM   H11F15250   4.610   1.261   6.586  2.9517  0.9309  2.6413
  139OSM   H11G15251   4.621   1.412   6.665  0.4515 -0.0867  0.1488
  139OSM   C12F15252   4.470   1.434   6.537 -0.2274  0.4277  0.8020
  139OSM   H12F15253   4.543   1.504   6.491 -2.4513  0.0968 -3.8176
  139OSM   H12G15254   4.395   1.491   6.596 -0.8543 -0.3123  0.7416
  139OSM   C13F15255   4.406   1.355   6.416  0.1232 -0.4632  0.1361
  139OSM   H13F15256   4.373   1.253   6.442  1.2490 -1.0985 -0.8256
  139OSM   H13G15257   4.480   1.327   6.338 -0.1222 -0.5626 -0.0579
  139OSM   C14F15258   4.306   1.443   6.347 -0.1559 -0.6516 -1.0070
  139OSM   H14F15259   4.354   1.537   6.313  1.1050 -0.3783  1.3397
  139OSM   H14G15260   4.222   1.483   6.407 -2.6369 -2.9070 -2.7045
  139OSM   C15F15261   4.234   1.380   6.221  0.7061 -0.0170  0.3277
  139OSM   H15F15262   4.134   1.425   6.202 -0.1119 -2.7588 -2.5893
  139OSM   H15G15263   4.207   1.273   6.232 -0.5799  0.2758  0.2368
  139OSM   C16F15264   4.313   1.399   6.094  0.2861 -0.5203  0.7895
  139OSM   H16F15265   4.416   1.357   6.102  0.3174 -0.8911 -1.1188
  139OSM   H16G15266   4.319   1.508   6.073 -1.1731 -0.3838  0.9671
  139OSM   C17F15267   4.253   1.340   5.966  0.5662  0.4607  0.1414
  139OSM   H17F15268   4.209   1.240   5.986  1.4211  0.1895  0.7333
  139OSM   H17G15269   4.335   1.320   5.894 -1.6263 -0.8702 -2.1554
  139OSM   C18F15270   4.154   1.437   5.905 -0.3642 -0.1400 -0.6157
  139OSM   H18F15271   4.086   1.488   5.976 -1.6452 -1.9459 -0.4644
  139OSM   H18G15272   4.080   1.400   5.830 -0.6923  1.4225 -1.0924
  139OSM   H18H15273   4.220   1.519   5.871 -0.7727  1.0517  1.3193
  140OSM      N15274   6.324   5.927   8.134  0.2261 -0.2023 -0.4335
  140OSM    C1515275   6.472   5.916   8.139 -1.3240 -0.6984 -0.0676
  140OSM   H15A15276   6.510   5.836   8.077 -0.2099  0.3372 -0.7769
  140OSM   H15B15277   6.493   5.895   8.243 -1.0848 -0.9867 -0.1745
  140OSM   H15C15278   6.513   6.011   8.107 -0.1295 -1.3065 -0.4029
  140OSM    C1415279   6.262   5.804   8.187 -0.1129 -0.0596  0.0207
  140OSM   H14A15280   6.251   5.731   8.108 -0.6234 -0.1765  0.1965
  140OSM   H14B15281   6.164   5.822   8.230  0.3079 -1.2193  1.5734
  140OSM   H14C15282   6.316   5.761   8.270  0.4324  0.7710  0.1095
  140OSM    C1315283   6.288   6.036   8.229 -0.1912 -0.1871  0.0205
  140OSM   H13A15284   6.327   6.016   8.328  2.8942 -0.7703 -1.1987
  140OSM   H13B15285   6.180   6.047   8.235 -0.0904  1.1821 -0.2374
  140OSM   H13C15286   6.326   6.130   8.193 -0.2414  0.1116  0.7282
  140OSM    C1215287   6.265   5.959   7.993  0.8992 -0.1865  0.0138
  140OSM   H12A15288   6.314   6.051   7.966  2.6740 -0.6222  1.5110
  140OSM   H12B15289   6.157   5.959   7.999  0.8986 -2.6147  1.8441
  140OSM    C1115290   6.296   5.850   7.885 -0.4705 -0.2278  0.1596
  140OSM   H11A15291   6.401   5.832   7.854 -1.3056 -2.7198 -1.4849
  140OSM   H11B15292   6.244   5.893   7.797  1.4560  1.7273 -0.1227
  140OSM      P15293   6.103   5.661   7.864 -0.1455  0.0249 -0.4577
  140OSM    O1315294   6.085   5.518   7.914 -0.2432  0.4374 -0.1191
  140OSM    O1415295   5.997   5.763   7.898 -0.1112  0.5526  0.3601
  140OSM    O1115296   6.124   5.664   7.714  0.2466  0.4626  0.0059
  140OSM    O1215297   6.238   5.724   7.923 -0.7828  0.2331 -0.0867
  140OSM    C1S15298   6.186   5.567   7.629 -0.0308  1.1391  0.8371
  140OSM    H1S15299   6.197   5.467   7.676  2.0077  0.1433 -1.5523
  140OSM    H1T15300   6.289   5.600   7.604 -0.6689  2.0825 -0.6764
  140OSM     NF15301   6.153   5.433   7.419 -0.1438 -0.4200  0.2308
  140OSM    HNF15302   6.183   5.438   7.324 -0.5776 -1.5290  0.0289
  140OSM    C2S15303   6.107   5.553   7.488  0.2898 -0.8102 -1.3512
  140OSM    H2S15304   6.001   5.536   7.515  1.0105 -3.8401 -0.0957
  140OSM    C3S15305   6.123   5.694   7.418  0.2570  0.1652  0.2121
  140OSM    H3S15306   6.230   5.702   7.388 -0.1173  3.0047 -0.7177
  140OSM     O315307   6.111   5.804   7.501  0.4127  0.4256  0.3547
  140OSM    HO315308   6.102   5.773   7.591  2.0409 -1.2942 -0.0070
  140OSM    C4S15309   6.049   5.711   7.291 -0.0677  0.6222  0.4538
  140OSM    H4S15310   6.114   5.706   7.203  0.2138 -0.9028  0.7184
  140OSM    C5S15311   5.916   5.736   7.274  0.2989  0.3451  0.2081
  140OSM    H5S15312   5.846   5.740   7.359  0.4675 -1.2833  0.4620
  140OSM    C6S15313   5.847   5.749   7.135  0.0593  0.8801  0.0653
  140OSM    H6S15314   5.786   5.842   7.129  0.9256  1.4984  0.5802
  140OSM    H6T15315   5.772   5.667   7.124  0.8794 -0.1566  1.8486
  140OSM    C7S15316   5.938   5.742   7.010  0.5591 -0.4948 -0.2594
  140OSM    H7S15317   5.993   5.646   7.020  0.8518 -0.0996  2.9108
  140OSM    H7T15318   6.014   5.822   7.022 -1.6681  1.6243  0.7979
  140OSM    C8S15319   5.847   5.759   6.887 -0.0806  0.5253  0.3853
  140OSM    H8S15320   5.805   5.862   6.883 -1.2214  0.0885  0.5481
  140OSM    H8T15321   5.764   5.685   6.886  0.7944 -0.4770  0.0162
  140OSM    C9S15322   5.934   5.749   6.758  0.3448  0.1505 -0.2469
  140OSM    H9S15323   5.993   5.655   6.762  0.1491 -0.0917 -1.9303
  140OSM    H9T15324   6.014   5.826   6.761 -0.3672  0.8738  1.1955
  140OSM   C10S15325   5.855   5.737   6.620 -0.4011 -0.3468  0.0708
  140OSM   H10S15326   5.807   5.636   6.629  0.9140 -1.0401 -0.5108
  140OSM   H10T15327   5.943   5.724   6.554  1.1268 -0.4437  2.0118
  140OSM   C11S15328   5.754   5.851   6.582  0.5042  0.6683  0.3471
  140OSM   H11S15329   5.695   5.868   6.674  0.0947  0.1688  0.1794
  140OSM   H11T15330   5.686   5.801   6.511 -2.3682  0.1753  3.2426
  140OSM   C12S15331   5.810   5.978   6.518  0.0721 -0.3233  0.0027
  140OSM   H12S15332   5.897   6.007   6.579  1.7598 -0.4272 -2.2188
  140OSM   H12T15333   5.730   6.056   6.517  0.5662  0.2691  2.3622
  140OSM   C13S15334   5.854   5.948   6.376 -0.5265 -0.2174  0.2363
  140OSM   H13S15335   5.933   5.871   6.370 -0.5966 -0.2798  0.1026
  140OSM   H13T15336   5.900   6.043   6.341 -0.9876  0.0679  0.3871
  140OSM   C14S15337   5.747   5.905   6.279  0.1004  0.6706  0.0225
  140OSM   H14S15338   5.668   5.982   6.291  0.4007  0.8384  0.9803
  140OSM   H14T15339   5.702   5.809   6.312  1.2328  0.6080  1.4718
  140OSM   C15S15340   5.808   5.907   6.137 -0.6251 -0.5713 -0.4099
  140OSM   H15S15341   5.898   5.844   6.152 -1.6468 -1.7521  1.2060
  140OSM   H15T15342   5.845   6.011   6.130 -1.7269  0.1771  3.0107
  140OSM   C16S15343   5.721   5.863   6.022  0.6816  0.5950 -0.0371
  140OSM   H16S15344   5.639   5.938   6.016  1.1646  1.0826 -0.8658
  140OSM   H16T15345   5.687   5.759   6.038  1.4221 -0.0068 -2.0475
  140OSM   C17S15346   5.796   5.882   5.892  0.1115  0.0498 -0.0677
  140OSM   H17S15347   5.901   5.848   5.904  0.9491  1.2843 -2.9759
  140OSM   H17T15348   5.825   5.986   5.865  1.7686 -0.5686 -0.7360
  140OSM   C18S15349   5.733   5.813   5.774  0.3967  0.0167 -0.5556
  140OSM   H18S15350   5.713   5.705   5.792  2.3020 -0.2197  0.4143
  140OSM   H18T15351   5.794   5.819   5.681  0.8153  1.4861 -0.2071
  140OSM   H18U15352   5.633   5.855   5.752 -0.0575 -0.5643  0.3489
  140OSM    C1F15353   6.126   5.314   7.465 -0.7086 -0.4547 -0.2877
  140OSM     OF15354   6.043   5.292   7.555 -0.1933 -0.0181  0.0802
  140OSM    C2F15355   6.195   5.208   7.390 -0.1147  0.0106  0.2419
  140OSM    H2F15356   6.258   5.146   7.457 -0.6010 -2.4671 -1.4568
  140OSM    H2G15357   6.261   5.250   7.312  0.2819  0.0421  0.5861
  140OSM    C3F15358   6.088   5.103   7.339  0.1215 -0.0443  0.8521
  140OSM    H3F15359   5.984   5.119   7.374 -1.1086 -2.5150 -1.3368
  140OSM    H3G15360   6.105   5.007   7.392 -0.0561 -0.9519 -0.6568
  140OSM    C4F15361   6.091   5.107   7.187  0.5378 -0.2139 -0.9421
  140OSM    H4F15362   6.196   5.103   7.153  0.9065  0.2021  0.1194
  140OSM    H4G15363   6.051   5.204   7.149  0.6996  0.4754  0.5842
  140OSM    C5F15364   5.994   5.003   7.129  0.0737 -0.6718 -0.4059
  140OSM    H5F15365   5.900   5.018   7.185  2.2048  0.2393  3.2023
  140OSM    H5G15366   6.032   4.904   7.162  1.8689  0.5575  1.4938
  140OSM    C6F15367   5.963   5.022   6.975  0.0797  0.1974 -0.3099
  140OSM    H6F15368   6.062   5.019   6.926  0.4051 -2.5304  0.3975
  140OSM    H6G15369   5.931   5.129   6.976  0.1914  0.2971 -2.4393
  140OSM    C7F15370   5.863   4.920   6.924 -0.5305 -0.1865  0.2222
  140OSM    H7F15371   5.769   4.947   6.978  0.9225 -0.0124  2.8802
  140OSM    H7G15372   5.892   4.828   6.980  1.7932 -0.3530 -1.1454
  140OSM    C8F15373   5.857   4.902   6.770  0.3106  1.0072 -1.1313
  140OSM    H8F15374   5.951   4.861   6.729  0.5018 -0.5612  0.7687
  140OSM    H8G15375   5.844   5.003   6.725 -0.1629  1.9639  1.0271
  140OSM    C9F15376   5.734   4.818   6.754 -0.2020 -0.2431 -0.2215
  140OSM    H9F15377   5.669   4.834   6.841 -0.4067 -1.0857 -0.2141
  140OSM   C10F15378   5.697   4.744   6.649  0.4675 -0.3504 -0.2550
  140OSM   H10F15379   5.614   4.674   6.667  0.3042  0.0818  0.7969
  140OSM   C11F15380   5.794   4.721   6.539 -0.1190 -0.3998  0.3474
  140OSM   H11F15381   5.875   4.659   6.583  0.0990 -1.4815 -1.4768
  140OSM   H11G15382   5.829   4.820   6.505 -1.9206  0.2357  0.2274
  140OSM   C12F15383   5.718   4.638   6.438 -0.3520 -0.0848 -0.0151
  140OSM   H12F15384   5.664   4.544   6.464 -0.7324 -0.4018 -1.8000
  140OSM   H12G15385   5.804   4.604   6.377 -0.3915 -2.7324  1.2755
  140OSM   C13F15386   5.617   4.728   6.354 -0.2137  0.1827 -0.5988
  140OSM   H13F15387   5.681   4.816   6.333 -0.3449  1.3382  3.1352
  140OSM   H13G15388   5.524   4.753   6.409 -1.2123 -0.4237 -1.9559
  140OSM   C14F15389   5.570   4.667   6.219 -1.3427  0.3373  0.0637
  140OSM   H14F15390   5.521   4.568   6.235  0.1125 -1.3930 -4.4454
  140OSM   H14G15391   5.663   4.647   6.161 -0.9579 -2.2728  1.4070
  140OSM   C15F15392   5.485   4.769   6.137 -0.0424  0.6467  0.1007
  140OSM   H15F15393   5.546   4.816   6.057  0.0740 -2.1703 -1.6335
  140OSM   H15G15394   5.430   4.846   6.195  1.3527  2.5340 -0.9882
  140OSM   C16F15395   5.384   4.683   6.064  0.7395  0.0038  0.0638
  140OSM   H16F15396   5.421   4.582   6.038 -0.5326 -0.4127 -0.1947
  140OSM   H16G15397   5.344   4.730   5.972  0.7621 -1.0388 -0.4889
  140OSM   C17F15398   5.252   4.681   6.143  0.4879  0.2056 -0.5560
  140OSM   H17F15399   5.226   4.789   6.133  1.1022  0.2247 -2.1392
  140OSM   H17G15400   5.264   4.659   6.252 -3.7339 -1.6009 -0.2990
  140OSM   C18F15401   5.152   4.589   6.077  0.8478  0.1079 -0.2929
  140OSM   H18F15402   5.048   4.603   6.113  0.6345 -1.1840 -0.3856
  140OSM   H18G15403   5.188   4.487   6.104 -2.8695 -0.8386  1.6959
  140OSM   H18H15404   5.150   4.607   5.968  2.7451  0.5330 -0.3075
  141OSM      N15405   3.335   0.078   8.419  0.1199  0.1153 -0.3713
  141OSM    C1515406   3.213   0.001   8.458  0.0758 -0.3910 -0.2218
  141OSM   H15A15407   3.137   0.072   8.490 -0.5186 -0.7249 -0.8784
  141OSM   H15B15408   3.237  -0.072   8.534  5.3701  0.8339 -0.3580
  141OSM   H15C15409   3.183  -0.039   8.362  1.2162 -0.5715 -0.5062
  141OSM    C1415410   3.303   0.175   8.313  0.0867  0.5997  0.3532
  141OSM   H14A15411   3.387   0.234   8.279  0.1405 -0.3798 -1.2928
  141OSM   H14B15412   3.219   0.236   8.343  0.8157 -0.0274  4.1011
  141OSM   H14C15413   3.271   0.124   8.223 -0.5656  0.3196  0.7385
  141OSM    C1315414   3.370   0.156   8.542  0.3326  0.4530 -0.0206
  141OSM   H13A15415   3.370   0.093   8.629 -2.1539  0.1218 -0.2074
  141OSM   H13B15416   3.305   0.241   8.559  0.2496  0.1037  1.5778
  141OSM   H13C15417   3.468   0.200   8.527 -0.1366  1.3486 -0.5737
  141OSM    C1215418   3.446  -0.018   8.375 -0.4179  0.1757 -0.2000
  141OSM   H12A15419   3.440  -0.104   8.441 -1.8759  0.5373  0.1759
  141OSM   H12B15420   3.548   0.009   8.396 -0.5148 -0.9045  1.9946
  141OSM    C1115421   3.426  -0.080   8.235 -0.0970 -0.2421 -0.9257
  141OSM   H11A15422   3.467  -0.013   8.157 -0.0738  0.1695 -0.5680
  141OSM   H11B15423   3.317  -0.089   8.218 -0.3720  0.0751  0.5152
  141OSM      P15424   3.651  -0.224   8.210  0.5924 -0.3834 -0.0812
  141OSM    O1315425   3.718  -0.094   8.238 -0.6619 -0.3098  0.5315
  141OSM    O1415426   3.716  -0.337   8.286 -0.7543  0.2113  0.9327
  141OSM    O1115427   3.652  -0.249   8.056 -0.0799  0.1829  0.3861
  141OSM    O1215428   3.492  -0.207   8.242  0.2824  0.1331 -0.5739
  141OSM    C1S15429   3.534  -0.237   7.973  0.1047  0.2468 -0.2414
  141OSM    H1S15430   3.511  -0.128   7.965 -0.2583  0.1255 -0.9171
  141OSM    H1T15431   3.451  -0.299   8.014  1.0323 -0.6603  0.3243
  141OSM     NF15432   3.489  -0.218   7.737  0.3485  0.0871  0.1667
  141OSM    HNF15433   3.399  -0.260   7.725  1.6138 -3.5225  1.9579
  141OSM    C2S15434   3.573  -0.285   7.833 -0.9655 -0.3902  0.0605
  141OSM    H2S15435   3.678  -0.254   7.814 -1.5217  0.1567 -2.4419
  141OSM    C3S15436   3.567  -0.442   7.833 -0.1693 -0.3127  0.0193
  141OSM    H3S15437   3.464  -0.477   7.856  0.4540 -2.2328  0.0714
  141OSM     O315438   3.634  -0.491   7.944 -0.1910 -0.5047 -0.4342
  141OSM    HO315439   3.677  -0.413   7.979  1.7672 -2.0787  0.8807
  141OSM    C4S15440   3.603  -0.500   7.701 -0.4726 -0.2656  0.5556
  141OSM    H4S15441   3.706  -0.533   7.685  0.0638  1.3691  0.4529
  141OSM    C5S15442   3.525  -0.528   7.592 -0.8633  0.2449  0.6178
  141OSM    H5S15443   3.419  -0.499   7.594 -0.5213  1.5584  0.8020
  141OSM    C6S15444   3.579  -0.572   7.452  0.3333 -0.3624 -0.4964
  141OSM    H6S15445   3.523  -0.513   7.376 -0.9798 -1.1144 -0.1474
  141OSM    H6T15446   3.539  -0.675   7.444  0.7048 -0.4350 -1.7389
  141OSM    C7S15447   3.732  -0.576   7.425 -0.3589 -0.0038  0.1707
  141OSM    H7S15448   3.761  -0.643   7.342  0.7791 -0.3944  0.8524
  141OSM    H7T15449   3.787  -0.623   7.510 -1.3538 -1.4661  0.0472
  141OSM    C8S15450   3.788  -0.444   7.397 -0.4201 -0.0695  0.5815
  141OSM    H8S15451   3.860  -0.408   7.473  0.2155 -0.4946  0.1867
  141OSM    H8T15452   3.710  -0.367   7.376 -0.2229 -0.2000 -0.6828
  141OSM    C9S15453   3.872  -0.452   7.267 -0.4047  0.4766 -0.7023
  141OSM    H9S15454   3.889  -0.348   7.233  1.4213  0.6909  0.7623
  141OSM    H9T15455   3.811  -0.500   7.187 -3.0882  0.7450  1.0371
  141OSM   C10S15456   4.001  -0.519   7.299  0.0681  0.4888 -0.6126
  141OSM   H10S15457   3.978  -0.626   7.318  0.7825  0.9431  3.8871
  141OSM   H10T15458   4.037  -0.482   7.397  0.3298  1.5883 -1.1117
  141OSM   C11S15459   4.114  -0.493   7.206 -0.1202  0.1408  0.6438
  141OSM   H11S15460   4.114  -0.390   7.163  4.0568  0.1399  0.2469
  141OSM   H11T15461   4.094  -0.541   7.108  0.0790  1.5640 -0.1216
  141OSM   C12S15462   4.254  -0.536   7.257 -0.0094  0.2581 -0.8407
  141OSM   H12S15463   4.231  -0.619   7.328  1.1451 -1.5735 -2.4934
  141OSM   H12T15464   4.304  -0.457   7.317  0.5609 -2.2284  2.2323
  141OSM   C13S15465   4.334  -0.594   7.144 -0.1549 -0.4160 -0.0908
  141OSM   H13S15466   4.322  -0.535   7.050  0.4356  1.7010  1.1021
  141OSM   H13T15467   4.305  -0.699   7.121  0.8501 -0.5424 -0.8757
  141OSM   C14S15468   4.480  -0.618   7.185  0.7918 -0.7152 -0.5085
  141OSM   H14S15469   4.467  -0.685   7.273  2.6346 -1.1085 -0.4999
  141OSM   H14T15470   4.525  -0.531   7.236  0.8717 -1.1918  0.2528
  141OSM   C15S15471   4.562  -0.706   7.091  0.9371 -0.0944  0.4505
  141OSM   H15S15472   4.589  -0.658   6.994  1.9930 -1.1606  0.1995
  141OSM   H15T15473   4.505  -0.798   7.068  1.0720 -0.4371  1.4392
  141OSM   C16S15474   4.697  -0.731   7.152 -0.5389  0.4856 -0.1693
  141OSM   H16S15475   4.689  -0.748   7.261 -3.1163 -0.4649 -0.4319
  141OSM   H16T15476   4.761  -0.641   7.141  0.4748  0.2129  2.7318
  141OSM   C17S15477   4.781  -0.845   7.088  0.4447  0.6515 -0.1914
  141OSM   H17S15478   4.811  -0.828   6.983 -0.3740 -1.6798 -0.8664
  141OSM   H17T15479   4.717  -0.935   7.074 -2.4079  2.2191  1.6638
  141OSM   C18S15480   4.908  -0.888   7.167  0.2390 -0.1074 -0.0274
  141OSM   H18S15481   4.887  -0.910   7.274 -0.1305 -0.0311 -0.0851
  141OSM   H18T15482   4.984  -0.807   7.171  0.2485 -0.1322  3.3169
  141OSM   H18U15483   4.952  -0.979   7.122 -0.0077  0.3424 -1.2098
  141OSM    C1F15484   3.504  -0.090   7.703 -0.0116  0.5802  1.1651
  141OSM     OF15485   3.598  -0.022   7.749 -0.0240 -0.1224 -0.4174
  141OSM    C2F15486   3.406  -0.021   7.617  0.2377 -0.2169 -0.7644
  141OSM    H2F15487   3.371   0.072   7.666  1.1212  0.2386 -0.9821
  141OSM    H2G15488   3.324  -0.095   7.603 -0.8220  0.7146  0.3507
  141OSM    C3F15489   3.464   0.016   7.475 -0.6765  0.5676  0.4565
  141OSM    H3F15490   3.551   0.085   7.483  1.9040 -2.2739 -0.7946
  141OSM    H3G15491   3.385   0.068   7.418 -1.1066  0.5053  0.9854
  141OSM    C4F15492   3.520  -0.109   7.393  0.0510 -0.5302 -0.2174
  141OSM    H4F15493   3.446  -0.191   7.393  0.1256 -0.6069 -0.8635
  141OSM    H4G15494   3.611  -0.133   7.453  0.3504  0.4555 -0.2641
  141OSM    C5F15495   3.571  -0.076   7.250 -0.2126  0.3584 -0.2239
  141OSM    H5F15496   3.667  -0.021   7.262  0.9551 -1.8610  1.3537
  141OSM    H5G15497   3.493  -0.016   7.198  1.4715  1.5389 -1.5350
  141OSM    C6F15498   3.611  -0.196   7.159 -0.2855  0.8811 -0.1130
  141OSM    H6F15499   3.521  -0.252   7.125  0.1145  0.2398 -0.1348
  141OSM    H6G15500   3.675  -0.263   7.221 -0.3128  0.2990 -0.6995
  141OSM    C7F15501   3.684  -0.138   7.035 -0.2577 -0.8088 -0.2345
  141OSM    H7F15502   3.777  -0.097   7.080  0.1869 -2.9993  1.0230
  141OSM    H7G15503   3.620  -0.059   6.990 -0.0270  0.0690  0.9393
  141OSM    C8F15504   3.721  -0.242   6.938  0.2444  0.3936  0.2222
  141OSM    H8F15505   3.766  -0.331   6.987 -0.7519 -0.5295 -0.4880
  141OSM    H8G15506   3.795  -0.186   6.877 -0.2840  2.4698  1.3883
  141OSM    C9F15507   3.611  -0.298   6.850  0.0868  0.4758  0.0281
  141OSM    H9F15508   3.531  -0.344   6.911 -0.2923  0.9085 -0.1369
  141OSM   C10F15509   3.601  -0.301   6.713  0.1354  0.2007 -0.9231
  141OSM   H10F15510   3.519  -0.355   6.662 -1.1423  1.4276 -0.2525
  141OSM   C11F15511   3.709  -0.253   6.619 -0.2690  0.2730 -0.2999
  141OSM   H11F15512   3.808  -0.291   6.654 -0.1697 -0.2451 -1.1132
  141OSM   H11G15513   3.720  -0.143   6.622 -0.4625  0.2705  1.4694
  141OSM   C12F15514   3.689  -0.313   6.484 -0.2856 -0.2316 -0.6293
  141OSM   H12F15515   3.666  -0.421   6.485 -1.5069 -0.0543  2.5818
  141OSM   H12G15516   3.794  -0.306   6.447  0.3300 -0.1465  1.0334
  141OSM   C13F15517   3.591  -0.243   6.395  0.3348 -0.1231 -0.5939
  141OSM   H13F15518   3.618  -0.137   6.381  3.0988 -0.4717  1.3922
  141OSM   H13G15519   3.488  -0.259   6.435  0.8899 -3.4420 -0.2195
  141OSM   C14F15520   3.590  -0.313   6.260  0.0266  0.3662 -0.4428
  141OSM   H14F15521   3.508  -0.271   6.198 -1.2395 -2.3331 -0.7071
  141OSM   H14G15522   3.556  -0.418   6.272 -1.3352  0.7872 -0.3728
  141OSM   C15F15523   3.725  -0.316   6.173  0.2606 -0.0153  0.2317
  141OSM   H15F15524   3.788  -0.401   6.210  0.0393 -0.5165 -0.5120
  141OSM   H15G15525   3.774  -0.219   6.194 -2.9882  1.6651  0.5006
  141OSM   C16F15526   3.700  -0.312   6.023  0.1437  0.1246  0.3545
  141OSM   H16F15527   3.645  -0.218   6.000  3.2172  1.6116 -1.4884
  141OSM   H16G15528   3.635  -0.400   6.002  0.7280  0.0248 -1.1794
  141OSM   C17F15529   3.818  -0.314   5.928 -0.3790 -0.0210  0.2419
  141OSM   H17F15530   3.873  -0.406   5.956  2.3348  0.9794 -1.4109
  141OSM   H17G15531   3.884  -0.226   5.947 -1.4892  1.2270 -1.4398
  141OSM   C18F15532   3.794  -0.316   5.776 -0.7088 -0.3883  0.0701
  141OSM   H18F15533   3.754  -0.216   5.748  0.8405  0.5614  1.1535
  141OSM   H18G15534   3.721  -0.392   5.739  0.0984  0.3763 -3.4365
  141OSM   H18H15535   3.893  -0.332   5.728 -0.5424  1.2560 -0.1648
  142OSM      N15536   0.069   5.923   7.486  0.3919  0.0510  0.0280
  142OSM    C1515537   0.189   5.870   7.418 -0.0484 -0.2518 -0.5285
  142OSM   H15A15538   0.169   5.795   7.343  0.8458 -0.3140 -0.7203
  142OSM   H15B15539   0.256   5.818   7.485  0.5597 -0.6785 -1.4398
  142OSM   H15C15540   0.244   5.949   7.369  1.7338 -1.5266 -0.6966
  142OSM    C1415541   0.007   5.820   7.563 -0.0454  0.4405 -0.2624
  142OSM   H14A15542   0.050   5.799   7.660  0.3689 -1.9656 -0.9091
  142OSM   H14B15543   0.001   5.721   7.521  0.1985 -0.3173  1.3938
  142OSM   H14C15544  -0.097   5.848   7.575  0.2074  1.0145  0.7962
  142OSM    C1315545   0.102   6.035   7.573  0.6607  0.4562 -0.0644
  142OSM   H13A15546   0.167   6.010   7.656 -1.0474  1.3464  1.6135
  142OSM   H13B15547   0.011   6.072   7.617 -1.3978 -4.0151 -0.0768
  142OSM   H13C15548   0.158   6.106   7.514  0.2627  1.3737  0.6271
  142OSM    C1215549  -0.026   5.960   7.374 -1.0503 -0.4349  0.0411
  142OSM   H12A15550  -0.116   5.985   7.428 -0.5207 -2.1785  1.8628
  142OSM   H12B15551  -0.046   5.879   7.306  0.6421 -0.8142 -0.0654
  142OSM    C1115552   0.023   6.083   7.286 -0.3186 -0.4648  0.0009
  142OSM   H11A15553  -0.047   6.091   7.200 -1.0833 -0.9274  0.5635
  142OSM   H11B15554   0.123   6.061   7.243 -0.4038 -0.4250 -0.2196
  142OSM      P15555  -0.102   6.293   7.390 -0.1502  0.1530  0.0089
  142OSM    O1315556  -0.197   6.210   7.475  0.9061 -0.0801  0.3191
  142OSM    O1415557  -0.062   6.424   7.446  0.1077 -0.0038  0.1503
  142OSM    O1115558  -0.160   6.313   7.246  0.2918  0.6285  0.1219
  142OSM    O1215559   0.025   6.207   7.362  0.2282  0.1466 -0.7828
  142OSM    C1S15560  -0.075   6.369   7.141 -0.5329  0.3316 -0.2168
  142OSM    H1S15561   0.009   6.300   7.118 -0.2426  0.8174 -0.6275
  142OSM    H1T15562  -0.024   6.464   7.167  0.1071  0.2793 -1.2040
  142OSM     NF15563  -0.093   6.476   6.916  0.4622 -0.2264 -0.0484
  142OSM    HNF15564  -0.116   6.571   6.897  0.3513  0.1465  1.7461
  142OSM    C2S15565  -0.166   6.411   7.018  0.3385  0.0650 -0.3919
  142OSM    H2S15566  -0.214   6.324   6.967 -0.6394 -0.0271  0.6494
  142OSM    C3S15567  -0.289   6.495   7.067 -0.5474 -0.8051 -0.0211
  142OSM    H3S15568  -0.247   6.592   7.101  0.9421 -0.8828 -1.5131
  142OSM     O315569  -0.365   6.436   7.174  0.6213 -0.6156 -0.3646
  142OSM    HO315570  -0.297   6.394   7.226  2.1768  0.9861 -1.0006
  142OSM    C4S15571  -0.379   6.548   6.948  0.4015 -0.0766 -0.1824
  142OSM    H4S15572  -0.357   6.642   6.895  0.9944 -1.1232 -1.8557
  142OSM    C5S15573  -0.487   6.476   6.901  0.0904 -0.3679 -0.0638
  142OSM    H5S15574  -0.526   6.396   6.965 -0.5724 -0.6303 -0.7774
  142OSM    C6S15575  -0.574   6.509   6.787 -0.0784 -0.5548  0.1696
  142OSM    H6S15576  -0.575   6.620   6.776  2.5038 -0.3374  1.5281
  142OSM    H6T15577  -0.680   6.481   6.805 -0.0998  0.0521  1.0250
  142OSM    C7S15578  -0.527   6.459   6.653 -0.3632  0.2309  0.3391
  142OSM    H7S15579  -0.489   6.355   6.653 -0.0531  0.3271 -0.6427
  142OSM    H7T15580  -0.438   6.520   6.625 -0.1950 -0.2474 -0.1773
  142OSM    C8S15581  -0.637   6.475   6.548 -0.0799  0.0420  0.1546
  142OSM    H8S15582  -0.639   6.586   6.543  0.0478 -0.0067 -1.9515
  142OSM    H8T15583  -0.734   6.440   6.589 -1.3156  1.0904 -1.7325
  142OSM    C9S15584  -0.596   6.416   6.413 -0.0242 -0.2358  0.2446
  142OSM    H9S15585  -0.549   6.317   6.431  0.8145  0.1456  0.2045
  142OSM    H9T15586  -0.522   6.485   6.366 -0.3943 -2.0360 -3.3499
  142OSM   C10S15587  -0.719   6.393   6.323 -1.2223 -0.2805  0.6810
  142OSM   H10S15588  -0.772   6.487   6.299 -2.1410 -1.1434 -0.8114
  142OSM   H10T15589  -0.793   6.328   6.374 -0.6174 -1.3038  0.2753
  142OSM   C11S15590  -0.680   6.327   6.191  0.2843 -0.4114 -0.0421
  142OSM   H11S15591  -0.636   6.226   6.208 -2.9997 -2.0798 -0.5027
  142OSM   H11T15592  -0.604   6.390   6.140  1.8629 -1.2695  1.1504
  142OSM   C12S15593  -0.790   6.314   6.083 -0.3687  0.1286  0.3313
  142OSM   H12S15594  -0.836   6.415   6.085  1.1834  0.8995 -0.9549
  142OSM   H12T15595  -0.870   6.240   6.106 -0.5558  0.7000  1.5697
  142OSM   C13S15596  -0.735   6.272   5.950 -0.3317 -0.0774  0.0781
  142OSM   H13S15597  -0.699   6.167   5.964 -0.7880 -0.5169 -1.7819
  142OSM   H13T15598  -0.647   6.335   5.923 -0.5306 -0.2596 -1.0277
  142OSM   C14S15599  -0.832   6.282   5.832 -0.3693 -0.2657 -0.0366
  142OSM   H14S15600  -0.855   6.389   5.815 -0.7611 -0.1284  1.2722
  142OSM   H14T15601  -0.919   6.225   5.870 -0.8797  0.7880  0.4091
  142OSM   C15S15602  -0.771   6.221   5.700  0.6189  0.1745 -0.0386
  142OSM   H15S15603  -0.746   6.115   5.723  0.2203 -0.4184 -2.1347
  142OSM   H15T15604  -0.679   6.278   5.675  1.1445 -0.8654 -0.5337
  142OSM   C16S15605  -0.864   6.197   5.586 -0.7702  0.6469 -0.3220
  142OSM   H16S15606  -0.915   6.296   5.579 -2.0844  0.1594  1.3805
  142OSM   H16T15607  -0.940   6.122   5.617  0.1465 -1.1873 -2.3228
  142OSM   C17S15608  -0.787   6.132   5.465  0.1780  0.2784 -0.5787
  142OSM   H17S15609  -0.760   6.030   5.499 -1.3298  0.1380  0.2768
  142OSM   H17T15610  -0.690   6.182   5.447  2.3241 -2.8459  1.4010
  142OSM   C18S15611  -0.881   6.118   5.344 -0.3756  0.2451 -0.5005
  142OSM   H18S15612  -0.838   6.064   5.256 -0.8013 -1.4460  0.2875
  142OSM   H18T15613  -0.891   6.220   5.303 -1.9752  0.1955 -0.2936
  142OSM   H18U15614  -0.981   6.080   5.372  1.0467 -1.9178  2.1937
  142OSM    C1F15615   0.005   6.414   6.852  0.1884  0.0307  0.0136
  142OSM     OF15616   0.016   6.292   6.877 -0.5627 -0.2572 -0.3881
  142OSM    C2F15617   0.096   6.481   6.752  0.4657  0.0280  0.7450
  142OSM    H2F15618   0.122   6.401   6.680 -1.8204  1.2882 -1.6773
  142OSM    H2G15619   0.185   6.505   6.815  0.9532 -1.9916  0.9026
  142OSM    C3F15620   0.043   6.610   6.677 -0.1296  0.2029  0.0442
  142OSM    H3F15621   0.139   6.655   6.642 -0.8281  3.4491  1.8834
  142OSM    H3G15622  -0.010   6.680   6.745 -0.2296  1.5388 -1.3634
  142OSM    C4F15623  -0.042   6.596   6.545  0.0322 -0.0883  0.4225
  142OSM    H4F15624  -0.010   6.506   6.488  1.5420  0.9783 -0.4902
  142OSM    H4G15625   0.001   6.684   6.492  0.0047  0.2581  0.9648
  142OSM    C5F15626  -0.186   6.615   6.562  0.0587 -0.6636  0.1881
  142OSM    H5F15627  -0.215   6.698   6.630  1.7298 -1.3922  1.8782
  142OSM    H5G15628  -0.215   6.527   6.624 -2.0531  0.3124  0.6781
  142OSM    C6F15629  -0.257   6.608   6.428  0.1443 -0.1699 -0.4927
  142OSM    H6F15630  -0.363   6.631   6.450  0.1227 -0.5037 -0.2442
  142OSM    H6G15631  -0.249   6.504   6.389 -0.3400  0.7076 -3.1170
  142OSM    C7F15632  -0.201   6.703   6.326 -0.3930  0.0054  0.7004
  142OSM    H7F15633  -0.095   6.681   6.299 -0.8270  0.8608 -1.9876
  142OSM    H7G15634  -0.207   6.810   6.355  2.3033  0.2769  0.5039
  142OSM    C8F15635  -0.269   6.697   6.192  0.0973 -0.0623  0.1919
  142OSM    H8F15636  -0.243   6.794   6.144 -4.1884 -0.0147 -2.6141
  142OSM    H8G15637  -0.380   6.701   6.194 -0.0050 -1.2534 -1.2022
  142OSM    C9F15638  -0.246   6.575   6.101 -0.1738  0.2098  0.9120
  142OSM    H9F15639  -0.221   6.485   6.160  1.1501  1.9036  3.0779
  142OSM   C10F15640  -0.222   6.572   5.969  0.7395 -0.6575 -0.3230
  142OSM   H10F15641  -0.203   6.479   5.915 -1.5406  0.4676 -3.3583
  142OSM   C11F15642  -0.250   6.686   5.879 -0.8916 -0.0118  0.4268
  142OSM   H11F15643  -0.166   6.758   5.885  0.0473 -1.0232 -0.2955
  142OSM   H11G15644  -0.336   6.751   5.904  0.7844  2.3303  0.4508
  142OSM   C12F15645  -0.276   6.654   5.731  0.2848 -0.0338 -0.3419
  142OSM   H12F15646  -0.283   6.753   5.681 -0.6649 -0.5673 -1.3203
  142OSM   H12G15647  -0.370   6.594   5.725  0.4948 -0.3083 -0.9937
  142OSM   C13F15648  -0.167   6.578   5.657 -0.3399 -1.1534 -0.2262
  142OSM   H13F15649  -0.137   6.485   5.708  1.8208 -1.1125 -1.2892
  142OSM   H13G15650  -0.081   6.649   5.651 -2.1384  1.3980  1.8423
  142OSM   C14F15651  -0.211   6.538   5.520  0.3404 -0.3345  0.4534
  142OSM   H14F15652  -0.287   6.457   5.525 -0.6379  0.6015  1.4273
  142OSM   H14G15653  -0.118   6.511   5.467  0.7443 -0.9788  1.4758
  142OSM   C15F15654  -0.272   6.647   5.434  0.1914 -0.3544 -0.2657
  142OSM   H15F15655  -0.225   6.747   5.448 -0.6624  0.5033 -2.8872
  142OSM   H15G15656  -0.382   6.654   5.450  0.1907  1.5438 -0.8228
  142OSM   C16F15657  -0.269   6.615   5.284  0.4491  0.1456  0.7552
  142OSM   H16F15658  -0.286   6.506   5.269  0.1264  0.4467 -1.3827
  142OSM   H16G15659  -0.164   6.630   5.250  0.8103 -0.1504  1.6878
  142OSM   C17F15660  -0.365   6.710   5.206 -0.0370  0.2175 -0.5800
  142OSM   H17F15661  -0.469   6.687   5.236  0.1156  0.8378  0.4863
  142OSM   H17G15662  -0.356   6.684   5.098  4.4619  2.0550 -0.8496
  142OSM   C18F15663  -0.342   6.862   5.220 -0.1379  0.1749  0.0180
  142OSM   H18F15664  -0.408   6.924   5.156  0.4662  0.5649 -0.2399
  142OSM   H18G15665  -0.235   6.882   5.196 -0.2680  3.0663  1.4011
  142OSM   H18H15666  -0.372   6.895   5.322 -2.3129  0.3979 -0.6587
  143OSM      N15667   4.497   0.978   8.020  0.5317  0.0187  0.3990
  143OSM    C1515668   4.401   1.025   8.124 -0.7503  0.8045 -0.1931
  143OSM   H15A15669   4.356   0.942   8.177 -1.8280  1.0381 -0.7125
  143OSM   H15B15670   4.318   1.075   8.077 -0.1006  0.2971 -1.9492
  143OSM   H15C15671   4.446   1.095   8.194 -1.5736  0.7954  0.3669
  143OSM    C1415672   4.630   0.946   8.082 -0.5517  0.5209  0.3616
  143OSM   H14A15673   4.701   0.927   8.003 -2.2923  1.0834 -1.4484
  143OSM   H14B15674   4.616   0.861   8.147  0.2392  0.4010  0.3763
  143OSM   H14C15675   4.669   1.029   8.139 -1.4914  1.7792 -0.7538
  143OSM    C1315676   4.435   0.856   7.966 -1.5843  1.0168  0.9119
  143OSM   H13A15677   4.430   0.773   8.036 -0.2699 -0.2901 -0.4610
  143OSM   H13B15678   4.497   0.822   7.885 -0.4520  0.2540  2.0595
  143OSM   H13C15679   4.336   0.871   7.924 -1.0968 -0.2985 -0.8374
  143OSM    C1215680   4.523   1.085   7.920  0.7398 -0.6685 -0.1706
  143OSM   H12A15681   4.528   1.184   7.965  2.4635  0.0372 -1.8088
  143OSM   H12B15682   4.430   1.082   7.866 -0.9423 -0.7385  2.5172
  143OSM    C1115683   4.649   1.071   7.835 -0.6885  0.2194 -0.5752
  143OSM   H11A15684   4.625   1.133   7.746 -3.0360 -2.2492 -1.7897
  143OSM   H11B15685   4.668   0.968   7.798 -2.5795 -0.2535 -0.3408
  143OSM      P15686   4.785   1.262   7.931  0.3121  0.1129  0.1256
  143OSM    O1315687   4.696   1.310   8.042 -0.0231  0.2816 -0.4766
  143OSM    O1415688   4.928   1.277   7.957  0.2177 -0.0771  0.2312
  143OSM    O1115689   4.741   1.340   7.801  0.0406  0.0402  0.3099
  143OSM    O1215690   4.754   1.110   7.918 -0.1873 -0.2443 -0.3765
  143OSM    C1S15691   4.830   1.439   7.748 -0.6411  0.1068  0.2606
  143OSM    H1S15692   4.929   1.399   7.717 -1.0580  1.2867 -2.9125
  143OSM    H1T15693   4.843   1.514   7.829 -1.4783 -2.2531  2.7621
  143OSM     NF15694   4.865   1.622   7.580 -0.0982  0.3687 -0.5676
  143OSM    HNF15695   4.846   1.713   7.614  2.4252  1.4572 -1.7953
  143OSM    C2S15696   4.773   1.518   7.629  0.5640 -0.3597  0.3843
  143OSM    H2S15697   4.757   1.445   7.547  1.7936 -1.7133  1.3021
  143OSM    C3S15698   4.628   1.568   7.646  0.3873 -0.2104  0.1905
  143OSM    H3S15699   4.641   1.649   7.722  0.8643 -0.1637  0.0666
  143OSM     O315700   4.544   1.473   7.711  0.0014 -0.5931 -0.0866
  143OSM    HO315701   4.596   1.399   7.743 -0.5283 -0.3814  1.3256
  143OSM    C4S15702   4.560   1.629   7.531 -0.0669 -0.0317 -0.4037
  143OSM    H4S15703   4.496   1.564   7.471  0.0336  0.6517 -1.2786
  143OSM    C5S15704   4.562   1.758   7.497 -0.5448 -0.4275  0.0738
  143OSM    H5S15705   4.624   1.828   7.555 -0.5240 -0.1048 -0.3340
  143OSM    C6S15706   4.485   1.813   7.381  0.3001 -0.3720 -0.2447
  143OSM    H6S15707   4.424   1.899   7.417 -1.9161 -2.3277  0.9704
  143OSM    H6T15708   4.421   1.737   7.333  1.3356 -1.3281 -0.1481
  143OSM    C7S15709   4.584   1.862   7.267 -0.2490  0.1513 -0.5578
  143OSM    H7S15710   4.666   1.927   7.305  0.0206 -0.5618  0.1301
  143OSM    H7T15711   4.524   1.912   7.189 -1.1952 -0.3676 -0.1721
  143OSM    C8S15712   4.653   1.741   7.205  0.9167  0.0216  0.4327
  143OSM    H8S15713   4.582   1.657   7.188  1.1742 -0.1824  0.3416
  143OSM    H8T15714   4.720   1.697   7.282  0.9278 -2.6698 -0.9734
  143OSM    C9S15715   4.721   1.761   7.069 -0.0905  0.3277  0.8104
  143OSM    H9S15716   4.769   1.664   7.047 -0.9428  0.2402 -0.7780
  143OSM    H9T15717   4.793   1.845   7.055  1.6387 -1.2229  0.0202
  143OSM   C10S15718   4.617   1.780   6.951  0.8057 -1.1435 -0.1858
  143OSM   H10S15719   4.552   1.868   6.973  0.0359 -1.6932 -0.2078
  143OSM   H10T15720   4.550   1.691   6.948 -1.1913  0.1129  2.5586
  143OSM   C11S15721   4.683   1.789   6.815 -0.2309  0.1722  0.7606
  143OSM   H11S15722   4.765   1.715   6.811  0.3103  0.8141 -0.3629
  143OSM   H11T15723   4.733   1.888   6.809 -0.0138  0.0091 -0.2985
  143OSM   C12S15724   4.584   1.776   6.697  0.2757 -0.5062  0.7864
  143OSM   H12S15725   4.511   1.859   6.711  2.5849  2.0497 -1.1035
  143OSM   H12T15726   4.524   1.683   6.704  0.4833 -0.5835  1.6082
  143OSM   C13S15727   4.665   1.784   6.560 -0.1698  0.7943  0.3248
  143OSM   H13S15728   4.728   1.693   6.546 -1.9599 -0.4607  0.0707
  143OSM   H13T15729   4.728   1.875   6.554  0.2799  0.4243 -1.5742
  143OSM   C14S15730   4.567   1.789   6.446 -0.1965  0.0475  0.4507
  143OSM   H14S15731   4.501   1.876   6.465 -1.4289 -0.7778  0.0976
  143OSM   H14T15732   4.495   1.708   6.473 -0.1716  0.5750  2.1667
  143OSM   C15S15733   4.641   1.783   6.308 -0.0885 -0.1674 -0.2534
  143OSM   H15S15734   4.712   1.699   6.296  1.2676  0.8767  0.2009
  143OSM   H15T15735   4.702   1.876   6.304  1.1785 -0.9121  0.7107
  143OSM   C16S15736   4.548   1.773   6.195  0.2111 -0.3090 -0.2457
  143OSM   H16S15737   4.456   1.833   6.210  1.0694  0.8742  0.4967
  143OSM   H16T15738   4.509   1.671   6.178 -0.0023 -0.4677  1.0333
  143OSM   C17S15739   4.607   1.826   6.068  0.0112  0.2779  0.2491
  143OSM   H17S15740   4.713   1.793   6.063 -0.7626 -2.2061 -2.4724
  143OSM   H17T15741   4.606   1.937   6.063  1.2359  0.3396  0.9015
  143OSM   C18S15742   4.540   1.766   5.945  0.7079 -0.5060  0.6973
  143OSM   H18S15743   4.610   1.748   5.861 -1.9814 -0.7635 -1.6451
  143OSM   H18T15744   4.456   1.823   5.900 -0.2617 -1.9884  0.5521
  143OSM   H18U15745   4.489   1.668   5.960 -1.2884 -0.0819 -2.3991
  143OSM    C1F15746   4.987   1.589   7.532 -0.0719  0.7374 -0.2542
  143OSM     OF15747   5.013   1.469   7.500 -0.1409  0.0602 -0.9865
  143OSM    C2F15748   5.085   1.694   7.505 -0.5066 -0.6030 -0.4537
  143OSM    H2F15749   5.167   1.683   7.578 -0.7805 -1.7398 -0.3003
  143OSM    H2G15750   5.039   1.795   7.515 -1.8892 -1.2906  0.4544
  143OSM    C3F15751   5.134   1.665   7.357 -0.0208 -0.3838  0.1264
  143OSM    H3F15752   5.180   1.565   7.341 -0.7736 -0.6393 -0.4512
  143OSM    H3G15753   5.220   1.734   7.342  1.4063 -2.0594  0.2752
  143OSM    C4F15754   5.030   1.685   7.250  0.0863 -0.1678  0.7657
  143OSM    H4F15755   4.967   1.773   7.274  2.3863  1.2061  2.1349
  143OSM    H4G15756   4.964   1.596   7.251 -0.1651 -0.3756 -4.5164
  143OSM    C5F15757   5.086   1.689   7.106 -0.2903 -0.8374 -0.4937
  143OSM    H5F15758   5.186   1.738   7.109 -0.6838  0.0103  2.4131
  143OSM    H5G15759   5.019   1.761   7.055  0.8522  2.0762  1.8030
  143OSM    C6F15760   5.107   1.546   7.040  0.1966 -0.3551  0.2235
  143OSM    H6F15761   5.009   1.495   7.040  0.0055  0.0082  1.0594
  143OSM    H6G15762   5.172   1.486   7.107  0.8705  1.7912  1.5903
  143OSM    C7F15763   5.177   1.544   6.901 -0.3820  0.4435  0.5091
  143OSM    H7F15764   5.229   1.449   6.879  0.2022  1.1215 -1.2667
  143OSM    H7G15765   5.257   1.622   6.910  1.9033 -1.9275  2.0365
  143OSM    C8F15766   5.072   1.559   6.800  0.5458 -0.0497  1.3348
  143OSM    H8F15767   4.981   1.510   6.841  1.5738 -0.3675  3.4065
  143OSM    H8G15768   5.098   1.501   6.709  0.4330  2.9375 -0.7396
  143OSM    C9F15769   5.039   1.702   6.751 -0.5046 -0.0505 -0.1390
  143OSM    H9F15770   4.989   1.769   6.823 -1.3917  0.5818 -1.3095
  143OSM   C10F15771   5.051   1.748   6.629  0.2101  0.1317  0.1427
  143OSM   H10F15772   5.026   1.853   6.609 -3.0131 -0.7634 -1.1595
  143OSM   C11F15773   5.102   1.678   6.510  0.2828  0.4030  0.0895
  143OSM   H11F15774   5.083   1.568   6.503  0.0938  0.5513 -2.3320
  143OSM   H11G15775   5.211   1.696   6.503 -0.0962  2.3694 -1.6578
  143OSM   C12F15776   5.036   1.741   6.385 -0.5281  0.3534 -0.4243
  143OSM   H12F15777   5.042   1.852   6.382 -2.2925  0.4620 -2.8537
  143OSM   H12G15778   4.930   1.711   6.372 -0.5813  0.5997 -0.5617
  143OSM   C13F15779   5.090   1.678   6.253 -0.4961 -0.0283 -0.0690
  143OSM   H13F15780   5.066   1.569   6.252  0.9480 -0.4076 -2.5411
  143OSM   H13G15781   5.201   1.689   6.263 -0.7120  1.1857  1.2506
  143OSM   C14F15782   5.031   1.750   6.133 -0.0199 -0.2311  0.6945
  143OSM   H14F15783   5.046   1.859   6.149  1.5685 -0.1805 -0.7360
  143OSM   H14G15784   4.922   1.730   6.129 -0.0142 -0.1667  0.1333
  143OSM   C15F15785   5.095   1.712   5.997  0.9286  0.4014 -0.0616
  143OSM   H15F15786   5.119   1.603   5.999 -2.0501 -0.3381 -0.2882
  143OSM   H15G15787   5.191   1.766   5.983  1.4653 -1.1967 -3.8295
  143OSM   C16F15788   5.014   1.742   5.870  0.8505 -0.1007 -0.4148
  143OSM   H16F15789   4.978   1.847   5.870  0.1936 -0.3136  0.4782
  143OSM   H16G15790   4.914   1.693   5.864  1.1058 -0.5214 -1.4607
  143OSM   C17F15791   5.079   1.731   5.731 -0.4963  0.2553 -0.1797
  143OSM   H17F15792   5.005   1.713   5.650 -0.5427  0.6650 -0.2325
  143OSM   H17G15793   5.137   1.637   5.733 -0.1833  0.4296  2.3368
  143OSM   C18F15794   5.158   1.856   5.682 -0.0956  0.0401  0.5277
  143OSM   H18F15795   5.103   1.952   5.684 -1.5564 -0.5693 -2.9427
  143OSM   H18G15796   5.195   1.840   5.579  2.0437  0.2816  1.2001
  143OSM   H18H15797   5.253   1.864   5.740  0.8347  1.9502 -1.1240
  144OSM      N15798   4.321   6.387   8.718 -0.0532 -0.3787  0.1665
  144OSM    C1515799   4.233   6.503   8.778 -0.6398  0.0751  0.6252
  144OSM   H15A15800   4.150   6.447   8.819 -0.7426 -0.2224  0.0120
  144OSM   H15B15801   4.204   6.557   8.689  0.6239  0.8162  0.6324
  144OSM   H15C15802   4.291   6.561   8.849 -2.0504  0.0372  1.8526
  144OSM    C1415803   4.453   6.453   8.686 -0.6071 -0.7905 -0.1408
  144OSM   H14A15804   4.442   6.510   8.594  0.4870  0.3561  0.4140
  144OSM   H14B15805   4.526   6.374   8.677 -1.3282 -1.3391 -1.6845
  144OSM   H14C15806   4.490   6.519   8.762 -0.4508 -0.0161 -0.8715
  144OSM    C1315807   4.352   6.287   8.826  0.2034  0.0185 -0.3563
  144OSM   H13A15808   4.438   6.229   8.796  0.6114 -0.4913  1.6411
  144OSM   H13B15809   4.265   6.223   8.833 -0.2132  0.5218 -0.8147
  144OSM   H13C15810   4.379   6.326   8.923  2.0871 -1.1082 -0.3841
  144OSM    C1215811   4.262   6.315   8.596  0.0122 -0.5046 -0.2681
  144OSM   H12A15812   4.172   6.264   8.627  0.8181 -2.1366 -0.4901
  144OSM   H12B15813   4.328   6.240   8.556 -0.5315 -1.6314  0.8717
  144OSM    C1115814   4.216   6.396   8.474 -0.3259  0.0645  0.1924
  144OSM   H11A15815   4.135   6.467   8.502 -2.6324 -1.0652 -3.0014
  144OSM   H11B15816   4.152   6.337   8.405  0.2070 -1.6983  1.1547
  144OSM      P15817   4.426   6.392   8.314  0.1375  0.0780  0.5935
  144OSM    O1315818   4.538   6.482   8.275 -0.8399 -0.7296  0.0490
  144OSM    O1415819   4.462   6.259   8.364  0.2480 -0.2168 -0.0404
  144OSM    O1115820   4.343   6.384   8.186  0.1490 -1.1478  0.1115
  144OSM    O1215821   4.321   6.463   8.408 -0.3936 -0.3143  0.2351
  144OSM    C1S15822   4.260   6.488   8.131  0.1554 -0.2011 -0.3149
  144OSM    H1S15823   4.316   6.583   8.133 -2.0996  1.2046 -0.3491
  144OSM    H1T15824   4.165   6.503   8.187  0.4784  1.9071 -0.2756
  144OSM     NF15825   4.132   6.565   7.932 -0.1673 -0.5968 -0.6555
  144OSM    HNF15826   4.044   6.534   7.897  0.4329 -0.9017 -1.9689
  144OSM    C2S15827   4.222   6.465   7.980  0.0319  0.1663  0.7220
  144OSM    H2S15828   4.319   6.468   7.926  0.2312 -0.2900  1.0417
  144OSM    C3S15829   4.173   6.326   7.961  0.0149  0.0288  0.2276
  144OSM    H3S15830   4.073   6.329   8.010 -1.2278 -1.6270 -2.0307
  144OSM     O315831   4.240   6.217   8.021 -0.1147  0.3979 -0.2893
  144OSM    HO315832   4.302   6.252   8.087  0.6994 -3.1117  1.0016
  144OSM    C4S15833   4.144   6.296   7.810 -0.1511  0.1610 -0.0610
  144OSM    H4S15834   4.038   6.307   7.785 -0.0369  2.0209  0.1670
  144OSM    C5S15835   4.232   6.243   7.714 -0.3624 -0.1035 -0.0547
  144OSM    H5S15836   4.336   6.216   7.738  0.1318  0.2988 -1.6354
  144OSM    C6S15837   4.181   6.196   7.581 -0.7770 -0.0685  0.2186
  144OSM    H6S15838   4.182   6.086   7.564 -1.6075  0.0300 -0.5289
  144OSM    H6T15839   4.247   6.246   7.507 -1.1155  2.1466  1.3465
  144OSM    C7S15840   4.040   6.240   7.530  0.1096  1.0350  0.4792
  144OSM    H7S15841   3.960   6.189   7.588 -0.5456  1.8475  0.3065
  144OSM    H7T15842   4.032   6.208   7.424 -1.4852  1.0697  0.5610
  144OSM    C8S15843   4.013   6.391   7.527 -0.6911  0.7077 -0.3877
  144OSM    H8S15844   4.006   6.432   7.629  0.6408 -1.3490  0.5984
  144OSM    H8T15845   3.909   6.398   7.487 -0.6360  2.3747 -0.2780
  144OSM    C9S15846   4.108   6.469   7.433  0.6569  0.1978 -0.4711
  144OSM    H9S15847   4.215   6.457   7.460  0.6683  1.6318  0.2466
  144OSM    H9T15848   4.083   6.576   7.452 -1.9636 -0.2903 -0.7822
  144OSM   C10S15849   4.088   6.433   7.286 -0.0870  0.5960  0.7982
  144OSM   H10S15850   3.979   6.439   7.267 -0.2270 -2.0540  0.3734
  144OSM   H10T15851   4.118   6.326   7.276  1.4953  1.2252 -2.4643
  144OSM   C11S15852   4.176   6.512   7.188  0.6029  0.5257  0.0848
  144OSM   H11S15853   4.283   6.496   7.214  1.2372 -1.9816 -3.3261
  144OSM   H11T15854   4.148   6.619   7.188  3.5099  1.3784  1.5614
  144OSM   C12S15855   4.144   6.464   7.040  0.1534 -0.0604  0.0207
  144OSM   H12S15856   4.165   6.549   6.972 -1.4694 -1.0330 -1.7650
  144OSM   H12T15857   4.034   6.461   7.026 -0.0060  1.1210  0.7843
  144OSM   C13S15858   4.202   6.335   6.999  0.8773  0.0608 -0.2201
  144OSM   H13S15859   4.169   6.275   7.087 -1.7336  0.8052 -0.6031
  144OSM   H13T15860   4.312   6.344   6.985  0.6914  0.2869 -1.7054
  144OSM   C14S15861   4.143   6.265   6.874 -0.6235  0.0449  0.2520
  144OSM   H14S15862   4.037   6.236   6.891 -0.7445  1.0537  1.4112
  144OSM   H14T15863   4.200   6.169   6.872 -0.3872  0.1772  0.4616
  144OSM   C15S15864   4.172   6.329   6.739 -0.2326  0.4770  0.4272
  144OSM   H15S15865   4.282   6.337   6.729 -0.0641 -1.4375  0.4237
  144OSM   H15T15866   4.132   6.432   6.749 -1.9852 -0.1357  0.0460
  144OSM   C16S15867   4.108   6.265   6.613  0.5381 -1.0981  1.2627
  144OSM   H16S15868   3.997   6.271   6.623  0.7350  2.0101  2.5482
  144OSM   H16T15869   4.142   6.159   6.610 -0.5692 -1.4594  0.7208
  144OSM   C17S15870   4.144   6.338   6.478  0.1806  0.7784 -0.6501
  144OSM   H17S15871   4.252   6.326   6.458  0.2785  0.2753  0.1495
  144OSM   H17T15872   4.109   6.443   6.487  2.7184  1.8124 -1.9183
  144OSM   C18S15873   4.079   6.273   6.357  0.0335 -0.4722  0.1609
  144OSM   H18S15874   4.123   6.172   6.339 -1.3363 -0.9895 -0.4983
  144OSM   H18T15875   4.119   6.329   6.270  0.5327  2.4362  2.1123
  144OSM   H18U15876   3.968   6.275   6.355  0.0384  1.2431  0.4415
  144OSM    C1F15877   4.179   6.687   7.902  0.2492 -0.4969  0.3155
  144OSM     OF15878   4.297   6.703   7.903 -1.1436 -0.0723 -0.2869
  144OSM    C2F15879   4.082   6.794   7.847 -0.3123  0.0105  0.2137
  144OSM    H2F15880   4.047   6.868   7.923 -1.8057 -0.7905  0.3494
  144OSM    H2G15881   3.988   6.744   7.815 -1.3029  2.8641 -1.7080
  144OSM    C3F15882   4.137   6.886   7.742 -0.5282  0.3505 -0.1677
  144OSM    H3F15883   4.222   6.945   7.784 -1.0627  1.5792 -0.7644
  144OSM    H3G15884   4.064   6.963   7.711  0.5321  0.4581 -2.6244
  144OSM    C4F15885   4.170   6.813   7.608 -0.4898  0.6204  0.6153
  144OSM    H4F15886   4.081   6.762   7.566  0.4461  1.2351 -2.3435
  144OSM    H4G15887   4.256   6.746   7.633 -0.3308 -0.1378 -1.7006
  144OSM    C5F15888   4.228   6.926   7.519 -0.1183  0.5845  0.1495
  144OSM    H5F15889   4.304   6.987   7.573  2.9646 -1.1299 -1.9468
  144OSM    H5G15890   4.156   7.000   7.479  1.2238  1.4916 -0.6673
  144OSM    C6F15891   4.306   6.876   7.401  0.5408 -0.3380  0.1297
  144OSM    H6F15892   4.231   6.839   7.328  0.2384  3.2663 -1.6348
  144OSM    H6G15893   4.368   6.789   7.428  1.8000  0.0962 -1.2084
  144OSM    C7F15894   4.390   6.988   7.332 -0.2603 -0.2620  0.0466
  144OSM    H7F15895   4.472   7.036   7.390 -0.2668  0.4937 -0.5432
  144OSM    H7G15896   4.325   7.073   7.300  0.4602  0.9407  1.6227
  144OSM    C8F15897   4.450   6.945   7.199 -0.1066 -0.0492  0.1226
  144OSM    H8F15898   4.494   7.031   7.143 -1.6953  0.7231 -0.0026
  144OSM    H8G15899   4.376   6.900   7.130 -1.2070 -0.4625  1.5295
  144OSM    C9F15900   4.562   6.844   7.218 -0.0094 -1.0495 -0.3891
  144OSM    H9F15901   4.638   6.878   7.290 -1.2676 -0.8892  0.9092
  144OSM   C10F15902   4.575   6.728   7.157 -0.2191 -0.0561  0.4034
  144OSM   H10F15903   4.666   6.666   7.167 -1.4696 -1.9098  0.8067
  144OSM   C11F15904   4.473   6.668   7.056  0.3479 -0.3460 -0.3262
  144OSM   H11F15905   4.369   6.678   7.095 -0.2261  1.1307 -2.0893
  144OSM   H11G15906   4.496   6.561   7.038 -2.4195 -0.7670 -1.9135
  144OSM   C12F15907   4.483   6.743   6.914 -0.4096 -0.0047 -0.6547
  144OSM   H12F15908   4.582   6.726   6.866  0.1953 -0.0396  0.5897
  144OSM   H12G15909   4.466   6.852   6.923  0.3971 -0.0516  3.2498
  144OSM   C13F15910   4.384   6.685   6.811  0.5816  0.5321 -0.0891
  144OSM   H13F15911   4.283   6.731   6.813  0.4646  0.2829 -0.2542
  144OSM   H13G15912   4.366   6.576   6.826 -0.2185  0.9839  2.8303
  144OSM   C14F15913   4.433   6.701   6.668  0.3043 -0.2441 -0.6247
  144OSM   H14F15914   4.518   6.638   6.634  0.8997 -0.8219  1.7582
  144OSM   H14G15915   4.478   6.802   6.654  0.8651 -0.0731  1.9041
  144OSM   C15F15916   4.336   6.666   6.561 -0.7758 -0.1083 -0.0347
  144OSM   H15F15917   4.244   6.716   6.599 -0.6215 -1.0777  1.7753
  144OSM   H15G15918   4.312   6.557   6.561  0.7545 -0.4652 -0.4980
  144OSM   C16F15919   4.362   6.713   6.421 -0.1754  0.2236  0.4396
  144OSM   H16F15920   4.457   6.667   6.386 -0.8736 -1.9886  1.3202
  144OSM   H16G15921   4.372   6.823   6.430  1.5685  0.0262  1.3881
  144OSM   C17F15922   4.260   6.674   6.319  0.0802 -0.6592 -0.5983
  144OSM   H17F15923   4.158   6.707   6.350  0.5349  0.5517 -0.3841
  144OSM   H17G15924   4.241   6.564   6.322 -2.4232 -0.3304 -1.2611
  144OSM   C18F15925   4.290   6.704   6.173  0.6910  0.0600 -0.4042
  144OSM   H18F15926   4.331   6.807   6.171  2.0169 -0.3577  1.9225
  144OSM   H18G15927   4.197   6.689   6.114 -0.3374 -2.9968  1.7229
  144OSM   H18H15928   4.370   6.632   6.146  1.5239 -0.5177  3.0819
  145OSM      N15929   0.047   5.401   8.034 -0.3600  0.1765  0.2668
  145OSM    C1515930   0.162   5.313   8.045 -0.5592  0.4091  0.0095
  145OSM   H15A15931   0.125   5.213   8.067  0.8068 -0.1246 -0.0658
  145OSM   H15B15932   0.234   5.339   8.121  0.8115 -1.1250 -0.7160
  145OSM   H15C15933   0.215   5.306   7.952 -0.9393 -0.0116 -0.1863
  145OSM    C1415934  -0.024   5.401   8.163 -0.6212  0.1483  0.2655
  145OSM   H14A15935  -0.060   5.302   8.188 -1.2918  0.4178  0.3889
  145OSM   H14B15936  -0.110   5.467   8.169 -0.4051  0.3000  3.6336
  145OSM   H14C15937   0.043   5.432   8.241 -1.2051  3.0930 -0.2786
  145OSM    C1315938   0.094   5.535   7.992 -0.3619 -0.7832 -0.6519
  145OSM   H13A15939   0.130   5.597   8.073 -0.4638  0.0689 -1.2485
  145OSM   H13B15940   0.016   5.591   7.943 -2.2954 -2.0742  0.8241
  145OSM   H13C15941   0.165   5.528   7.910 -1.8935 -0.1508 -2.0891
  145OSM    C1215942  -0.044   5.341   7.934 -0.8996 -0.2083 -0.3314
  145OSM   H12A15943  -0.117   5.420   7.928  0.1800  0.7333 -2.5729
  145OSM   H12B15944  -0.098   5.256   7.973 -0.9713 -0.0643 -0.1189
  145OSM    C1115945   0.009   5.310   7.795 -0.2230 -0.3564  0.2109
  145OSM   H11A15946  -0.073   5.258   7.742 -0.1867  3.4517 -4.1669
  145OSM   H11B15947   0.091   5.237   7.815  0.7156  0.5806 -0.0971
  145OSM      P15948   0.188   5.460   7.666 -0.3745  0.2064  0.1342
  145OSM    O1315949   0.229   5.582   7.741 -0.6886  0.3353 -0.5424
  145OSM    O1415950   0.268   5.340   7.663 -0.4111 -0.3201  0.8571
  145OSM    O1115951   0.151   5.516   7.518 -0.9386 -0.1368 -0.2463
  145OSM    O1215952   0.043   5.424   7.721  0.1993 -0.3522  0.0453
  145OSM    C1S15953   0.101   5.421   7.426  0.0564 -0.1351  0.5140
  145OSM    H1S15954  -0.009   5.431   7.434 -0.1126 -0.3872 -1.2057
  145OSM    H1T15955   0.124   5.316   7.456  1.0069 -0.4075 -1.0460
  145OSM     NF15956   0.072   5.382   7.184 -0.2995  0.4437  0.4283
  145OSM    HNF15957   0.104   5.292   7.155  2.1599  1.0449  1.0359
  145OSM    C2S15958   0.153   5.449   7.284  0.1951 -0.2642  0.2141
  145OSM    H2S15959   0.165   5.558   7.264  1.6675 -0.7025 -1.5809
  145OSM    C3S15960   0.298   5.405   7.288 -0.8848  0.5308 -0.6610
  145OSM    H3S15961   0.300   5.296   7.310 -1.5099  0.8266  1.0432
  145OSM     O315962   0.371   5.464   7.400  0.4137 -0.1200 -0.0263
  145OSM    HO315963   0.297   5.480   7.460  0.5345 -2.2816  0.7768
  145OSM    C4S15964   0.362   5.432   7.152 -0.5210 -0.5213  0.5538
  145OSM    H4S15965   0.353   5.530   7.103 -0.7664 -1.0274 -0.4479
  145OSM    C5S15966   0.400   5.329   7.081 -0.4954 -0.2670  0.1896
  145OSM    H5S15967   0.380   5.231   7.127  1.7452 -1.0691 -0.4212
  145OSM    C6S15968   0.460   5.318   6.944 -0.3630 -0.2818 -0.9287
  145OSM    H6S15969   0.565   5.286   6.959 -0.2691  0.7649  0.9264
  145OSM    H6T15970   0.450   5.418   6.899  0.6846  1.1376  1.7340
  145OSM    C7S15971   0.400   5.214   6.850 -0.8605  0.1034 -0.4422
  145OSM    H7S15972   0.292   5.239   6.841 -0.8105  0.1091 -1.1053
  145OSM    H7T15973   0.411   5.111   6.890  0.8754  1.0278  1.6500
  145OSM    C8S15974   0.456   5.197   6.712 -0.6728 -0.8329 -0.1668
  145OSM    H8S15975   0.561   5.162   6.714 -0.2069  0.5293  0.6756
  145OSM    H8T15976   0.471   5.300   6.673 -0.6845 -0.2674  1.2480
  145OSM    C9S15977   0.374   5.124   6.609 -0.3731  0.3309 -0.4529
  145OSM    H9S15978   0.268   5.158   6.611 -0.6052 -0.4097  0.1012
  145OSM    H9T15979   0.379   5.019   6.644 -0.2447 -0.2881 -2.2389
  145OSM   C10S15980   0.426   5.123   6.466  0.1009  0.4838  0.0787
  145OSM   H10S15981   0.536   5.108   6.476  0.4086  3.8420  4.2881
  145OSM   H10T15982   0.413   5.229   6.436 -1.7128  0.4405  0.5794
  145OSM   C11S15983   0.348   5.021   6.373 -0.0111  0.2775  0.2204
  145OSM   H11S15984   0.238   5.039   6.371 -0.1929 -0.7757 -2.0839
  145OSM   H11T15985   0.367   4.919   6.413  0.1826  0.0283 -0.4994
  145OSM   C12S15986   0.391   5.035   6.232 -0.0319  0.4009 -0.2100
  145OSM   H12S15987   0.499   5.031   6.210  0.0342 -2.2133  0.3463
  145OSM   H12T15988   0.354   5.131   6.190 -4.3174 -0.8688  0.1868
  145OSM   C13S15989   0.331   4.917   6.158 -0.3916 -0.2581 -0.1362
  145OSM   H13S15990   0.223   4.904   6.180 -0.5146  0.6488 -0.1717
  145OSM   H13T15991   0.387   4.833   6.206  1.6718  2.4957  2.6488
  145OSM   C14S15992   0.365   4.918   6.009 -0.0980  0.8200 -0.7020
  145OSM   H14S15993   0.473   4.942   6.002  0.3228 -0.8624 -0.3396
  145OSM   H14T15994   0.299   4.984   5.948 -0.4859  1.1891  0.1017
  145OSM   C15S15995   0.347   4.774   5.959 -0.1606  0.3745  0.1151
  145OSM   H15S15996   0.308   4.779   5.855  1.1587  0.5188 -0.3974
  145OSM   H15T15997   0.268   4.720   6.014 -0.1093  0.8095  0.6272
  145OSM   C16S15998   0.478   4.683   5.971 -0.0870  0.3280  0.1501
  145OSM   H16S15999   0.515   4.703   6.074  0.5315  1.9174 -0.3479
  145OSM   H16T16000   0.543   4.725   5.891 -0.0875  0.0733  0.0138
  145OSM   C17S16001   0.444   4.537   5.938 -0.6823  0.2724 -0.4763
  145OSM   H17S16002   0.334   4.521   5.936 -1.1925  3.2432  0.0542
  145OSM   H17T16003   0.479   4.469   6.019 -1.7589 -0.3776 -0.5243
  145OSM   C18S16004   0.502   4.493   5.804 -0.1826 -0.1870 -0.8324
  145OSM   H18S16005   0.487   4.385   5.781  0.0407 -0.2340 -0.7636
  145OSM   H18T16006   0.611   4.514   5.813  0.3559 -2.8513 -0.1136
  145OSM   H18U16007   0.464   4.545   5.714 -0.9708 -1.0099 -0.9809
  145OSM    C1F16008  -0.042   5.430   7.137 -0.4350 -0.2532 -0.2109
  145OSM     OF16009  -0.104   5.518   7.195  0.0774  0.2032  0.7115
  145OSM    C2F16010  -0.105   5.361   7.020  0.5239  0.0698 -0.2355
  145OSM    H2F16011  -0.154   5.269   7.060 -0.1252  0.3057 -0.4846
  145OSM    H2G16012  -0.023   5.347   6.947  1.1808  0.0911  0.4803
  145OSM    C3F16013  -0.215   5.454   6.967 -0.1548  0.4634  0.2601
  145OSM    H3F16014  -0.168   5.543   6.921 -0.0417  0.6937  0.8142
  145OSM    H3G16015  -0.284   5.480   7.050 -0.5787 -1.8679  0.7297
  145OSM    C4F16016  -0.301   5.380   6.858  0.5100  0.4299 -0.2255
  145OSM    H4F16017  -0.408   5.410   6.870  0.5352  0.8293 -0.9529
  145OSM    H4G16018  -0.291   5.270   6.871  2.0860  0.5592 -0.2423
  145OSM    C5F16019  -0.256   5.409   6.718  0.3809 -0.2387  0.7356
  145OSM    H5F16020  -0.158   5.359   6.701  0.7841  0.7281  0.1378
  145OSM    H5G16021  -0.229   5.516   6.699 -1.3269  0.0034 -0.5203
  145OSM    C6F16022  -0.359   5.363   6.616  0.1712 -0.9055  0.2670
  145OSM    H6F16023  -0.453   5.423   6.624 -0.0983 -1.3545  0.4762
  145OSM    H6G16024  -0.389   5.257   6.630 -0.2792 -1.1423 -2.0058
  145OSM    C7F16025  -0.304   5.388   6.474 -0.1429  0.0424  0.8142
  145OSM    H7F16026  -0.218   5.328   6.438 -0.7231 -1.1114  1.3190
  145OSM    H7G16027  -0.276   5.496   6.471  0.8372 -0.1425  2.2281
  145OSM    C8F16028  -0.419   5.373   6.366  0.5438 -0.1280 -0.0033
  145OSM    H8F16029  -0.460   5.272   6.388 -0.3499  0.1465 -0.3424
  145OSM    H8G16030  -0.365   5.369   6.269 -0.7362 -1.9486 -0.7242
  145OSM    C9F16031  -0.527   5.479   6.361  0.4788  0.7831 -0.4865
  145OSM    H9F16032  -0.597   5.483   6.446  1.9729 -1.8031  1.0160
  145OSM   C10F16033  -0.556   5.550   6.256 -0.3300 -0.6598 -0.2087
  145OSM   H10F16034  -0.634   5.627   6.272  1.2587  0.5010  2.6721
  145OSM   C11F16035  -0.477   5.559   6.126  0.3160 -0.0005  0.8788
  145OSM   H11F16036  -0.374   5.521   6.135 -0.3079 -2.5682 -1.4764
  145OSM   H11G16037  -0.451   5.661   6.090 -0.3514 -0.1635 -0.1328
  145OSM   C12F16038  -0.526   5.478   6.008 -0.5686  0.3094 -0.2851
  145OSM   H12F16039  -0.621   5.517   5.966 -0.6470 -0.6569 -1.0165
  145OSM   H12G16040  -0.550   5.377   6.048 -1.6778 -0.0760 -1.8253
  145OSM   C13F16041  -0.429   5.488   5.893  0.0432 -0.0823 -0.1700
  145OSM   H13F16042  -0.326   5.472   5.932 -0.1659 -1.3866 -0.1296
  145OSM   H13G16043  -0.439   5.588   5.844 -0.7643 -0.1739 -0.1926
  145OSM   C14F16044  -0.442   5.362   5.810  0.4116  0.2193 -0.6339
  145OSM   H14F16045  -0.405   5.276   5.870  0.2593  0.1123 -0.6943
  145OSM   H14G16046  -0.372   5.381   5.726 -0.3297 -1.5430 -1.6885
  145OSM   C15F16047  -0.586   5.349   5.762  0.1721 -0.8008  0.0291
  145OSM   H15F16048  -0.624   5.449   5.734  2.6246 -0.4171 -2.4293
  145OSM   H15G16049  -0.650   5.300   5.838  1.5983 -0.4752  1.5108
  145OSM   C16F16050  -0.608   5.272   5.629  0.0925 -0.1763 -0.1728
  145OSM   H16F16051  -0.718   5.282   5.617 -0.4343 -0.0764  3.5182
  145OSM   H16G16052  -0.560   5.172   5.632  0.1024 -0.2027 -0.9278
  145OSM   C17F16053  -0.548   5.340   5.496  0.6916 -0.2114 -0.4398
  145OSM   H17F16054  -0.437   5.329   5.498  0.8189  0.9345 -0.5241
  145OSM   H17G16055  -0.568   5.448   5.486  1.5607 -0.0558 -0.5724
  145OSM   C18F16056  -0.593   5.275   5.364  0.2638  0.1202  0.4773
  145OSM   H18F16057  -0.569   5.167   5.369  0.4483  0.0807 -1.0434
  145OSM   H18G16058  -0.533   5.324   5.285  0.3171 -1.2019 -0.3191
  145OSM   H18H16059  -0.699   5.300   5.341  0.3633  0.4279  0.3534
  146OSM      N16060   0.324   0.070   7.354  0.3494 -0.3333  0.0885
  146OSM    C1516061   0.255  -0.017   7.447 -0.3896  0.6511  0.1293
  146OSM   H15A16062   0.279  -0.120   7.424 -0.8649  0.4333  0.6016
  146OSM   H15B16063   0.148  -0.015   7.451 -0.3621  1.0580  0.7894
  146OSM   H15C16064   0.290  -0.001   7.548 -0.4285  0.2138  0.2124
  146OSM    C1416065   0.260   0.205   7.366 -0.2905 -0.1682  0.9186
  146OSM   H14A16066   0.325   0.284   7.330 -0.8601 -0.2067 -0.2547
  146OSM   H14B16067   0.246   0.237   7.468  0.2332 -0.7813  1.1902
  146OSM   H14C16068   0.171   0.214   7.306  0.9447  0.9185 -0.8516
  146OSM    C1316069   0.463   0.077   7.393 -0.3542 -0.7083  0.1338
  146OSM   H13A16070   0.530   0.003   7.352  1.9969  0.5273  1.5060
  146OSM   H13B16071   0.483   0.075   7.500  2.2005  0.4431 -0.2625
  146OSM   H13C16072   0.510   0.168   7.361  0.6134 -1.6006 -1.0837
  146OSM    C1216073   0.312   0.041   7.207  0.7076  0.4384 -0.2428
  146OSM   H12A16074   0.393   0.088   7.154  0.2668  0.4953 -0.8756
  146OSM   H12B16075   0.224   0.084   7.161 -0.8660 -0.7274  1.5258
  146OSM    C1116076   0.310  -0.106   7.170  0.5369 -0.2743  0.2698
  146OSM   H11A16077   0.289  -0.111   7.061  1.6014 -0.9927  0.0779
  146OSM   H11B16078   0.218  -0.151   7.212 -0.0339  0.9879  0.4017
  146OSM      P16079   0.439  -0.309   7.254 -0.3567 -0.1408  0.2406
  146OSM    O1316080   0.571  -0.372   7.255  0.1739  0.4175  0.2342
  146OSM    O1416081   0.370  -0.302   7.386  0.1721 -0.1119  0.0699
  146OSM    O1116082   0.350  -0.389   7.148  0.7044  0.1346 -0.2438
  146OSM    O1216083   0.436  -0.165   7.194 -0.2325 -0.4041  0.2337
  146OSM    C1S16084   0.346  -0.366   7.009 -0.3743  0.2278  0.0987
  146OSM    H1S16085   0.435  -0.304   6.985  0.4560 -1.0978 -0.4152
  146OSM    H1T16086   0.254  -0.314   6.976  0.6721  1.7144 -0.6008
  146OSM     NF16087   0.318  -0.453   6.788  0.1957  0.4543  0.3959
  146OSM    HNF16088   0.219  -0.455   6.773  0.1596  0.3586  0.6501
  146OSM    C2S16089   0.346  -0.496   6.923  0.8185  0.1161  0.3093
  146OSM    H2S16090   0.449  -0.537   6.931  0.6401 -0.4692 -0.3059
  146OSM    C3S16091   0.241  -0.597   6.978 -0.4261  0.2709  0.7953
  146OSM    H3S16092   0.146  -0.539   6.971  0.4527  1.8576  1.4019
  146OSM     O316093   0.246  -0.638   7.115 -0.0630 -0.0972 -0.2636
  146OSM    HO316094   0.319  -0.579   7.134 -1.5703  1.3205  1.3587
  146OSM    C4S16095   0.252  -0.722   6.891 -0.2260  0.0035 -0.3538
  146OSM    H4S16096   0.354  -0.760   6.875  0.1878 -0.2987  2.4534
  146OSM    C5S16097   0.141  -0.785   6.838  0.3850  0.4004  0.1134
  146OSM    H5S16098   0.038  -0.753   6.862 -0.8282 -1.8601 -1.6599
  146OSM    C6S16099   0.140  -0.908   6.752 -0.4828 -0.6334 -0.6685
  146OSM    H6S16100   0.065  -0.982   6.786 -0.4107  0.4544  2.1531
  146OSM    H6T16101   0.238  -0.957   6.768 -0.3747 -0.5199 -0.9827
  146OSM    C7S16102   0.133  -0.874   6.603  0.2812  0.4734 -0.9058
  146OSM    H7S16103   0.206  -0.798   6.569 -0.3145  0.2390 -2.8724
  146OSM    H7T16104   0.035  -0.826   6.581  0.8886  2.7168  0.9551
  146OSM    C8S16105   0.153  -0.992   6.500  0.1690  0.5511  0.1859
  146OSM    H8S16106   0.097  -1.083   6.528  0.9316 -0.5791 -1.7740
  146OSM    H8T16107   0.262  -1.009   6.509 -0.3060 -2.8661  0.8349
  146OSM    C9S16108   0.105  -0.945   6.360 -0.1286  0.2450 -0.6221
  146OSM    H9S16109   0.185  -0.874   6.327 -1.1943  1.8431  0.1034
  146OSM    H9T16110   0.015  -0.881   6.368 -0.9524 -1.0136  0.4668
  146OSM   C10S16111   0.092  -1.056   6.261  0.6409  0.0880  0.3566
  146OSM   H10S16112   0.001  -1.117   6.279 -0.4527  1.6116  0.1481
  146OSM   H10T16113   0.173  -1.131   6.279 -1.8143 -2.8124  0.0906
  146OSM   C11S16114   0.099  -1.010   6.113  0.6583  0.6607  0.2368
  146OSM   H11S16115   0.180  -0.936   6.095  0.6620  0.5618 -0.1433
  146OSM   H11T16116   0.007  -0.955   6.085 -0.1392 -0.0776  1.2920
  146OSM   C12S16117   0.108  -1.127   6.018 -0.0165  0.9262  0.2531
  146OSM   H12S16118   0.022  -1.195   6.033 -0.0940  1.0269  0.2691
  146OSM   H12T16119   0.196  -1.188   6.049 -1.8234 -1.9561  0.0484
  146OSM   C13S16120   0.131  -1.090   5.874  0.2144 -0.1336 -0.0754
  146OSM   H13S16121   0.231  -1.043   5.860  0.9580 -1.4184  0.7356
  146OSM   H13T16122   0.058  -1.012   5.844  1.3889  0.9790 -0.1555
  146OSM   C14S16123   0.118  -1.200   5.774  0.0790 -0.0412 -0.0799
  146OSM   H14S16124   0.183  -1.289   5.786  1.0490  0.8750  1.9507
  146OSM   H14T16125   0.142  -1.164   5.672 -0.8151 -2.2611 -1.1267
  146OSM   C15S16126  -0.022  -1.258   5.767  0.1652 -1.0256 -0.1855
  146OSM   H15S16127  -0.088  -1.169   5.753  0.8856 -0.0298  2.1486
  146OSM   H15T16128  -0.052  -1.313   5.858 -1.9875  0.7076  0.2253
  146OSM   C16S16129  -0.037  -1.349   5.646 -0.2880 -0.3145  0.2291
  146OSM   H16S16130   0.042  -1.427   5.644 -0.1879 -0.1989 -0.5913
  146OSM   H16T16131   0.005  -1.287   5.565  3.1068 -1.9972  0.5217
  146OSM   C17S16132  -0.168  -1.427   5.635  0.2728 -0.0717 -0.4684
  146OSM   H17S16133  -0.171  -1.501   5.717  1.1653  0.4443  0.0544
  146OSM   H17T16134  -0.155  -1.491   5.545  1.6690 -1.0844  0.4186
  146OSM   C18S16135  -0.295  -1.334   5.643  0.1126  0.1632  0.3330
  146OSM   H18S16136  -0.287  -1.231   5.603  0.0657 -0.5182 -1.5762
  146OSM   H18T16137  -0.346  -1.338   5.741  0.3830 -0.7029  0.4548
  146OSM   H18U16138  -0.372  -1.386   5.582  1.5063  1.4715 -2.7715
  146OSM    C1F16139   0.399  -0.384   6.713 -0.6395  0.4082  0.3252
  146OSM     OF16140   0.512  -0.367   6.752  0.1391 -0.5473  0.0167
  146OSM    C2F16141   0.346  -0.333   6.578 -0.5778  0.2539 -0.1282
  146OSM    H2F16142   0.381  -0.228   6.574  1.5771 -0.4386 -1.0008
  146OSM    H2G16143   0.236  -0.347   6.575 -0.5386 -0.2752  0.6593
  146OSM    C3F16144   0.419  -0.397   6.449  0.1867  0.0941 -0.4432
  146OSM    H3F16145   0.423  -0.508   6.460 -0.4627  0.0319 -0.7699
  146OSM    H3G16146   0.524  -0.363   6.445  0.3020  0.1672  1.7531
  146OSM    C4F16147   0.349  -0.373   6.319 -0.1993  0.6275 -0.1298
  146OSM    H4F16148   0.364  -0.267   6.289  0.1400  0.7749  0.5547
  146OSM    H4G16149   0.239  -0.383   6.334  0.0635  0.3709  1.9022
  146OSM    C5F16150   0.392  -0.464   6.211  0.5497  0.0344  0.6189
  146OSM    H5F16151   0.385  -0.563   6.262  0.5687 -0.2720  0.0331
  146OSM    H5G16152   0.501  -0.446   6.198  0.5882 -0.1617  0.6680
  146OSM    C6F16153   0.309  -0.447   6.078 -0.1705  0.2161 -0.1798
  146OSM    H6F16154   0.283  -0.343   6.050  2.8792  0.5932 -2.1271
  146OSM    H6G16155   0.212  -0.500   6.074 -0.2065  0.2254  0.4348
  146OSM    C7F16156   0.394  -0.497   5.956 -0.1946 -0.5215  0.2950
  146OSM    H7F16157   0.448  -0.586   5.994  0.3350 -0.9139 -1.3102
  146OSM    H7G16158   0.485  -0.435   5.941  1.4940 -3.0496 -0.4606
  146OSM    C8F16159   0.302  -0.514   5.833 -0.0393  0.3993  0.9307
  146OSM    H8F16160   0.254  -0.421   5.797  0.2719 -0.0283 -0.7092
  146OSM    H8G16161   0.214  -0.573   5.865  0.7782 -3.0092 -2.3047
  146OSM    C9F16162   0.388  -0.589   5.731  0.5208 -0.1513 -0.1052
  146OSM    H9F16163   0.470  -0.532   5.685 -1.1260  1.5156 -1.1228
  146OSM   C10F16164   0.366  -0.709   5.681  0.2473 -0.3353 -0.4177
  146OSM   H10F16165   0.429  -0.753   5.602  0.1683 -0.8684 -0.1877
  146OSM   C11F16166   0.251  -0.799   5.717 -0.4244  0.2543 -0.4027
  146OSM   H11F16167   0.233  -0.781   5.825 -1.6345  0.5743 -0.6491
  146OSM   H11G16168   0.286  -0.904   5.708  0.9026  0.3268  2.5850
  146OSM   C12F16169   0.126  -0.757   5.630  0.8006  0.6473  0.3101
  146OSM   H12F16170   0.095  -0.651   5.628 -1.0616  0.2349 -3.9494
  146OSM   H12G16171   0.046  -0.825   5.666 -0.1945  0.5992 -1.8509
  146OSM   C13F16172   0.136  -0.803   5.484  0.1925 -0.1438  0.5844
  146OSM   H13F16173   0.209  -0.887   5.473 -1.3237 -1.4045 -0.2832
  146OSM   H13G16174   0.175  -0.718   5.424  1.0902  0.0250  1.3821
  146OSM   C14F16175   0.020  -0.849   5.405 -1.0048 -0.6866  0.2570
  146OSM   H14F16176   0.054  -0.867   5.300  1.5982  0.8293  0.7459
  146OSM   H14G16177  -0.026  -0.940   5.448 -0.6564 -1.2261 -0.4744
  146OSM   C15F16178  -0.077  -0.736   5.374 -1.0646  0.4967  0.1757
  146OSM   H15F16179  -0.034  -0.669   5.297 -2.5330  0.1517 -0.9846
  146OSM   H15G16180  -0.102  -0.679   5.466  0.2819  0.9177  0.3070
  146OSM   C16F16181  -0.209  -0.786   5.309 -0.3631 -0.4344  0.0857
  146OSM   H16F16182  -0.188  -0.848   5.219  1.5631 -1.7269  1.3494
  146OSM   H16G16183  -0.262  -0.692   5.283 -2.1624 -1.7150 -1.1549
  146OSM   C17F16184  -0.298  -0.874   5.403  0.0059  0.1841  0.3339
  146OSM   H17F16185  -0.243  -0.968   5.426 -0.5052 -0.6140 -1.5034
  146OSM   H17G16186  -0.382  -0.902   5.335 -0.7300  2.3879  0.2715
  146OSM   C18F16187  -0.343  -0.794   5.528  0.5070  0.5835  0.7921
  146OSM   H18F16188  -0.394  -0.863   5.598  0.2949 -1.2091 -1.0121
  146OSM   H18G16189  -0.424  -0.718   5.524  0.2922  0.5290  2.8616
  146OSM   H18H16190  -0.250  -0.752   5.570 -0.2324  0.9281  2.1431
  147OSM      N16191   0.120   0.223   2.547  0.2473  0.1090 -0.2522
  147OSM    C1516192   0.197   0.095   2.571  0.0357  0.2210 -0.2716
  147OSM   H15A16193   0.210   0.028   2.488  2.3598 -0.2283  0.3772
  147OSM   H15B16194   0.136   0.041   2.642  0.7952 -0.3091 -0.0029
  147OSM   H15C16195   0.285   0.119   2.629 -1.6177  3.8492  1.0110
  147OSM    C1416196   0.188   0.313   2.443  0.1327  0.0607 -0.4266
  147OSM   H14A16197   0.282   0.349   2.484  0.1030  0.7123 -0.9123
  147OSM   H14B16198   0.130   0.403   2.429  0.7933  0.4751 -0.5611
  147OSM   H14C16199   0.208   0.256   2.354 -1.5159 -0.9183 -0.2047
  147OSM    C1316200  -0.001   0.187   2.478 -0.1292  0.1075  0.4255
  147OSM   H13A16201  -0.060   0.121   2.539 -0.1779 -1.2462 -1.0075
  147OSM   H13B16202   0.010   0.134   2.384 -0.0009 -1.5062  1.3126
  147OSM   H13C16203  -0.062   0.269   2.443 -1.2787 -0.7070  0.4327
  147OSM    C1216204   0.094   0.303   2.678  0.1633 -0.0688 -0.2144
  147OSM   H12A16205   0.021   0.379   2.652 -0.8216 -0.6226  0.8273
  147OSM   H12B16206   0.182   0.358   2.706  0.2905  0.4964 -1.6105
  147OSM    C1116207   0.036   0.217   2.799 -0.3505 -0.1227 -0.7795
  147OSM   H11A16208  -0.008   0.303   2.854  1.2033 -0.1690  0.6024
  147OSM   H11B16209   0.129   0.171   2.838  0.9967  1.4835 -1.9249
  147OSM      P16210  -0.185   0.081   2.847  0.1189  0.2531  0.1901
  147OSM    O1316211  -0.280   0.193   2.862 -0.3456 -0.5300 -0.1321
  147OSM    O1416212  -0.255  -0.038   2.801 -0.1649  0.1529  0.1565
  147OSM    O1116213  -0.114   0.056   2.984 -0.9739  0.1579 -0.4879
  147OSM    O1216214  -0.058   0.120   2.756 -0.0492  0.0362 -0.1564
  147OSM    C1S16215  -0.030  -0.062   2.989  0.2069 -0.3194  0.1468
  147OSM    H1S16216   0.052  -0.063   2.915  1.4924 -0.6801  1.5337
  147OSM    H1T16217  -0.092  -0.153   2.977  3.3163 -2.5686  0.0266
  147OSM     NF16218   0.114  -0.190   3.139 -0.6088  0.0098  0.7164
  147OSM    HNF16219   0.078  -0.263   3.195  0.0650 -1.8228 -1.1191
  147OSM    C2S16220   0.030  -0.075   3.129 -0.3852  0.1455 -0.8577
  147OSM    H2S16221   0.095   0.014   3.145  2.2176 -1.7353 -0.3503
  147OSM    C3S16222  -0.075  -0.071   3.244 -0.4238  0.1354  0.1515
  147OSM    H3S16223  -0.124  -0.171   3.246  0.1119 -0.1468  2.3534
  147OSM     O316224  -0.181   0.024   3.236  0.6468  0.1688 -0.2204
  147OSM    HO316225  -0.184   0.047   3.143 -0.3299 -1.8402 -0.7420
  147OSM    C4S16226  -0.010  -0.056   3.387 -0.0725 -0.7066  0.1561
  147OSM    H4S16227   0.021  -0.148   3.439 -0.8597 -1.5814 -0.8855
  147OSM    C5S16228   0.006   0.055   3.462 -0.3959  0.2964 -0.0686
  147OSM    H5S16229  -0.024   0.150   3.416 -1.9514 -0.0257  0.2312
  147OSM    C6S16230   0.072   0.061   3.598  0.2399 -0.4096 -0.3271
  147OSM    H6S16231   0.011   0.120   3.669  0.7085 -2.4927  1.9454
  147OSM    H6T16232   0.171   0.107   3.581 -0.9252  2.6805  0.5354
  147OSM    C7S16233   0.089  -0.080   3.668 -0.0495  0.5014  0.4795
  147OSM    H7S16234   0.157  -0.154   3.620  0.5705 -0.3972  2.6510
  147OSM    H7T16235  -0.011  -0.126   3.680 -0.1349  0.6532  0.3519
  147OSM    C8S16236   0.143  -0.063   3.808  0.0777 -0.0764  0.6690
  147OSM    H8S16237   0.192   0.035   3.826 -1.3284  0.6760  0.5478
  147OSM    H8T16238   0.231  -0.131   3.815  0.9844  0.8934 -0.8341
  147OSM    C9S16239   0.036  -0.088   3.914 -0.0852 -0.2478 -0.1660
  147OSM    H9S16240  -0.004  -0.189   3.891  1.0949 -0.7790  0.0265
  147OSM    H9T16241  -0.041  -0.009   3.899 -0.1358  0.3726  2.8411
  147OSM   C10S16242   0.085  -0.084   4.058 -0.5237 -0.1989 -0.1177
  147OSM   H10S16243   0.157  -0.001   4.069  0.0193 -0.4417 -1.5809
  147OSM   H10T16244   0.150  -0.173   4.074 -1.8626 -1.5870 -2.0164
  147OSM   C11S16245  -0.034  -0.076   4.153 -0.3973  0.1416  0.3547
  147OSM   H11S16246  -0.116  -0.142   4.117 -1.8040  1.6296  0.7255
  147OSM   H11T16247  -0.063   0.030   4.167  1.2969  0.6458  0.3105
  147OSM   C12S16248   0.015  -0.140   4.292 -0.3428  1.1733  0.3860
  147OSM   H12S16249   0.124  -0.161   4.280  0.1499  3.5882  0.1031
  147OSM   H12T16250  -0.048  -0.229   4.312 -2.3246  2.7802  1.6646
  147OSM   C13S16251   0.001  -0.059   4.422 -0.7615 -0.4141  0.1913
  147OSM   H13S16252   0.039   0.044   4.400  2.1313 -0.7557  2.9059
  147OSM   H13T16253   0.059  -0.085   4.512 -2.9166  2.2150  2.5452
  147OSM   C14S16254  -0.149  -0.057   4.462  0.0513 -0.1858 -0.0278
  147OSM   H14S16255  -0.172  -0.166   4.471 -0.0080 -0.0294  2.2461
  147OSM   H14T16256  -0.205  -0.014   4.377 -0.0973 -0.7066 -0.2002
  147OSM   C15S16257  -0.189   0.007   4.592  0.0268 -0.8420  0.1989
  147OSM   H15S16258  -0.186   0.116   4.573 -0.6855 -1.3441 -3.3985
  147OSM   H15T16259  -0.115  -0.030   4.666 -0.0413  0.7099  1.0991
  147OSM   C16S16260  -0.328  -0.036   4.642 -1.0511 -0.6869  0.0021
  147OSM   H16S16261  -0.347  -0.145   4.640 -1.8233 -0.6187 -3.7574
  147OSM   H16T16262  -0.398   0.017   4.573 -0.7453  2.2673  1.7618
  147OSM   C17S16263  -0.337   0.012   4.786  0.1809  0.1907 -0.1115
  147OSM   H17S16264  -0.316   0.121   4.793 -1.7458  0.5087  2.4169
  147OSM   H17T16265  -0.253  -0.041   4.836 -0.1832 -0.0203  0.2781
  147OSM   C18S16266  -0.468  -0.003   4.858 -0.0901  0.0750  0.6464
  147OSM   H18S16267  -0.467   0.045   4.958 -1.5594  1.2785  0.1288
  147OSM   H18T16268  -0.496  -0.105   4.894 -0.9486  0.3263  0.7096
  147OSM   H18U16269  -0.552   0.044   4.802  0.4465  0.1423 -0.1276
  147OSM    C1F16270   0.235  -0.193   3.078 -0.0013 -0.0978 -0.1365
  147OSM     OF16271   0.259  -0.110   2.996 -0.2489  0.4984  0.5920
  147OSM    C2F16272   0.327  -0.302   3.120 -0.3233 -0.3696  0.5401
  147OSM    H2F16273   0.410  -0.312   3.047  0.9225 -0.0643  1.8689
  147OSM    H2G16274   0.260  -0.391   3.120 -2.0710  0.8645 -0.5350
  147OSM    C3F16275   0.399  -0.266   3.251  0.4580  0.4420  0.0563
  147OSM    H3F16276   0.325  -0.259   3.334 -0.3257  0.1833 -0.6047
  147OSM    H3G16277   0.451  -0.168   3.239  0.2938  0.2756 -2.8625
  147OSM    C4F16278   0.494  -0.386   3.289 -0.4434 -0.6575  0.0759
  147OSM    H4F16279   0.551  -0.424   3.202 -1.5309 -1.2742 -0.3848
  147OSM    H4G16280   0.428  -0.473   3.314  0.1995 -0.6653  1.9377
  147OSM    C5F16281   0.602  -0.356   3.395  0.2973  0.1167 -0.1765
  147OSM    H5F16282   0.655  -0.265   3.359 -0.3475  0.6115  0.1055
  147OSM    H5G16283   0.671  -0.442   3.382 -0.3757 -0.3731 -0.6052
  147OSM    C6F16284   0.547  -0.350   3.542  0.7799  0.7933  0.5351
  147OSM    H6F16285   0.478  -0.437   3.547  1.5588  0.0194 -0.9954
  147OSM    H6G16286   0.493  -0.261   3.578  0.4480 -0.6066  3.8272
  147OSM    C7F16287   0.655  -0.385   3.645 -0.6293  0.3735 -0.4652
  147OSM    H7F16288   0.694  -0.488   3.631 -1.3800 -0.0367  0.3184
  147OSM    H7G16289   0.600  -0.399   3.741 -0.6291 -1.1733 -0.6675
  147OSM    C8F16290   0.765  -0.276   3.684 -0.1826  0.3035  0.4418
  147OSM    H8F16291   0.719  -0.179   3.709  3.3855  2.0591  0.8413
  147OSM    H8G16292   0.818  -0.260   3.587 -2.1961 -0.7317 -0.9113
  147OSM    C9F16293   0.848  -0.324   3.792 -0.2986 -0.2516  0.2726
  147OSM    H9F16294   0.932  -0.393   3.776 -1.7972 -1.8993 -0.9918
  147OSM   C10F16295   0.827  -0.282   3.916  0.0833  0.5662 -0.5181
  147OSM   H10F16296   0.902  -0.325   3.984  1.3164  0.7409 -1.7482
  147OSM   C11F16297   0.722  -0.188   3.966 -0.3951  0.3599 -0.4617
  147OSM   H11F16298   0.640  -0.174   3.892 -1.6887 -1.0114  0.6325
  147OSM   H11G16299   0.777  -0.092   3.969 -1.6120  1.0517  0.4360
  147OSM   C12F16300   0.666  -0.223   4.102 -0.2103 -0.2450 -0.1707
  147OSM   H12F16301   0.641  -0.331   4.104 -1.5077  0.0208 -0.7761
  147OSM   H12G16302   0.567  -0.172   4.102  0.2619  0.7183 -1.4062
  147OSM   C13F16303   0.743  -0.159   4.220 -0.2291  0.3705 -0.6572
  147OSM   H13F16304   0.689  -0.176   4.315 -0.7647 -0.3752 -1.0866
  147OSM   H13G16305   0.735  -0.051   4.195 -0.0046  0.3354 -0.8958
  147OSM   C14F16306   0.893  -0.216   4.244  0.6103 -0.6199 -0.0215
  147OSM   H14F16307   0.937  -0.150   4.321 -0.3337  2.2957 -1.8243
  147OSM   H14G16308   0.942  -0.197   4.146 -0.4139 -0.1541 -0.4614
  147OSM   C15F16309   0.911  -0.361   4.282 -0.4252  0.8359  0.0295
  147OSM   H15F16310   1.017  -0.368   4.315 -0.4072  2.0882  0.3092
  147OSM   H15G16311   0.902  -0.420   4.188  0.9920  0.6738 -0.0330
  147OSM   C16F16312   0.820  -0.408   4.399 -0.3123  0.0032  0.7341
  147OSM   H16F16313   0.829  -0.518   4.414  0.9603  0.0217  0.1720
  147OSM   H16G16314   0.715  -0.375   4.384  0.1988  0.5511 -2.2205
  147OSM   C17F16315   0.856  -0.353   4.536  0.2243  0.0488  0.4756
  147OSM   H17F16316   0.774  -0.393   4.599  1.0758 -0.0321  1.5719
  147OSM   H17G16317   0.847  -0.244   4.551 -0.0890  0.1855 -0.6338
  147OSM   C18F16318   0.994  -0.406   4.596  0.2519 -0.0543 -0.2253
  147OSM   H18F16319   0.978  -0.452   4.696 -2.6500  0.2848 -0.4385
  147OSM   H18G16320   1.070  -0.326   4.610 -2.0870  2.3030 -0.2101
  147OSM   H18H16321   1.027  -0.486   4.526  0.9304  2.2502 -2.7310
  148OSM      N16322   5.812   0.745   2.779  0.1199  0.4616  0.3059
  148OSM    C1516323   5.897   0.668   2.683  0.6576 -0.9536  0.1660
  148OSM   H15A16324   5.976   0.611   2.730 -0.4689 -0.9234  2.2131
  148OSM   H15B16325   5.941   0.727   2.604  0.7036 -0.1210  0.7993
  148OSM   H15C16326   5.848   0.586   2.632  0.3660 -0.7907  0.1773
  148OSM    C1416327   5.719   0.831   2.692  0.5320  0.3967 -0.1174
  148OSM   H14A16328   5.649   0.882   2.756 -0.1879  0.9312 -1.2935
  148OSM   H14B16329   5.668   0.757   2.632 -0.0703  0.5346  0.2165
  148OSM   H14C16330   5.775   0.906   2.637 -0.6131 -0.0599 -2.0230
  148OSM    C1316331   5.734   0.648   2.859 -0.1958  0.1925 -0.5760
  148OSM   H13A16332   5.806   0.615   2.932 -0.3875 -2.9266 -1.6430
  148OSM   H13B16333   5.693   0.560   2.811  1.4167 -1.1822  0.4551
  148OSM   H13C16334   5.651   0.697   2.909 -0.3198 -0.4602 -0.1243
  148OSM    C1216335   5.904   0.825   2.870  0.3688 -0.9032 -0.0310
  148OSM   H12A16336   5.965   0.888   2.807  0.6189 -0.4139  0.6847
  148OSM   H12B16337   5.972   0.770   2.933  0.8732  0.9329  1.1183
  148OSM    C1116338   5.834   0.917   2.983  0.3856  0.2946  0.8365
  148OSM   H11A16339   5.915   0.964   3.043 -0.2716  2.2833  0.2440
  148OSM   H11B16340   5.783   0.841   3.046  1.9109 -2.1401 -0.6924
  148OSM      P16341   5.799   1.143   2.851  0.1105  0.1612  0.1736
  148OSM    O1316342   5.872   1.105   2.726  0.4941  0.1689 -0.4414
  148OSM    O1416343   5.689   1.240   2.829  0.4473 -0.0011 -0.2476
  148OSM    O1116344   5.905   1.213   2.943  0.8217  0.5131  0.4782
  148OSM    O1216345   5.746   1.014   2.923 -0.3048  0.1785 -0.0658
  148OSM    C1S16346   5.876   1.228   3.080 -0.5884  0.1076  1.0615
  148OSM    H1S16347   5.834   1.133   3.120  0.3238 -2.5489 -3.5981
  148OSM    H1T16348   5.816   1.317   3.108  0.3369  0.1552  3.0500
  148OSM     NF16349   5.996   1.236   3.301 -0.3040  0.3860  0.6987
  148OSM    HNF16350   5.994   1.317   3.358  0.9427  0.4118  0.7327
  148OSM    C2S16351   6.011   1.261   3.154 -0.0928 -0.1479 -0.2718
  148OSM    H2S16352   6.088   1.183   3.134 -2.7195 -3.6380  1.9994
  148OSM    C3S16353   6.066   1.402   3.113 -0.4118 -0.3029  0.4813
  148OSM    H3S16354   5.976   1.467   3.123 -0.4589 -0.2094 -0.4607
  148OSM     O316355   6.093   1.403   2.968 -0.2609  0.0569 -0.2607
  148OSM    HO316356   6.053   1.317   2.949  1.6963 -1.4884  1.9750
  148OSM    C4S16357   6.170   1.460   3.198  0.2832  0.1258 -0.2555
  148OSM    H4S16358   6.131   1.504   3.291 -0.6965 -0.3450 -0.4360
  148OSM    C5S16359   6.293   1.446   3.173 -0.0730 -0.0154 -0.3508
  148OSM    H5S16360   6.314   1.390   3.081  2.8715 -2.4604  1.5858
  148OSM    C6S16361   6.385   1.482   3.283  1.0243 -0.5279  0.2157
  148OSM    H6S16362   6.386   1.593   3.293  1.6553 -0.2131 -2.4608
  148OSM    H6T16363   6.490   1.455   3.257  0.4045  0.2294 -3.5547
  148OSM    C7S16364   6.351   1.429   3.417  0.3569 -0.3886  0.0244
  148OSM    H7S16365   6.349   1.318   3.420  0.7831 -0.5707 -3.1644
  148OSM    H7T16366   6.253   1.466   3.452  0.0778  0.3262 -1.4267
  148OSM    C8S16367   6.447   1.469   3.532  0.0207  0.1857  0.5199
  148OSM    H8S16368   6.447   1.576   3.562 -2.9748  0.2156  0.7647
  148OSM    H8T16369   6.549   1.444   3.496 -0.7131 -0.4997 -1.2004
  148OSM    C9S16370   6.425   1.378   3.652  0.1304 -0.7746  0.4265
  148OSM    H9S16371   6.474   1.280   3.632 -0.4177 -1.3396  1.7012
  148OSM    H9T16372   6.317   1.359   3.672 -0.2996  2.5921  1.9933
  148OSM   C10S16373   6.498   1.426   3.781  0.2414  0.2466  0.1126
  148OSM   H10S16374   6.430   1.510   3.809 -2.4798 -1.0902 -1.9471
  148OSM   H10T16375   6.600   1.450   3.745  0.5592 -1.3026 -0.0667
  148OSM   C11S16376   6.496   1.323   3.901  0.2967 -0.9093  0.3070
  148OSM   H11S16377   6.568   1.246   3.865  0.0236 -1.5009  0.9912
  148OSM   H11T16378   6.402   1.264   3.912  0.5694 -1.9560 -2.3671
  148OSM   C12S16379   6.536   1.382   4.037  0.4997  0.8399 -0.2431
  148OSM   H12S16380   6.491   1.477   4.072  1.2799  0.3140  2.4144
  148OSM   H12T16381   6.643   1.411   4.041  0.3732  1.7673 -2.2815
  148OSM   C13S16382   6.510   1.273   4.146 -0.2694 -0.2531  0.9823
  148OSM   H13S16383   6.515   1.170   4.106 -2.8782  0.0301 -0.2714
  148OSM   H13T16384   6.402   1.286   4.169 -0.6977  0.9343 -1.3563
  148OSM   C14S16385   6.595   1.284   4.271 -0.3782  0.0796 -0.0380
  148OSM   H14S16386   6.605   1.390   4.302 -0.1939  0.1200 -0.2308
  148OSM   H14T16387   6.695   1.248   4.238  0.8513  1.7498  1.6028
  148OSM   C15S16388   6.549   1.207   4.394 -0.2714 -0.4014 -0.0173
  148OSM   H15S16389   6.529   1.102   4.364  1.0319 -0.4523 -0.7393
  148OSM   H15T16390   6.455   1.254   4.431 -0.8270 -0.9028 -0.7554
  148OSM   C16S16391   6.646   1.194   4.514  0.5528 -0.5062  0.2384
  148OSM   H16S16392   6.691   1.294   4.533  0.5286 -0.6801  1.2515
  148OSM   H16T16393   6.720   1.119   4.478 -1.1841 -1.3154 -1.8564
  148OSM   C17S16394   6.577   1.141   4.641 -0.6895 -0.2692 -0.0478
  148OSM   H17S16395   6.549   1.036   4.618  0.2532 -1.0182  2.0299
  148OSM   H17T16396   6.489   1.202   4.670 -1.2934  0.2991 -2.7548
  148OSM   C18S16397   6.669   1.142   4.760  0.4377  0.5347  0.0743
  148OSM   H18S16398   6.763   1.085   4.743 -0.0578  0.0344 -1.1130
  148OSM   H18T16399   6.609   1.089   4.838 -0.1002  0.9334 -0.0595
  148OSM   H18U16400   6.683   1.247   4.794  1.9882  0.9476 -1.6994
  148OSM    C1F16401   5.984   1.116   3.348  0.1761  0.6030 -0.8514
  148OSM     OF16402   5.998   1.015   3.279  0.2738 -0.3733 -0.1054
  148OSM    C2F16403   5.955   1.117   3.498 -1.3740 -0.1108  0.3644
  148OSM    H2F16404   5.859   1.171   3.511  0.2078  2.8749  0.3540
  148OSM    H2G16405   6.041   1.169   3.545 -1.0492  0.2493 -0.6193
  148OSM    C3F16406   5.940   0.971   3.567  0.6722  0.0659  0.7811
  148OSM    H3F16407   6.016   0.897   3.534 -0.6805 -2.5178  3.1112
  148OSM    H3G16408   5.839   0.937   3.537  1.0706  0.1170 -0.7013
  148OSM    C4F16409   5.946   0.977   3.713  0.0648 -0.3030 -0.1698
  148OSM    H4F16410   6.056   0.982   3.729  0.5248  0.1377 -2.8916
  148OSM    H4G16411   5.913   0.885   3.765 -0.8459  0.1652  0.0994
  148OSM    C5F16412   5.882   1.101   3.786 -0.2977  0.2101  0.4038
  148OSM    H5F16413   5.771   1.095   3.778 -0.3713 -0.6616  1.7354
  148OSM    H5G16414   5.911   1.189   3.725  1.3133 -0.8057 -0.3600
  148OSM    C6F16415   5.931   1.110   3.929  0.1809  0.3136  0.1432
  148OSM    H6F16416   5.883   1.193   3.984  1.4663  0.4891  1.0384
  148OSM    H6G16417   6.040   1.130   3.921  0.4207 -1.1393 -0.6848
  148OSM    C7F16418   5.917   0.980   4.018  0.6637  0.7456 -0.0310
  148OSM    H7F16419   5.975   0.895   3.974  1.3123  0.5782  1.1168
  148OSM    H7G16420   5.808   0.957   4.015  1.0134 -0.9614 -1.1006
  148OSM    C8F16421   5.944   0.995   4.167  0.0942 -0.7591  0.9256
  148OSM    H8F16422   5.944   0.891   4.206  1.6841 -1.0513  0.2365
  148OSM    H8G16423   5.857   1.040   4.218 -2.0444 -1.1656 -2.0799
  148OSM    C9F16424   6.077   1.066   4.190  0.9306 -0.1112  0.1501
  148OSM    H9F16425   6.105   1.159   4.138 -1.2931  0.6103  0.1270
  148OSM   C10F16426   6.161   1.030   4.287  0.1289  0.0628 -0.0477
  148OSM   H10F16427   6.252   1.091   4.288  1.1713 -1.4395  0.9465
  148OSM   C11F16428   6.129   0.921   4.388 -0.5202 -0.2585 -0.6786
  148OSM   H11F16429   6.178   0.827   4.355 -1.1563 -1.0014  0.4224
  148OSM   H11G16430   6.021   0.908   4.407 -0.0009 -2.6539  1.1564
  148OSM   C12F16431   6.189   0.969   4.525  0.2774 -0.1177 -0.1572
  148OSM   H12F16432   6.135   1.062   4.553 -1.1753  0.2432 -3.6234
  148OSM   H12G16433   6.295   0.991   4.503  0.6375 -1.1165  0.5291
  148OSM   C13F16434   6.176   0.857   4.630 -0.2977 -0.3450  0.3173
  148OSM   H13F16435   6.262   0.789   4.610  0.7058  0.9407  0.0713
  148OSM   H13G16436   6.077   0.807   4.623 -1.2866  1.5864 -0.4702
  148OSM   C14F16437   6.200   0.913   4.776  0.1524  0.7016  0.4386
  148OSM   H14F16438   6.291   0.978   4.774  1.3291 -0.8620  1.0255
  148OSM   H14G16439   6.235   0.822   4.830  3.1802  0.6930 -1.2749
  148OSM   C15F16440   6.073   0.965   4.837 -0.1411 -0.8019 -0.5602
  148OSM   H15F16441   5.991   0.890   4.839 -0.0373 -0.9333 -1.0033
  148OSM   H15G16442   6.050   1.050   4.769 -1.0767 -0.8863 -0.3587
  148OSM   C16F16443   6.108   1.016   4.978 -0.7640 -0.4995  0.1585
  148OSM   H16F16444   6.078   1.120   5.001 -0.0212 -0.6174  1.8159
  148OSM   H16G16445   6.218   1.030   4.985 -0.7808 -0.7714  1.0913
  148OSM   C17F16446   6.063   0.928   5.089 -0.6790 -0.1515 -0.9646
  148OSM   H17F16447   6.128   0.839   5.074 -0.6435 -0.2911 -0.0610
  148OSM   H17G16448   5.955   0.907   5.077 -0.5783 -0.1333 -1.9388
  148OSM   C18F16449   6.089   0.997   5.236  0.3974  0.2776  0.0657
  148OSM   H18F16450   6.198   1.013   5.247  0.2407 -0.6915  5.2108
  148OSM   H18G16451   6.052   0.935   5.319 -0.7765 -3.0627 -2.7184
  148OSM   H18H16452   6.049   1.101   5.239  1.2057  0.6104 -0.3288
  149OSM      N16453   5.919   6.115   3.040 -0.7295  0.3277 -0.0691
  149OSM    C1516454   5.917   6.167   3.182 -0.4346  0.0840 -0.3226
  149OSM   H15A16455   6.012   6.202   3.218 -1.3394  0.8434  1.4001
  149OSM   H15B16456   5.859   6.098   3.242  1.2151 -0.3302  0.8491
  149OSM   H15C16457   5.865   6.261   3.183 -1.1171 -0.2945  0.3429
  149OSM    C1416458   5.782   6.129   2.980 -0.7639 -0.8647  0.2958
  149OSM   H14A16459   5.710   6.068   3.034 -0.3187 -0.1041  1.8196
  149OSM   H14B16460   5.786   6.097   2.877  1.4809 -2.3278  0.7657
  149OSM   H14C16461   5.752   6.232   2.989  2.0582 -0.0978  1.9559
  149OSM    C1316462   6.012   6.203   2.966  0.0980  0.7359 -0.2517
  149OSM   H13A16463   6.031   6.170   2.865 -0.1982  0.3138 -0.1708
  149OSM   H13B16464   6.112   6.211   3.006  1.0781 -3.9981 -1.2007
  149OSM   H13C16465   5.967   6.301   2.956  0.1566  0.6681 -1.3562
  149OSM    C1216466   5.972   5.972   3.040  0.4233 -0.9273  0.4452
  149OSM   H12A16467   5.953   5.929   2.943 -1.8868 -1.9148  1.2828
  149OSM   H12B16468   5.899   5.921   3.101  0.7183 -1.9818 -0.0733
  149OSM    C1116469   6.118   5.939   3.087 -0.3228 -1.0624  0.0704
  149OSM   H11A16470   6.130   5.828   3.089  3.9601 -0.7636  0.9935
  149OSM   H11B16471   6.139   5.970   3.192  1.3091 -1.3277 -0.1488
  149OSM      P16472   6.322   5.908   2.931  0.7866 -0.3443 -0.4071
  149OSM    O1316473   6.243   5.825   2.835  0.0999 -0.4938 -0.2910
  149OSM    O1416474   6.436   5.984   2.878  0.2051 -0.0666  0.3127
  149OSM    O1116475   6.369   5.804   3.038 -0.1711  0.1893 -0.1074
  149OSM    O1216476   6.223   6.012   3.013  0.0055 -0.5746  0.1536
  149OSM    C1S16477   6.459   5.841   3.134 -0.3205  0.4870 -0.3768
  149OSM    H1S16478   6.465   5.946   3.169 -3.0989 -0.1095  2.2838
  149OSM    H1T16479   6.560   5.799   3.110 -0.5240 -0.6982  0.7202
  149OSM     NF16480   6.516   5.819   3.380 -0.4099  0.2995  0.1333
  149OSM    HNF16481   6.590   5.759   3.408 -0.1943  0.6550  0.3353
  149OSM    C2S16482   6.421   5.779   3.273 -0.0513  0.2407 -0.1385
  149OSM    H2S16483   6.323   5.824   3.300 -0.2322 -0.1679 -0.1087
  149OSM    C3S16484   6.403   5.627   3.255  0.2603  0.1174 -0.4849
  149OSM    H3S16485   6.500   5.584   3.222 -0.8977 -2.9569 -0.1919
  149OSM     O316486   6.304   5.579   3.159  0.0776 -0.0331 -0.1635
  149OSM    HO316487   6.261   5.660   3.128 -0.6307 -0.9173 -1.5799
  149OSM    C4S16488   6.361   5.574   3.390  0.0554  0.1142  0.3108
  149OSM    H4S16489   6.270   5.622   3.428  1.3546  3.7686 -0.7541
  149OSM    C5S16490   6.434   5.481   3.455  0.2616  0.4725 -0.0686
  149OSM    H5S16491   6.529   5.448   3.410  2.9494  3.7293  2.6380
  149OSM    C6S16492   6.404   5.422   3.591  0.4210  0.1212 -0.5286
  149OSM    H6S16493   6.495   5.442   3.653 -0.7720  0.6706  1.1192
  149OSM    H6T16494   6.410   5.311   3.585 -0.8154  0.0597 -0.8236
  149OSM    C7S16495   6.281   5.471   3.662  0.0360  0.3824 -0.3976
  149OSM    H7S16496   6.249   5.392   3.734 -1.3310  0.7083 -0.6085
  149OSM    H7T16497   6.196   5.480   3.590 -0.7455  0.0399  0.4639
  149OSM    C8S16498   6.298   5.606   3.726  0.2715  0.0754 -0.0125
  149OSM    H8S16499   6.196   5.637   3.757  0.0452 -0.5570 -0.1129
  149OSM    H8T16500   6.315   5.677   3.642 -1.4267 -1.3251 -1.6359
  149OSM    C9S16501   6.405   5.628   3.832  0.6299 -0.1413  0.0605
  149OSM    H9S16502   6.403   5.732   3.871  2.4923 -0.4782  1.2129
  149OSM    H9T16503   6.504   5.642   3.783  0.0016 -0.6556 -1.3939
  149OSM   C10S16504   6.401   5.516   3.936  0.1907 -0.6774 -0.2857
  149OSM   H10S16505   6.401   5.413   3.893  3.0111 -0.6677 -0.4816
  149OSM   H10T16506   6.300   5.527   3.980  0.8495 -0.6712  1.2607
  149OSM   C11S16507   6.515   5.537   4.040  0.4204 -0.3711  1.0623
  149OSM   H11S16508   6.509   5.639   4.083  3.3444  1.0791 -1.5302
  149OSM   H11T16509   6.607   5.534   3.977  0.5486  3.5071  0.8232
  149OSM   C12S16510   6.524   5.439   4.154  0.2802  0.1243  0.5073
  149OSM   H12S16511   6.553   5.337   4.122 -0.6580 -0.4405  1.3908
  149OSM   H12T16512   6.424   5.416   4.198 -0.4676  1.5644 -0.3741
  149OSM   C13S16513   6.625   5.476   4.260  0.0832  0.0323 -0.5965
  149OSM   H13S16514   6.597   5.574   4.304 -1.8336 -0.8029  0.1400
  149OSM   H13T16515   6.727   5.482   4.216  0.1418 -0.7100 -0.5834
  149OSM   C14S16516   6.635   5.373   4.377  0.0703 -0.2042 -0.0106
  149OSM   H14S16517   6.671   5.274   4.343 -1.0490 -0.8282  0.5777
  149OSM   H14T16518   6.534   5.353   4.417  0.3898  0.7798  1.3930
  149OSM   C15S16519   6.717   5.427   4.500 -0.6840  0.1297  0.4364
  149OSM   H15S16520   6.691   5.532   4.524  1.2601  0.2947  2.1083
  149OSM   H15T16521   6.824   5.426   4.471 -0.8505  2.9040 -0.5226
  149OSM   C16S16522   6.687   5.351   4.630  0.5387  0.1022 -0.4534
  149OSM   H16S16523   6.683   5.246   4.594  0.2391  0.9996 -3.2843
  149OSM   H16T16524   6.588   5.376   4.674  0.4685  2.2166 -1.6944
  149OSM   C17S16525   6.788   5.348   4.744  0.7759  0.1579  0.3077
  149OSM   H17S16526   6.815   5.451   4.774  1.0853 -0.0433  0.7310
  149OSM   H17T16527   6.876   5.292   4.705  1.1825  1.5291 -0.8526
  149OSM   C18S16528   6.729   5.272   4.870  0.2887  0.8885  0.0595
  149OSM   H18S16529   6.664   5.337   4.932 -1.4028 -0.1037 -0.6275
  149OSM   H18T16530   6.819   5.237   4.926  0.4657  0.1078 -0.7040
  149OSM   H18U16531   6.666   5.189   4.834 -0.1502  1.3692 -0.2974
  149OSM    C1F16532   6.512   5.940   3.437 -0.0089  0.6530  0.1427
  149OSM     OF16533   6.438   6.027   3.391  0.2375  0.1828 -0.0569
  149OSM    C2F16534   6.623   5.967   3.529 -0.0156 -0.0439 -0.8442
  149OSM    H2F16535   6.651   6.073   3.516  0.2646 -0.0909 -0.6421
  149OSM    H2G16536   6.718   5.916   3.501  0.5250  0.1832  0.4727
  149OSM    C3F16537   6.584   5.954   3.676  0.7132  0.2586 -0.3762
  149OSM    H3F16538   6.562   5.847   3.696  0.7963  0.3412  0.1915
  149OSM    H3G16539   6.493   6.016   3.693  2.5169  3.1983 -0.6879
  149OSM    C4F16540   6.688   6.005   3.775 -0.0780 -0.2287 -0.4767
  149OSM    H4F16541   6.711   6.112   3.755  0.3374  0.0245  1.1658
  149OSM    H4G16542   6.779   5.947   3.751  1.5470  2.1704 -0.4780
  149OSM    C5F16543   6.656   5.984   3.927 -0.2868 -0.4877 -0.2384
  149OSM    H5F16544   6.603   5.887   3.937  0.1218 -0.7049 -0.1654
  149OSM    H5G16545   6.578   6.059   3.948  0.6028  0.6509 -0.8927
  149OSM    C6F16546   6.774   5.999   4.025 -0.1407  0.2201  0.5843
  149OSM    H6F16547   6.793   6.109   4.019 -1.5274  0.4200 -0.8765
  149OSM    H6G16548   6.870   5.947   4.006  0.3838  1.0601  0.8785
  149OSM    C7F16549   6.721   5.974   4.164 -0.3194  0.1892 -1.1128
  149OSM    H7F16550   6.682   5.871   4.150  3.6186 -1.4294 -1.4051
  149OSM    H7G16551   6.635   6.038   4.193 -0.5968 -2.1574  4.6150
  149OSM    C8F16552   6.823   5.961   4.283 -0.0721 -0.4768  0.2386
  149OSM    H8F16553   6.916   5.915   4.244 -0.3478 -1.4299  0.6794
  149OSM    H8G16554   6.780   5.878   4.342  0.8181 -0.2313  1.2751
  149OSM    C9F16555   6.845   6.093   4.363 -0.3802  0.2036 -0.4836
  149OSM    H9F16556   6.874   6.180   4.302 -1.3177 -1.2313 -3.1434
  149OSM   C10F16557   6.860   6.093   4.495  0.9454 -0.3887  0.1695
  149OSM   H10F16558   6.885   6.190   4.541 -3.7994 -0.5859  4.0319
  149OSM   C11F16559   6.855   5.976   4.596 -0.0366 -0.4486  0.2207
  149OSM   H11F16560   6.938   5.908   4.569 -0.9672 -0.1498 -4.1787
  149OSM   H11G16561   6.759   5.924   4.572  0.3714 -0.7413 -0.8447
  149OSM   C12F16562   6.857   6.033   4.744 -0.5692  0.4016  0.4537
  149OSM   H12F16563   6.942   6.105   4.752 -0.8363  0.5673  2.1256
  149OSM   H12G16564   6.867   5.942   4.806  0.2067 -0.6498 -1.1462
  149OSM   C13F16565   6.729   6.106   4.784 -0.4554  0.2432  0.2682
  149OSM   H13F16566   6.650   6.030   4.802  1.3148 -1.9990 -0.8590
  149OSM   H13G16567   6.697   6.168   4.697 -0.2493 -0.9870 -0.7241
  149OSM   C14F16568   6.745   6.188   4.913 -0.0970  0.0312 -0.3369
  149OSM   H14F16569   6.830   6.255   4.888 -0.3710 -0.4491 -2.7896
  149OSM   H14G16570   6.773   6.131   5.005  0.5099  0.7316 -0.0753
  149OSM   C15F16571   6.625   6.272   4.938 -0.7424 -0.2686  0.0189
  149OSM   H15F16572   6.639   6.316   5.039 -0.0496  1.7286 -0.9138
  149OSM   H15G16573   6.533   6.211   4.952  0.2370 -2.0611 -0.9692
  149OSM   C16F16574   6.594   6.383   4.842 -0.5119  0.6483  0.7277
  149OSM   H16F16575   6.527   6.351   4.759 -0.7315 -0.1442  1.2008
  149OSM   H16G16576   6.690   6.416   4.798  0.6617 -0.3357  2.4364
  149OSM   C17F16577   6.509   6.504   4.903 -0.4627  0.2621  0.2097
  149OSM   H17F16578   6.553   6.546   4.996 -1.0106  0.9589  0.1646
  149OSM   H17G16579   6.415   6.458   4.939 -0.3092  0.4794  0.9087
  149OSM   C18F16580   6.457   6.614   4.804 -0.6352 -0.1892  0.2909
  149OSM   H18F16581   6.453   6.715   4.852  0.5081 -0.6975  1.5136
  149OSM   H18G16582   6.361   6.573   4.765 -0.3556 -0.7238  0.1553
  149OSM   H18H16583   6.531   6.631   4.723  0.7651 -2.5586  0.9686
  150OSM      N16584   0.862   6.198   2.178 -0.1452 -0.2690  0.7573
  150OSM    C1516585   0.728   6.177   2.236 -0.0458 -0.5563 -0.3837
  150OSM   H15A16586   0.664   6.175   2.150  1.5835 -1.1387 -1.6345
  150OSM   H15B16587   0.680   6.253   2.296 -2.7078 -1.5088 -1.1710
  150OSM   H15C16588   0.734   6.083   2.289 -0.2709  0.0648  0.7684
  150OSM    C1416589   0.872   6.327   2.100 -0.1113  0.0286  0.2021
  150OSM   H14A16590   0.867   6.416   2.161  2.5272  1.4850 -1.4878
  150OSM   H14B16591   0.805   6.333   2.016  2.6913 -0.0311 -2.2252
  150OSM   H14C16592   0.970   6.344   2.057 -1.1195  1.5530 -1.6358
  150OSM    C1316593   0.960   6.215   2.289 -0.2696  0.0965 -0.0774
  150OSM   H13A16594   0.946   6.127   2.350 -3.1582  2.0752  2.3847
  150OSM   H13B16595   0.940   6.302   2.349 -1.9728 -0.0625 -0.3832
  150OSM   H13C16596   1.054   6.222   2.236 -0.7770  2.2020 -0.7913
  150OSM    C1216597   0.898   6.077   2.097  0.2010  0.1692  0.8246
  150OSM   H12A16598   0.829   6.060   2.016  2.1375 -1.4131 -0.5854
  150OSM   H12B16599   0.897   5.983   2.152  0.3229 -0.5083 -0.3046
  150OSM    C1116600   1.035   6.060   2.021  0.4471 -0.3543 -0.8088
  150OSM   H11A16601   1.047   6.148   1.953  0.4795 -0.2279 -0.6410
  150OSM   H11B16602   1.028   5.976   1.949  3.2238 -0.3925 -1.1282
  150OSM      P16603   1.175   5.912   2.178  0.0621  0.4209 -0.1132
  150OSM    O1316604   1.068   5.890   2.272  0.1810 -0.6940 -0.1706
  150OSM    O1416605   1.202   5.818   2.070 -0.4607 -0.1264  0.6593
  150OSM    O1116606   1.313   5.942   2.251 -0.1026 -0.1818 -0.0562
  150OSM    O1216607   1.138   6.045   2.111  0.5094 -0.0658  0.0589
  150OSM    C1S16608   1.337   6.066   2.312 -0.4649 -0.5016 -1.1528
  150OSM    H1S16609   1.261   6.088   2.390  0.7994  1.4760 -0.4094
  150OSM    H1T16610   1.334   6.157   2.247 -2.5901  1.7142  1.7385
  150OSM     NF16611   1.508   6.202   2.436 -0.8010 -0.1280  0.3559
  150OSM    HNF16612   1.577   6.254   2.385 -2.4471  1.4947 -0.3276
  150OSM    C2S16613   1.483   6.069   2.387  0.9071  0.5742  0.3277
  150OSM    H2S16614   1.468   5.993   2.467 -3.2168 -0.1936 -0.9338
  150OSM    C3S16615   1.600   6.028   2.292 -0.1648  0.7949 -0.0065
  150OSM    H3S16616   1.605   6.110   2.218  0.2432  1.3400  0.6167
  150OSM     O316617   1.563   5.914   2.210 -0.0339 -0.0925  0.8674
  150OSM    HO316618   1.472   5.894   2.233  0.1527 -0.6722  1.1232
  150OSM    C4S16619   1.738   6.009   2.350  0.5971  0.4215  0.3259
  150OSM    H4S16620   1.788   6.105   2.369  1.9141 -0.7734  3.5892
  150OSM    C5S16621   1.796   5.897   2.392  0.1129 -0.2042  0.1225
  150OSM    H5S16622   1.751   5.796   2.388 -0.2624 -0.0080 -0.7754
  150OSM    C6S16623   1.934   5.895   2.447  0.6407  0.1358  1.0026
  150OSM    H6S16624   1.994   5.983   2.416 -0.0188  0.8342  1.6670
  150OSM    H6T16625   1.979   5.803   2.403  0.2918  0.1895  0.5237
  150OSM    C7S16626   1.933   5.885   2.599  0.5099 -0.1529  0.0362
  150OSM    H7S16627   2.040   5.865   2.624  1.1248 -1.2918 -2.9677
  150OSM    H7T16628   1.882   5.791   2.630  0.3948  0.2085  0.9580
  150OSM    C8S16629   1.885   6.020   2.674  0.2226  0.8735  0.8980
  150OSM    H8S16630   1.802   6.067   2.618  1.4508  1.1082 -0.8025
  150OSM    H8T16631   1.975   6.085   2.675  0.0647  1.0929  1.0775
  150OSM    C9S16632   1.842   5.984   2.813  0.1174  0.1503 -0.8346
  150OSM    H9S16633   1.763   5.906   2.823  0.2541  0.1743  0.6788
  150OSM    H9T16634   1.790   6.068   2.864 -1.6309 -1.6160  0.4534
  150OSM   C10S16635   1.953   5.931   2.908 -0.1516  0.1747 -0.5021
  150OSM   H10S16636   2.041   5.998   2.896 -0.9400  1.4032  0.3201
  150OSM   H10T16637   1.983   5.827   2.887 -0.7605  0.0673 -0.8792
  150OSM   C11S16638   1.903   5.942   3.057 -0.2472 -0.0690  0.4308
  150OSM   H11S16639   1.815   5.877   3.073 -1.2403  0.6510 -1.7543
  150OSM   H11T16640   1.884   6.049   3.080  0.1780 -0.1680  1.3008
  150OSM   C12S16641   2.019   5.903   3.148  0.3231 -0.5337  0.4079
  150OSM   H12S16642   2.111   5.951   3.111 -0.4431 -0.0555 -0.9392
  150OSM   H12T16643   2.044   5.795   3.148 -0.6130 -0.7742  1.1091
  150OSM   C13S16644   1.996   5.950   3.294  0.2480 -0.6054  0.0595
  150OSM   H13S16645   1.991   6.061   3.303  0.2274 -0.5583 -0.5041
  150OSM   H13T16646   2.088   5.923   3.351 -0.7863 -1.7532  1.2404
  150OSM   C14S16647   1.859   5.908   3.360 -0.2575  0.0465 -0.0670
  150OSM   H14S16648   1.837   5.801   3.340 -2.4014  0.5182 -0.5162
  150OSM   H14T16649   1.783   5.963   3.301 -1.6539 -0.0226  1.5843
  150OSM   C15S16650   1.855   5.964   3.504 -0.5144 -0.4126 -0.0831
  150OSM   H15S16651   1.754   5.974   3.550  0.3476  0.1151  1.7775
  150OSM   H15T16652   1.896   6.068   3.502 -0.1077 -0.5842 -1.4128
  150OSM   C16S16653   1.941   5.888   3.608 -0.6089  0.5156  0.0947
  150OSM   H16S16654   1.902   5.914   3.709 -0.7104  0.4750  0.0668
  150OSM   H16T16655   2.045   5.925   3.603 -0.4326  0.1190  0.7450
  150OSM   C17S16656   1.938   5.734   3.598 -0.4999 -0.4033  0.3130
  150OSM   H17S16657   2.003   5.700   3.515 -1.5756 -0.5628 -0.4804
  150OSM   H17T16658   1.838   5.710   3.558 -0.0473  1.5834 -2.2480
  150OSM   C18S16659   1.957   5.653   3.730  0.1554 -0.1405 -0.2297
  150OSM   H18S16660   1.992   5.548   3.719  0.3913 -0.3284  1.8212
  150OSM   H18T16661   1.868   5.641   3.796 -1.6100 -1.1105 -2.6664
  150OSM   H18U16662   2.032   5.696   3.801 -0.2724 -0.1250  0.2214
  150OSM    C1F16663   1.446   6.259   2.532  0.5324 -0.2332 -1.3429
  150OSM     OF16664   1.361   6.196   2.593  0.3952 -0.1555 -0.2640
  150OSM    C2F16665   1.493   6.396   2.575  0.0744 -0.6734  0.2411
  150OSM    H2F16666   1.459   6.472   2.502  2.2920  0.6050  0.4593
  150OSM    H2G16667   1.603   6.402   2.565  0.0147 -2.2892 -2.1929
  150OSM    C3F16668   1.455   6.425   2.717 -0.0124 -0.7722 -0.6244
  150OSM    H3F16669   1.349   6.392   2.724 -0.1998 -0.8010 -2.9326
  150OSM    H3G16670   1.463   6.535   2.734  0.1944 -0.7664 -0.7586
  150OSM    C4F16671   1.556   6.360   2.815 -0.4120 -0.4342 -0.4776
  150OSM    H4F16672   1.651   6.412   2.791 -0.4036 -0.8473 -1.3673
  150OSM    H4G16673   1.559   6.249   2.812  0.7584 -0.5984  2.5618
  150OSM    C5F16674   1.524   6.408   2.953  0.1180 -0.0380  0.3931
  150OSM    H5F16675   1.421   6.372   2.972 -0.3818  0.5207 -1.1378
  150OSM    H5G16676   1.497   6.516   2.954 -0.0487 -0.0784  0.2845
  150OSM    C6F16677   1.618   6.373   3.061  1.1610  0.0398 -0.6868
  150OSM    H6F16678   1.688   6.458   3.078  0.8492  0.3976 -1.1720
  150OSM    H6G16679   1.660   6.277   3.024  0.3463 -0.5821 -0.0294
  150OSM    C7F16680   1.550   6.336   3.196 -0.8081  0.8826 -0.7007
  150OSM    H7F16681   1.452   6.285   3.181 -1.5245  1.2336  2.1952
  150OSM    H7G16682   1.521   6.431   3.246  0.1302  0.3014  0.9914
  150OSM    C8F16683   1.651   6.263   3.290 -0.0271 -0.0171 -0.1091
  150OSM    H8F16684   1.737   6.333   3.292  0.1014 -0.1478 -0.9010
  150OSM    H8G16685   1.690   6.171   3.242 -2.4650 -1.0803 -0.2152
  150OSM    C9F16686   1.591   6.231   3.427  1.0952 -0.2258 -0.4056
  150OSM    H9F16687   1.497   6.174   3.429  1.6165 -1.2128 -1.6600
  150OSM   C10F16688   1.647   6.258   3.540 -1.3172  0.8875 -0.0305
  150OSM   H10F16689   1.600   6.247   3.639 -1.2239  0.3501 -0.0408
  150OSM   C11F16690   1.780   6.335   3.545 -0.4807  0.3149 -0.2796
  150OSM   H11F16691   1.765   6.439   3.508 -0.3819  0.1904 -0.6728
  150OSM   H11G16692   1.854   6.297   3.471 -0.2942 -0.7521  0.4326
  150OSM   C12F16693   1.853   6.320   3.688 -0.1205  0.4308  0.4580
  150OSM   H12F16694   1.957   6.358   3.684  0.7526 -1.6488  1.6926
  150OSM   H12G16695   1.850   6.213   3.720 -4.3856  1.1732  3.2616
  150OSM   C13F16696   1.772   6.395   3.795  0.0013  0.9317 -0.5967
  150OSM   H13F16697   1.666   6.360   3.800 -0.1714  1.3401 -1.2130
  150OSM   H13G16698   1.757   6.499   3.759  0.4277  1.4445  0.6513
  150OSM   C14F16699   1.845   6.386   3.923  0.4105  0.0141 -1.1920
  150OSM   H14F16700   1.954   6.403   3.912  0.5232  0.4564  0.4489
  150OSM   H14G16701   1.843   6.280   3.958  1.1343  0.3039 -0.2335
  150OSM   C15F16702   1.791   6.482   4.041  0.0203  0.5777  0.7856
  150OSM   H15F16703   1.684   6.452   4.052 -0.0780  0.1889 -0.8827
  150OSM   H15G16704   1.793   6.588   4.008  1.4103  0.6623  1.0926
  150OSM   C16F16705   1.872   6.456   4.173  0.1808 -0.3437  0.2660
  150OSM   H16F16706   1.860   6.536   4.249  0.1353 -1.8859  1.9485
  150OSM   H16G16707   1.977   6.466   4.141 -0.3986 -0.3319 -1.7606
  150OSM   C17F16708   1.824   6.330   4.244  0.3712  0.4221  0.0319
  150OSM   H17F16709   1.905   6.278   4.300  0.2859  0.3146  0.0546
  150OSM   H17G16710   1.788   6.262   4.163  1.3759 -0.5519  0.3733
  150OSM   C18F16711   1.700   6.358   4.333 -0.3199  0.0965 -0.5286
  150OSM   H18F16712   1.669   6.268   4.390 -0.6668  0.6723  0.2096
  150OSM   H18G16713   1.609   6.398   4.284 -0.9203  1.5682  1.6509
  150OSM   H18H16714   1.730   6.436   4.406  0.9665  0.4516 -1.3919
  151OSM      N16715   4.707   0.391   2.864  0.5456  0.6830 -0.3544
  151OSM    C1516716   4.750   0.280   2.959  0.4945  0.3944 -0.2134
  151OSM   H15A16717   4.855   0.277   2.981  0.0990 -0.7915  1.7981
  151OSM   H15B16718   4.712   0.183   2.930 -3.7260  1.1938  1.8348
  151OSM   H15C16719   4.709   0.288   3.058  1.6007 -3.6984  0.7523
  151OSM    C1416720   4.761   0.512   2.925 -1.1194 -0.0293  0.0471
  151OSM   H14A16721   4.709   0.549   3.012 -0.9791  0.2838 -0.0013
  151OSM   H14B16722   4.758   0.584   2.845 -1.7807  1.4322  1.3541
  151OSM   H14C16723   4.867   0.501   2.944 -0.9950 -3.6849 -1.8656
  151OSM    C1316724   4.768   0.359   2.739 -0.4511 -0.5066  0.3983
  151OSM   H13A16725   4.876   0.354   2.748 -0.5848 -1.2189  1.9230
  151OSM   H13B16726   4.739   0.424   2.658  0.5865 -1.6189 -0.9293
  151OSM   H13C16727   4.735   0.260   2.711 -2.2779 -0.2186  1.3902
  151OSM    C1216728   4.553   0.404   2.851 -0.0755  0.3453 -0.0035
  151OSM   H12A16729   4.509   0.336   2.779  0.3351 -0.0131  0.0811
  151OSM   H12B16730   4.545   0.502   2.805 -0.3861 -0.3090 -1.3918
  151OSM    C1116731   4.467   0.394   2.981 -0.3399  0.6273 -0.1758
  151OSM   H11A16732   4.482   0.292   3.022 -1.9013  1.0106  1.5112
  151OSM   H11B16733   4.360   0.405   2.953 -0.4938  1.7088  0.7665
  151OSM      P16734   4.454   0.629   3.097  0.8183  0.1759 -0.1865
  151OSM    O1316735   4.546   0.695   3.195  0.0339  0.5107 -0.3099
  151OSM    O1416736   4.433   0.695   2.963 -0.3823 -0.0019 -0.1852
  151OSM    O1116737   4.308   0.592   3.159 -0.1916  0.3126 -0.3124
  151OSM    O1216738   4.519   0.489   3.073  0.7827  0.2561 -0.4280
  151OSM    C1S16739   4.298   0.543   3.287  0.0597  0.0494 -0.6329
  151OSM    H1S16740   4.334   0.615   3.364 -0.4730 -2.4124  2.1054
  151OSM    H1T16741   4.358   0.450   3.299  1.5437  1.1597  1.2656
  151OSM     NF16742   4.142   0.478   3.482 -0.8656 -0.4880 -0.0093
  151OSM    HNF16743   4.137   0.382   3.509 -1.0105 -0.9380 -1.4939
  151OSM    C2S16744   4.152   0.503   3.335 -0.2744  0.3168 -0.5276
  151OSM    H2S16745   4.096   0.596   3.314 -0.9843  0.1487  0.5814
  151OSM    C3S16746   4.089   0.394   3.243 -0.0944  0.2430 -0.1807
  151OSM    H3S16747   4.153   0.305   3.225 -0.6520  0.0763 -1.4480
  151OSM     O316748   4.066   0.427   3.104  0.6851  0.8044  0.1513
  151OSM    HO316749   4.092   0.518   3.087  0.9136  0.7884  0.4280
  151OSM    C4S16750   3.953   0.350   3.289  0.0059  0.5457 -0.9775
  151OSM    H4S16751   3.882   0.433   3.298 -2.7526 -1.0122 -5.1737
  151OSM    C5S16752   3.920   0.220   3.316 -0.1982 -0.2920  0.3829
  151OSM    H5S16753   4.010   0.158   3.303  0.8501  0.8417  1.7962
  151OSM    C6S16754   3.790   0.159   3.360 -0.2907 -0.2491  0.4611
  151OSM    H6S16755   3.818   0.059   3.401 -0.3409 -0.5521 -0.2377
  151OSM    H6T16756   3.728   0.146   3.269 -0.9700  0.1249  0.8618
  151OSM    C7S16757   3.701   0.251   3.441 -0.0813  0.2441  1.0885
  151OSM    H7S16758   3.601   0.204   3.455  0.8971 -2.1815  0.3986
  151OSM    H7T16759   3.682   0.342   3.380  0.1996 -0.0985  0.4786
  151OSM    C8S16760   3.765   0.278   3.580  0.4251  0.1029  0.0280
  151OSM    H8S16761   3.867   0.322   3.582  0.6972 -0.5381  0.5331
  151OSM    H8T16762   3.773   0.178   3.627 -0.6361  0.4838  1.0591
  151OSM    C9S16763   3.680   0.368   3.675 -0.3844  0.2459 -0.0149
  151OSM    H9S16764   3.590   0.307   3.698 -1.0527  0.3340 -2.2052
  151OSM    H9T16765   3.642   0.457   3.619 -0.8903 -0.5455 -0.9722
  151OSM   C10S16766   3.749   0.413   3.804  0.3789  0.9146 -0.3455
  151OSM   H10S16767   3.676   0.474   3.861 -0.1656 -0.4571  0.4494
  151OSM   H10T16768   3.828   0.488   3.778 -0.0223  0.9153 -1.6450
  151OSM   C11S16769   3.807   0.297   3.881 -0.1875 -0.6289  0.5864
  151OSM   H11S16770   3.882   0.247   3.817 -0.5359  0.8859 -1.0913
  151OSM   H11T16771   3.722   0.229   3.903 -1.6691  0.7880 -0.5263
  151OSM   C12S16772   3.879   0.346   4.004 -0.1749 -1.0553 -0.3505
  151OSM   H12S16773   3.975   0.393   3.973 -1.3847  2.9606  1.2622
  151OSM   H12T16774   3.898   0.260   4.072  1.6583  0.9214  1.8542
  151OSM   C13S16775   3.814   0.457   4.087  0.0675  0.1357 -0.4082
  151OSM   H13S16776   3.710   0.440   4.124  0.6158  0.1405  1.2259
  151OSM   H13T16777   3.799   0.550   4.029 -2.2711  1.3470  1.9027
  151OSM   C14S16778   3.890   0.486   4.219 -0.3572 -0.6390  0.2298
  151OSM   H14S16779   3.966   0.557   4.180  0.4118 -1.4668  0.1995
  151OSM   H14T16780   3.949   0.399   4.255 -0.1529 -0.1642  1.0830
  151OSM   C15S16781   3.819   0.548   4.336  1.3598  0.0680 -0.3731
  151OSM   H15S16782   3.744   0.485   4.388 -0.3081  2.2010 -0.0478
  151OSM   H15T16783   3.765   0.636   4.296  0.1850 -0.1337  0.6996
  151OSM   C16S16784   3.915   0.607   4.450  0.0508  0.0179  0.4100
  151OSM   H16S16785   3.983   0.683   4.405 -0.9627  0.4522 -0.4432
  151OSM   H16T16786   3.980   0.522   4.478 -0.0772 -1.0233 -2.1397
  151OSM   C17S16787   3.851   0.661   4.580 -0.2253  0.4083 -0.4147
  151OSM   H17S16788   3.825   0.571   4.641  0.9031 -0.1818 -0.7787
  151OSM   H17T16789   3.761   0.724   4.562 -1.8719 -0.9207  2.4916
  151OSM   C18S16790   3.953   0.743   4.663  0.0785  0.2175  0.0280
  151OSM   H18S16791   4.043   0.678   4.668 -0.5455 -0.9409 -2.3417
  151OSM   H18T16792   3.922   0.751   4.769  1.3487 -0.4076  0.4691
  151OSM   H18U16793   3.972   0.841   4.615 -0.8973 -0.2859 -1.4731
  151OSM    C1F16794   4.165   0.571   3.575  0.3476 -0.6113 -0.1937
  151OSM     OF16795   4.169   0.692   3.538 -0.6217  0.5194 -0.2703
  151OSM    C2F16796   4.169   0.531   3.722 -0.0181  0.0635 -0.3404
  151OSM    H2F16797   4.215   0.430   3.727 -2.4735 -1.1224 -0.1566
  151OSM    H2G16798   4.064   0.526   3.757  0.3434  0.2260  0.8342
  151OSM    C3F16799   4.240   0.639   3.810  0.3304  0.2201 -0.1354
  151OSM    H3F16800   4.183   0.735   3.801 -0.3789 -0.2086 -0.3344
  151OSM    H3G16801   4.340   0.654   3.763 -0.4202  0.1573 -1.8486
  151OSM    C4F16802   4.258   0.602   3.960 -0.0873 -0.7685 -1.2836
  151OSM    H4F16803   4.335   0.522   3.968  0.1213 -0.4893 -0.3954
  151OSM    H4G16804   4.163   0.581   4.013  0.0669  1.7683  0.1173
  151OSM    C5F16805   4.318   0.721   4.044 -1.0413  0.2076 -0.3150
  151OSM    H5F16806   4.259   0.813   4.026 -2.7402 -0.9559 -0.8761
  151OSM    H5G16807   4.427   0.733   4.023 -0.2922 -2.2942  1.7327
  151OSM    C6F16808   4.326   0.692   4.194  0.3771 -0.4683  0.0221
  151OSM    H6F16809   4.376   0.597   4.221  0.7480 -0.9330 -2.1156
  151OSM    H6G16810   4.226   0.689   4.243 -0.5959 -1.6954 -1.8968
  151OSM    C7F16811   4.394   0.811   4.268 -0.6249  0.3345 -0.6503
  151OSM    H7F16812   4.346   0.905   4.234  2.2119  2.8150  1.6559
  151OSM    H7G16813   4.499   0.825   4.234 -0.7193  0.1234 -1.0397
  151OSM    C8F16814   4.384   0.795   4.423 -0.3965 -0.2818 -0.5406
  151OSM    H8F16815   4.278   0.774   4.448 -0.4918  1.5065  0.7485
  151OSM    H8G16816   4.413   0.895   4.462 -1.5462 -0.5527  1.0916
  151OSM    C9F16817   4.475   0.690   4.477  0.1669 -0.4212  0.2543
  151OSM    H9F16818   4.488   0.607   4.407 -0.8244  0.9079 -1.6076
  151OSM   C10F16819   4.549   0.679   4.586 -0.4901  0.2153 -0.1824
  151OSM   H10F16820   4.604   0.585   4.603 -1.1137 -0.4549 -1.7342
  151OSM   C11F16821   4.557   0.782   4.693 -0.3042 -0.2004 -0.7326
  151OSM   H11F16822   4.523   0.882   4.658  0.2946  0.0997 -0.4662
  151OSM   H11G16823   4.659   0.805   4.730  0.1229  1.5049 -2.7506
  151OSM   C12F16824   4.480   0.758   4.828 -0.1931  0.2819  0.7956
  151OSM   H12F16825   4.378   0.717   4.810  0.1253 -0.7184  1.2096
  151OSM   H12G16826   4.456   0.854   4.879 -2.4232  0.5563 -0.6282
  151OSM   C13F16827   4.561   0.671   4.924  0.4851  1.0272  0.3438
  151OSM   H13F16828   4.663   0.712   4.934  0.0785  2.1367  0.0635
  151OSM   H13G16829   4.583   0.572   4.878  2.6034  1.5838  0.0661
  151OSM   C14F16830   4.489   0.657   5.058  0.5510  0.3584 -0.3927
  151OSM   H14F16831   4.401   0.591   5.044 -0.0818  0.1158  3.4031
  151OSM   H14G16832   4.449   0.755   5.094  2.9250  0.6709  1.7302
  151OSM   C15F16833   4.575   0.599   5.166 -0.1847  0.3730 -0.1737
  151OSM   H15F16834   4.644   0.516   5.141 -0.4202  0.6107 -1.7089
  151OSM   H15G16835   4.501   0.558   5.239 -0.5677 -1.1786 -1.3891
  151OSM   C16F16836   4.643   0.719   5.236  0.2402 -0.1739  0.4638
  151OSM   H16F16837   4.581   0.810   5.245  1.4114  0.4454  5.4258
  151OSM   H16G16838   4.725   0.750   5.169 -1.9415  0.9206 -1.8412
  151OSM   C17F16839   4.680   0.673   5.378 -0.2278 -0.2496  0.0082
  151OSM   H17F16840   4.736   0.579   5.360 -2.1008 -1.1317 -1.6043
  151OSM   H17G16841   4.591   0.644   5.437  0.1118  0.0211  0.6644
  151OSM   C18F16842   4.778   0.762   5.451 -0.3778 -0.6010  0.9017
  151OSM   H18F16843   4.833   0.712   5.534  0.0631  1.3838  1.8737
  151OSM   H18G16844   4.735   0.854   5.495 -1.6632 -1.8673  2.3831
  151OSM   H18H16845   4.853   0.795   5.375 -0.7129 -2.2923 -0.2032
  152OSM      N16846   3.544   2.009   2.536 -0.0338 -0.1262  0.2001
  152OSM    C1516847   3.532   2.128   2.630  0.0697 -0.2234  0.6579
  152OSM   H15A16848   3.591   2.216   2.613  1.0409 -0.6778  1.5869
  152OSM   H15B16849   3.538   2.107   2.735 -0.7568 -1.5640  0.4626
  152OSM   H15C16850   3.433   2.159   2.600 -0.3853 -2.2560 -0.1647
  152OSM    C1416851   3.487   2.042   2.402 -0.7197  0.2894  0.8472
  152OSM   H14A16852   3.383   2.017   2.391 -0.2115 -1.7132  0.0348
  152OSM   H14B16853   3.540   1.981   2.329 -1.3784  0.2690  0.3765
  152OSM   H14C16854   3.502   2.141   2.361 -0.0195  0.5703  1.7557
  152OSM    C1316855   3.691   1.965   2.528 -0.1424 -0.1858 -0.3862
  152OSM   H13A16856   3.719   1.916   2.620 -0.1758  1.3236  0.4400
  152OSM   H13B16857   3.764   2.041   2.509 -1.2722  0.6680 -1.5065
  152OSM   H13C16858   3.707   1.890   2.451 -0.6900 -2.3150  1.4585
  152OSM    C1216859   3.467   1.884   2.592  0.2398  0.1064  0.0388
  152OSM   H12A16860   3.529   1.847   2.673  0.6644 -1.4321 -0.9407
  152OSM   H12B16861   3.476   1.815   2.510 -1.0944  0.4801 -0.4352
  152OSM    C1116862   3.320   1.909   2.634  0.5728 -0.1100  0.1730
  152OSM   H11A16863   3.326   1.974   2.724  1.4531 -2.3927  1.8623
  152OSM   H11B16864   3.280   1.818   2.685  1.0594  0.5162  1.7369
  152OSM      P16865   3.122   1.872   2.453 -0.2275  0.4201  0.5447
  152OSM    O1316866   3.041   1.967   2.371 -0.0008 -0.2999  0.0409
  152OSM    O1416867   3.188   1.762   2.374  0.3813  0.3052  1.1254
  152OSM    O1116868   3.053   1.812   2.584 -0.0541 -0.1203  0.0988
  152OSM    O1216869   3.236   1.957   2.525 -0.2684  0.3476  0.7607
  152OSM    C1S16870   2.979   1.901   2.671 -0.2834  0.5483  0.0428
  152OSM    H1S16871   2.881   1.934   2.631 -1.2698  1.2416  2.8203
  152OSM    H1T16872   3.031   1.989   2.712 -1.9740  0.4489  2.6796
  152OSM     NF16873   2.858   1.894   2.874 -1.2366  0.0634 -0.1207
  152OSM    HNF16874   2.891   1.934   2.960 -2.2324  1.6891 -0.4412
  152OSM    C2S16875   2.937   1.814   2.789 -0.6986 -0.1478  0.8699
  152OSM    H2S16876   2.876   1.731   2.750 -3.4733  2.1969 -0.1265
  152OSM    C3S16877   3.061   1.752   2.863 -0.9894  0.5070 -0.0134
  152OSM    H3S16878   3.142   1.828   2.868 -1.1552  0.5957  1.7405
  152OSM     O316879   3.131   1.653   2.784  0.2200  0.4766 -0.1328
  152OSM    HO316880   3.104   1.648   2.692  2.7056 -2.0446 -0.8470
  152OSM    C4S16881   3.031   1.695   2.998  0.0084 -0.2457  0.2977
  152OSM    H4S16882   3.065   1.753   3.085  0.8381 -2.4597  1.5449
  152OSM    C5S16883   2.965   1.579   3.021 -0.2183 -0.4824  0.0298
  152OSM    H5S16884   2.952   1.515   2.932 -0.9734 -1.6803  0.9783
  152OSM    C6S16885   2.917   1.532   3.153 -0.2825 -0.0532 -0.4207
  152OSM    H6S16886   2.923   1.612   3.230 -2.2534 -0.8332  0.5874
  152OSM    H6T16887   2.972   1.445   3.194 -1.9470 -2.1068 -2.3295
  152OSM    C7S16888   2.775   1.475   3.135  0.2272 -0.4608  0.0892
  152OSM    H7S16889   2.781   1.386   3.069 -0.4958  0.8465 -1.8349
  152OSM    H7T16890   2.702   1.549   3.094 -2.7516 -2.2202  1.8298
  152OSM    C8S16891   2.714   1.439   3.268 -0.3260  0.3602  0.8322
  152OSM    H8S16892   2.611   1.400   3.251  0.6190 -2.3154  0.8182
  152OSM    H8T16893   2.686   1.533   3.321 -0.4347  0.8075  0.0070
  152OSM    C9S16894   2.791   1.340   3.347  0.1503  0.6366 -0.3502
  152OSM    H9S16895   2.891   1.379   3.376  0.0835  0.7063 -0.2111
  152OSM    H9T16896   2.826   1.256   3.283  2.3170  0.1620  1.3105
  152OSM   C10S16897   2.712   1.272   3.462 -0.0930  0.0900 -0.6153
  152OSM   H10S16898   2.647   1.353   3.502  0.1225 -0.4186  0.8363
  152OSM   H10T16899   2.789   1.253   3.540 -0.1931  0.2040 -0.4884
  152OSM   C11S16900   2.632   1.148   3.436  0.0123  0.4271 -0.2664
  152OSM   H11S16901   2.561   1.130   3.520 -0.8472  1.7828 -0.6588
  152OSM   H11T16902   2.704   1.067   3.413 -0.5176 -0.0299 -0.3556
  152OSM   C12S16903   2.531   1.165   3.314 -0.2466 -0.4372  0.3111
  152OSM   H12S16904   2.601   1.171   3.227 -0.8559 -0.9038 -0.2176
  152OSM   H12T16905   2.483   1.263   3.336 -0.0695 -0.1726 -0.4163
  152OSM   C13S16906   2.428   1.060   3.309 -0.1797 -0.4531  0.4792
  152OSM   H13S16907   2.381   1.041   3.407  1.2381 -0.8572  1.1023
  152OSM   H13T16908   2.481   0.968   3.275 -2.3519 -1.4848 -0.2918
  152OSM   C14S16909   2.320   1.092   3.203  0.5754  0.3224  0.4914
  152OSM   H14S16910   2.360   1.121   3.104 -1.5977 -1.0070 -0.8492
  152OSM   H14T16911   2.252   1.170   3.244 -1.9023 -0.9262 -1.0123
  152OSM   C15S16912   2.233   0.974   3.183  0.1867 -0.0006 -0.5224
  152OSM   H15S16913   2.196   0.935   3.281 -1.2784  0.2081 -0.9837
  152OSM   H15T16914   2.286   0.885   3.141 -0.3754 -0.6994  0.2072
  152OSM   C16S16915   2.111   1.009   3.096  0.0581 -0.2387  0.0483
  152OSM   H16S16916   2.152   1.076   3.018  0.9843  0.2534  0.9412
  152OSM   H16T16917   2.046   1.080   3.150  0.1132 -0.9578  1.0871
  152OSM   C17S16918   2.045   0.893   3.033 -0.2362  0.4108 -0.3675
  152OSM   H17S16919   1.978   0.854   3.113  0.0253  1.7877  0.5625
  152OSM   H17T16920   2.118   0.817   2.999  0.0486  0.3093  0.4592
  152OSM   C18S16921   1.961   0.932   2.908 -0.4405  0.3177 -0.2686
  152OSM   H18S16922   1.916   0.850   2.847  1.4414 -1.3130  0.4286
  152OSM   H18T16923   2.033   0.992   2.849  0.7017  0.2146  0.9667
  152OSM   H18U16924   1.875   0.993   2.943 -0.3454 -0.4713  1.4717
  152OSM    C1F16925   2.729   1.921   2.853 -0.4301 -0.5982 -0.0292
  152OSM     OF16926   2.678   1.880   2.749 -0.3750  0.3928  0.3226
  152OSM    C2F16927   2.647   2.006   2.949 -0.2893  0.4921 -0.7487
  152OSM    H2F16928   2.590   2.072   2.880  0.6185  2.0049 -0.0994
  152OSM    H2G16929   2.708   2.075   3.011  0.7120 -0.6471 -0.4432
  152OSM    C3F16930   2.542   1.926   3.026 -0.4509  0.1064 -0.6134
  152OSM    H3F16931   2.484   1.863   2.956 -0.7318 -0.4841  0.1414
  152OSM    H3G16932   2.471   2.005   3.059  0.2171  0.8685 -0.9433
  152OSM    C4F16933   2.595   1.857   3.158 -0.8209 -0.2098  0.1991
  152OSM    H4F16934   2.675   1.782   3.140 -1.8673 -1.9748  2.3660
  152OSM    H4G16935   2.505   1.805   3.197 -1.7104  0.6651 -0.6264
  152OSM    C5F16936   2.653   1.960   3.260 -0.8059  0.0635  0.2260
  152OSM    H5F16937   2.574   2.023   3.306  0.7855  1.9846  0.4513
  152OSM    H5G16938   2.721   2.036   3.216  1.0452 -0.6396  1.7118
  152OSM    C6F16939   2.732   1.899   3.383  0.8977  0.4167 -0.1773
  152OSM    H6F16940   2.806   1.969   3.427  1.0424  0.1473  0.0158
  152OSM    H6G16941   2.794   1.811   3.356  1.5814  0.4089  1.3161
  152OSM    C7F16942   2.641   1.848   3.505  0.4546  0.6114 -0.7348
  152OSM    H7F16943   2.691   1.762   3.553  0.4130  1.1864  0.3707
  152OSM    H7G16944   2.547   1.813   3.458 -0.3579 -2.1106  2.5334
  152OSM    C8F16945   2.612   1.955   3.604 -0.2012  0.1111 -0.6279
  152OSM    H8F16946   2.667   2.047   3.573 -0.5536  0.7337  0.5236
  152OSM    H8G16947   2.650   1.925   3.704 -0.6215 -1.6542 -0.9689
  152OSM    C9F16948   2.463   1.988   3.617 -0.4769  0.6911 -0.1090
  152OSM    H9F16949   2.435   2.055   3.534  0.1118  0.9755 -0.0829
  152OSM   C10F16950   2.371   1.964   3.712 -0.4319  0.2045 -0.9568
  152OSM   H10F16951   2.272   2.008   3.695 -0.4759  0.4145 -0.1755
  152OSM   C11F16952   2.405   1.891   3.839 -0.3166 -0.0529  0.0773
  152OSM   H11F16953   2.502   1.925   3.880 -1.5731  0.0055  3.2701
  152OSM   H11G16954   2.426   1.783   3.823  2.6610  0.5133 -0.3968
  152OSM   C12F16955   2.317   1.892   3.964 -0.9017  0.1987 -0.0084
  152OSM   H12F16956   2.213   1.861   3.939 -0.4894 -0.9936 -0.2978
  152OSM   H12G16957   2.302   1.993   4.007 -0.3109  0.2780  0.0265
  152OSM   C13F16958   2.369   1.793   4.079  0.2123 -0.5550  0.1528
  152OSM   H13F16959   2.479   1.791   4.097  0.3309 -2.1698 -0.5694
  152OSM   H13G16960   2.345   1.692   4.042 -1.2763  0.0491 -0.5920
  152OSM   C14F16961   2.301   1.816   4.204 -0.6531  0.4826 -0.3156
  152OSM   H14F16962   2.204   1.762   4.210 -1.3849  1.9221  2.8050
  152OSM   H14G16963   2.271   1.921   4.221  0.4199  0.8739 -0.7321
  152OSM   C15F16964   2.393   1.760   4.313 -0.3272 -0.1713 -0.4879
  152OSM   H15F16965   2.495   1.805   4.307 -0.7590  1.1844  1.2973
  152OSM   H15G16966   2.407   1.651   4.304 -4.0338 -0.7629 -0.3367
  152OSM   C16F16967   2.355   1.793   4.462  0.6180 -0.4084  0.4881
  152OSM   H16F16968   2.249   1.759   4.471  0.8273 -1.2642 -0.1331
  152OSM   H16G16969   2.354   1.904   4.469  0.2894 -0.4669  1.7273
  152OSM   C17F16970   2.451   1.719   4.559 -0.3077 -0.0763 -0.2981
  152OSM   H17F16971   2.547   1.774   4.562  0.9525 -2.0202 -2.3278
  152OSM   H17G16972   2.467   1.623   4.506 -0.3491 -1.2291  1.6884
  152OSM   C18F16973   2.393   1.692   4.704 -0.1506  0.0166  0.4292
  152OSM   H18F16974   2.464   1.629   4.762  1.6186  4.1747  3.3157
  152OSM   H18G16975   2.294   1.643   4.692 -0.0906 -0.0268  0.1179
  152OSM   H18H16976   2.388   1.788   4.760  2.2564 -0.3461  1.3896
  153OSM      N16977   3.841   2.213   3.314 -0.5722  0.0440  0.0506
  153OSM    C1516978   3.774   2.158   3.193  0.2395  0.0392  0.0499
  153OSM   H15A16979   3.731   2.062   3.218  1.1633 -0.4136 -0.0337
  153OSM   H15B16980   3.838   2.149   3.106  2.0028 -0.0095  1.2880
  153OSM   H15C16981   3.694   2.227   3.170  1.3629  1.1729 -0.6094
  153OSM    C1416982   3.907   2.346   3.290 -0.0170 -0.5010  0.6844
  153OSM   H14A16983   3.963   2.373   3.378  3.2131 -0.9011 -1.0728
  153OSM   H14B16984   3.836   2.423   3.263 -0.0976 -0.5194  0.8450
  153OSM   H14C16985   3.980   2.336   3.211  1.0022  0.0888  1.5239
  153OSM    C1316986   3.745   2.223   3.425  0.3629 -0.0829 -0.2793
  153OSM   H13A16987   3.794   2.287   3.497  0.3211 -1.0315  0.6200
  153OSM   H13B16988   3.720   2.128   3.471  2.0093  0.5735  2.1430
  153OSM   H13C16989   3.652   2.271   3.399 -1.6628 -2.2526  2.3108
  153OSM    C1216990   3.953   2.113   3.360  0.2093 -0.0718 -0.6607
  153OSM   H12A16991   4.035   2.123   3.290  0.8645  0.4014  0.1482
  153OSM   H12B16992   3.921   2.010   3.359 -0.0821  0.0173 -1.6994
  153OSM    C1116993   4.017   2.133   3.505  0.0944  0.6931  0.7288
  153OSM   H11A16994   4.081   2.050   3.541  0.5529  1.4737  1.7889
  153OSM   H11B16995   3.925   2.137   3.566 -0.8530  3.3327 -0.7028
  153OSM      P16996   4.226   2.259   3.459 -0.2540  0.5319  0.0321
  153OSM    O1316997   4.213   2.196   3.324  0.4985 -0.2195 -0.3037
  153OSM    O1416998   4.275   2.400   3.457 -0.3910 -0.1763 -0.2155
  153OSM    O1116999   4.315   2.167   3.553 -0.7967  0.0299 -0.7759
  153OSM    O1217000   4.085   2.256   3.527 -0.6657 -0.5520  0.1946
  153OSM    C1S17001   4.296   2.176   3.691  0.0072 -0.3066  0.1486
  153OSM    H1S17002   4.189   2.158   3.715 -0.2977  1.8366  0.5789
  153OSM    H1T17003   4.318   2.276   3.735 -0.2051 -1.3390  2.7835
  153OSM     NF17004   4.317   2.034   3.891 -0.3547 -0.1075  0.8932
  153OSM    HNF17005   4.340   2.088   3.971 -0.9021 -1.8790  2.3086
  153OSM    C2S17006   4.386   2.076   3.762  0.1313  0.2792 -0.3940
  153OSM    H2S17007   4.387   1.983   3.701 -2.8827  0.5125 -0.9436
  153OSM    C3S17008   4.529   2.124   3.782  0.0614 -0.1806 -0.1657
  153OSM    H3S17009   4.533   2.221   3.835 -2.1758 -0.1214 -0.0123
  153OSM     O317010   4.591   2.147   3.659 -1.0960  0.4497 -0.7303
  153OSM    HO317011   4.525   2.144   3.589  0.3129  0.9288 -2.1443
  153OSM    C4S17012   4.616   2.030   3.866  0.3374  0.1665 -0.2217
  153OSM    H4S17013   4.654   2.077   3.958 -1.9142 -0.0574  0.8927
  153OSM    C5S17014   4.667   1.910   3.832 -0.0388  0.4112 -0.3397
  153OSM    H5S17015   4.642   1.867   3.734 -1.6776  1.4732 -0.4233
  153OSM    C6S17016   4.758   1.832   3.924  0.1460 -0.4369  0.8713
  153OSM    H6S17017   4.863   1.865   3.908 -0.2093  0.1045 -0.4886
  153OSM    H6T17018   4.756   1.727   3.889  0.0465  0.1776 -1.0907
  153OSM    C7S17019   4.709   1.801   4.071  0.5931 -0.3513  0.3861
  153OSM    H7S17020   4.612   1.748   4.068 -0.5490  1.6442  0.7028
  153OSM    H7T17021   4.697   1.903   4.113 -0.3113  1.0945 -3.0654
  153OSM    C8S17022   4.807   1.712   4.146  0.4443  0.2556 -0.3769
  153OSM    H8S17023   4.912   1.734   4.116  0.4482 -0.1379 -0.6684
  153OSM    H8T17024   4.787   1.605   4.122 -1.5431  0.4871  0.0636
  153OSM    C9S17025   4.799   1.725   4.298  0.1696  0.4481  0.5705
  153OSM    H9S17026   4.705   1.688   4.345  0.3723 -2.4233 -1.0788
  153OSM    H9T17027   4.800   1.832   4.329 -1.0048  0.2060  1.5682
  153OSM   C10S17028   4.908   1.655   4.379  0.4170 -0.5715 -0.5528
  153OSM   H10S17029   5.007   1.697   4.350  1.1812 -1.2101  1.0045
  153OSM   H10T17030   4.906   1.553   4.335  2.4901  0.0311 -2.2193
  153OSM   C11S17031   4.904   1.664   4.535 -1.0408  0.0067 -0.8196
  153OSM   H11S17032   4.820   1.602   4.572 -0.8257 -0.0230 -0.3779
  153OSM   H11T17033   4.874   1.760   4.582 -1.3032 -0.8811  0.9120
  153OSM   C12S17034   5.018   1.600   4.612  0.7436  0.0065  0.6140
  153OSM   H12S17035   5.087   1.687   4.621 -0.2148  0.5852  3.2807
  153OSM   H12T17036   5.061   1.512   4.561 -2.1465 -2.7751  2.5606
  153OSM   C13S17037   4.964   1.561   4.749 -0.3822  0.3851  0.5178
  153OSM   H13S17038   4.879   1.491   4.730 -0.7478  0.4073  1.9847
  153OSM   H13T17039   4.924   1.655   4.795 -0.3591  1.1867 -1.0176
  153OSM   C14S17040   5.066   1.502   4.849  0.1560  0.4653  0.1804
  153OSM   H14S17041   5.164   1.554   4.852  0.8767 -0.8619  2.1303
  153OSM   H14T17042   5.072   1.393   4.829  1.1878  0.1330  2.0745
  153OSM   C15S17043   5.036   1.522   4.999 -0.7222 -0.3301  0.5651
  153OSM   H15S17044   4.936   1.478   5.020 -0.5372 -0.8597  0.3544
  153OSM   H15T17045   5.029   1.628   5.033  0.2795 -0.2078  0.4303
  153OSM   C16S17046   5.135   1.441   5.082  0.3177  0.6897 -0.7161
  153OSM   H16S17047   5.229   1.499   5.096  1.9725 -1.8613 -0.5789
  153OSM   H16T17048   5.163   1.343   5.037 -1.9924 -0.5089  0.3081
  153OSM   C17S17049   5.085   1.393   5.222  0.0423 -0.1303 -0.9501
  153OSM   H17S17050   5.173   1.362   5.282 -1.1721  0.5208  1.2937
  153OSM   H17T17051   5.021   1.302   5.221 -0.3976  0.1502  0.2729
  153OSM   C18S17052   5.015   1.507   5.305  0.2284  0.4648 -0.0912
  153OSM   H18S17053   5.073   1.601   5.307 -0.8471  1.1398  0.1057
  153OSM   H18T17054   4.997   1.472   5.409 -1.0347  1.1706 -0.0598
  153OSM   H18U17055   4.912   1.518   5.266 -1.3669 -4.1398  2.0902
  153OSM    C1F17056   4.209   1.958   3.883  0.0923 -0.3437  0.8090
  153OSM     OF17057   4.177   1.910   3.781  0.9537 -0.1538  0.4707
  153OSM    C2F17058   4.120   1.953   4.005 -0.2571 -0.0994 -0.6001
  153OSM    H2F17059   4.019   1.979   3.967 -0.2751  1.6189  0.5312
  153OSM    H2G17060   4.162   2.033   4.068 -0.4663 -0.0152 -0.5673
  153OSM    C3F17061   4.118   1.815   4.079 -0.2932  0.0041 -0.7736
  153OSM    H3F17062   4.226   1.796   4.098  0.1450  1.2537 -1.8690
  153OSM    H3G17063   4.077   1.746   4.002  0.7780 -0.7774 -0.6534
  153OSM    C4F17064   4.044   1.807   4.206  0.0528  0.3111 -0.9240
  153OSM    H4F17065   4.025   1.699   4.224 -1.4395  0.8838  1.5300
  153OSM    H4G17066   3.947   1.857   4.185 -0.6835 -0.4888  0.3838
  153OSM    C5F17067   4.105   1.861   4.334 -0.0363 -1.1750  0.1634
  153OSM    H5F17068   4.105   1.971   4.326 -1.7457 -1.1481  0.1803
  153OSM    H5G17069   4.208   1.821   4.344  0.7774  0.8215  0.1965
  153OSM    C6F17070   4.045   1.824   4.468  0.3239 -0.1454 -0.5148
  153OSM    H6F17071   4.026   1.715   4.462 -1.4300  0.0989 -0.0244
  153OSM    H6G17072   3.941   1.860   4.479 -0.7714 -3.1132 -0.2710
  153OSM    C7F17073   4.120   1.865   4.601  0.1710 -0.4788  1.2685
  153OSM    H7F17074   4.148   1.972   4.587  0.2611 -0.7160 -0.5804
  153OSM    H7G17075   4.211   1.803   4.615  0.9180  0.6413  1.5463
  153OSM    C8F17076   4.020   1.855   4.708  0.1542 -0.2458 -0.5669
  153OSM    H8F17077   3.930   1.918   4.692  0.9659  1.6446  1.7213
  153OSM    H8G17078   4.064   1.899   4.800 -0.2109  0.5476 -0.7619
  153OSM    C9F17079   3.981   1.716   4.736  0.0924  0.2282 -0.4821
  153OSM    H9F17080   3.894   1.680   4.680  0.5942  1.2094 -1.9347
  153OSM   C10F17081   4.052   1.619   4.799  0.1666  0.0167 -0.1913
  153OSM   H10F17082   3.995   1.528   4.821  0.5882  0.0682  1.2212
  153OSM   C11F17083   4.189   1.644   4.851  0.5849  1.0946  0.0796
  153OSM   H11F17084   4.233   1.744   4.830  1.2516  0.6804 -0.5635
  153OSM   H11G17085   4.261   1.573   4.805  0.7177  1.6693 -0.6174
  153OSM   C12F17086   4.207   1.649   5.003  0.1422 -0.5486 -0.2549
  153OSM   H12F17087   4.313   1.642   5.035  0.5423 -2.9560 -1.8674
  153OSM   H12G17088   4.149   1.569   5.054 -1.5400  1.4840  1.1602
  153OSM   C13F17089   4.133   1.770   5.062  0.3242  0.3505 -0.3937
  153OSM   H13F17090   4.026   1.768   5.032  0.4430  1.2840 -0.9139
  153OSM   H13G17091   4.178   1.864   5.025  0.2872  0.8459  0.7680
  153OSM   C14F17092   4.134   1.785   5.218 -0.2790  0.8961 -0.4180
  153OSM   H14F17093   4.239   1.809   5.247  0.0176  0.8663 -1.4227
  153OSM   H14G17094   4.099   1.689   5.261  0.7133  0.6935 -0.0150
  153OSM   C15F17095   4.051   1.904   5.260  0.0654 -0.3158  0.1890
  153OSM   H15F17096   3.942   1.891   5.240  0.2869 -2.1078 -0.0167
  153OSM   H15G17097   4.089   1.989   5.201  0.8314 -0.0040  1.0975
  153OSM   C16F17098   4.073   1.946   5.406 -0.2562  0.6367 -0.8748
  153OSM   H16F17099   4.181   1.962   5.425 -0.1960 -0.2602 -0.3813
  153OSM   H16G17100   4.049   1.860   5.472  0.3695  1.7308  0.8501
  153OSM   C17F17101   3.983   2.054   5.470 -0.0245 -0.0580 -0.6011
  153OSM   H17F17102   3.964   2.015   5.572  2.6329  0.5000  0.1996
  153OSM   H17G17103   3.884   2.059   5.422 -0.5983 -0.9795  0.4373
  153OSM   C18F17104   4.051   2.189   5.484  0.1271  0.1965  0.7450
  153OSM   H18F17105   4.061   2.228   5.380  1.5173 -0.5049  0.5853
  153OSM   H18G17106   4.146   2.176   5.541  0.3692 -1.9599 -0.0478
  153OSM   H18H17107   3.992   2.263   5.541 -1.4513 -0.7464  0.3875
  154OSM      N17108   3.805   0.635   2.668  0.4289 -0.7954  0.5010
  154OSM    C1517109   3.658   0.639   2.669 -0.1736  0.4169  0.0579
  154OSM   H15A17110   3.624   0.596   2.576  1.4894  0.1448 -0.4630
  154OSM   H15B17111   3.613   0.735   2.687 -0.0851  0.5636 -0.4688
  154OSM   H15C17112   3.615   0.572   2.741 -0.6119  1.0208  0.3672
  154OSM    C1417113   3.836   0.498   2.608 -0.0724  1.1440 -0.0310
  154OSM   H14A17114   3.783   0.495   2.514 -1.5845 -0.8563  0.8040
  154OSM   H14B17115   3.807   0.419   2.675  0.3176  1.0958  0.0787
  154OSM   H14C17116   3.942   0.502   2.590  0.3009  2.2185  2.0267
  154OSM    C1317117   3.848   0.737   2.564  0.1192 -0.6909 -0.3098
  154OSM   H13A17118   3.815   0.834   2.598  1.2738 -0.1990 -0.5333
  154OSM   H13B17119   3.793   0.717   2.473 -0.2972 -3.0869  0.4160
  154OSM   H13C17120   3.956   0.734   2.559  0.1117 -0.5304 -0.6621
  154OSM    C1217121   3.857   0.662   2.807 -0.1263 -0.4645 -0.2190
  154OSM   H12A17122   3.965   0.665   2.802 -0.0317 -1.6303  0.6626
  154OSM   H12B17123   3.825   0.578   2.868  1.3705 -1.2063 -0.4090
  154OSM    C1117124   3.805   0.786   2.884 -0.4166  0.9268 -0.7696
  154OSM   H11A17125   3.842   0.775   2.988 -0.9177  2.8817 -0.3486
  154OSM   H11B17126   3.695   0.786   2.896 -0.1261  0.1530  3.4844
  154OSM      P17127   3.989   0.971   2.869 -0.0562  0.0686 -0.0384
  154OSM    O1317128   4.100   0.882   2.824  0.6394 -0.1571  0.3533
  154OSM    O1417129   3.993   1.106   2.819  0.1948 -0.4471 -0.5320
  154OSM    O1117130   3.975   0.968   3.025 -0.5294  0.0880 -0.2747
  154OSM    O1217131   3.851   0.912   2.828  0.1967  0.8687  0.2915
  154OSM    C1S17132   4.083   0.928   3.117 -0.3603  0.3843  0.2425
  154OSM    H1S17133   4.182   0.971   3.091  0.2820 -0.3878  1.3624
  154OSM    H1T17134   4.107   0.820   3.108 -0.7298  0.1857  1.5825
  154OSM     NF17135   4.153   0.937   3.357  0.7202  0.2939  0.4425
  154OSM    HNF17136   4.140   0.854   3.411 -0.8940 -0.9452 -1.6993
  154OSM    C2S17137   4.041   0.961   3.266 -0.5960 -0.0259  0.0922
  154OSM    H2S17138   4.024   1.070   3.269  0.6418  0.2006 -0.5542
  154OSM    C3S17139   3.915   0.884   3.301 -0.0032 -0.1565  0.4399
  154OSM    H3S17140   3.933   0.775   3.305  0.8616  0.0167  2.4779
  154OSM     O317141   3.801   0.893   3.216  0.5683 -0.1947 -0.4798
  154OSM    HO317142   3.837   0.928   3.134 -0.2564  1.9524  0.0310
  154OSM    C4S17143   3.860   0.908   3.439  0.4459 -0.0202 -0.0222
  154OSM    H4S17144   3.846   1.006   3.486  1.3034  0.2727 -0.3522
  154OSM    C5S17145   3.826   0.799   3.516  0.3950 -0.0604  0.3510
  154OSM    H5S17146   3.825   0.696   3.476  0.0670  0.4531 -1.0108
  154OSM    C6S17147   3.761   0.816   3.647 -0.2102 -0.0009 -0.0680
  154OSM    H6S17148   3.691   0.733   3.672  0.6482 -0.0026  2.6933
  154OSM    H6T17149   3.706   0.912   3.653 -1.1026 -0.4126 -1.3009
  154OSM    C7S17150   3.863   0.829   3.754  0.1216 -0.4952 -0.3807
  154OSM    H7S17151   3.938   0.910   3.739  1.6282 -0.6476  4.5358
  154OSM    H7T17152   3.917   0.733   3.762 -2.2883 -1.7939  1.7435
  154OSM    C8S17153   3.804   0.846   3.895  0.2626 -0.4708  0.2543
  154OSM    H8S17154   3.776   0.745   3.932  1.9387 -1.9131 -2.1153
  154OSM    H8T17155   3.716   0.914   3.893  0.1435 -0.5119  2.2036
  154OSM    C9S17156   3.907   0.895   3.999  0.6469 -0.7119 -0.3184
  154OSM    H9S17157   3.935   1.000   3.973 -3.0149 -0.0440 -2.2279
  154OSM    H9T17158   3.990   0.821   3.998  1.5843  0.3278 -1.1569
  154OSM   C10S17159   3.859   0.889   4.147 -0.3555 -0.2853  0.3639
  154OSM   H10S17160   3.836   0.787   4.186  4.4875 -0.4988  3.4793
  154OSM   H10T17161   3.766   0.949   4.158  0.2914  0.8073  0.0334
  154OSM   C11S17162   3.968   0.951   4.238 -0.0889  0.0588 -0.3232
  154OSM   H11S17163   4.001   1.052   4.205  2.1960  0.0031  1.4825
  154OSM   H11T17164   4.056   0.882   4.241  0.2566  0.5027  0.0173
  154OSM   C12S17165   3.914   0.977   4.382  0.2019  0.7259  0.5226
  154OSM   H12S17166   4.004   0.968   4.445 -0.6408 -0.3106  1.6186
  154OSM   H12T17167   3.861   0.882   4.406  1.2059  0.5728  2.2416
  154OSM   C13S17168   3.828   1.101   4.408 -0.1465 -0.0318 -0.3922
  154OSM   H13S17169   3.745   1.103   4.334 -0.4730 -3.6771 -0.2724
  154OSM   H13T17170   3.882   1.195   4.383  2.0813 -0.9983  0.5615
  154OSM   C14S17171   3.776   1.100   4.555 -0.1384 -0.0875  0.8222
  154OSM   H14S17172   3.734   1.004   4.590 -0.4623 -0.5227 -0.6919
  154OSM   H14T17173   3.691   1.171   4.552  0.1304  0.2234  0.4512
  154OSM   C15S17174   3.875   1.143   4.661 -0.9587  0.2651 -0.1509
  154OSM   H15S17175   3.927   1.236   4.629  2.2062 -1.3352  0.0043
  154OSM   H15T17176   3.960   1.073   4.666  0.5884  2.0674 -0.2217
  154OSM   C16S17177   3.826   1.191   4.801 -0.1270  0.2857  0.6804
  154OSM   H16S17178   3.770   1.106   4.844  2.3594  0.6657  5.2385
  154OSM   H16T17179   3.760   1.280   4.797 -1.1400 -0.4480  0.5992
  154OSM   C17S17180   3.939   1.221   4.895 -0.0013  0.1294 -0.3815
  154OSM   H17S17181   3.999   1.297   4.839  1.7197 -1.1652 -0.3711
  154OSM   H17T17182   3.998   1.127   4.899  0.9815  0.5511 -2.9043
  154OSM   C18S17183   3.887   1.267   5.031  0.7499  0.0911  0.2282
  154OSM   H18S17184   3.868   1.376   5.033  1.8351  0.2998 -0.0166
  154OSM   H18T17185   3.968   1.252   5.106 -0.3124  1.8871  1.8039
  154OSM   H18U17186   3.796   1.214   5.067 -1.2724  2.6504 -0.8038
  154OSM    C1F17187   4.267   0.998   3.349 -0.2505 -0.8248  0.3611
  154OSM     OF17188   4.268   1.092   3.268  0.0635 -0.6040 -0.0467
  154OSM    C2F17189   4.388   0.970   3.432  0.1467 -0.1116 -0.1453
  154OSM    H2F17190   4.460   0.898   3.387  0.7288 -1.2176  2.4194
  154OSM    H2G17191   4.351   0.922   3.525  0.5333  1.0575  0.6227
  154OSM    C3F17192   4.460   1.100   3.477  0.1123  0.7837  0.0042
  154OSM    H3F17193   4.383   1.174   3.511  0.3532  1.2801 -0.5192
  154OSM    H3G17194   4.510   1.133   3.384  0.8129  2.0637  0.8128
  154OSM    C4F17195   4.561   1.082   3.589 -0.0461  0.0444 -0.2357
  154OSM    H4F17196   4.631   1.169   3.586  1.0200 -0.6133  2.5062
  154OSM    H4G17197   4.623   0.990   3.582  0.3342  0.0693  2.0181
  154OSM    C5F17198   4.490   1.092   3.726 -0.4473 -0.1063  0.2941
  154OSM    H5F17199   4.400   1.028   3.720  0.0979 -0.9715  0.9623
  154OSM    H5G17200   4.466   1.200   3.738  1.7844  0.8474 -2.7921
  154OSM    C6F17201   4.584   1.044   3.837 -0.3763  0.3543 -0.3313
  154OSM    H6F17202   4.675   1.106   3.831  0.4455 -0.8136 -0.3583
  154OSM    H6G17203   4.623   0.944   3.809  0.0866 -0.0742  1.6545
  154OSM    C7F17204   4.520   1.050   3.983  0.3356  0.3071  0.1081
  154OSM    H7F17205   4.461   0.956   3.998 -0.2134  0.6288  0.0033
  154OSM    H7G17206   4.453   1.139   3.985 -0.8268 -0.5424  0.4382
  154OSM    C8F17207   4.614   1.070   4.103  0.2082 -0.8640 -0.0482
  154OSM    H8F17208   4.698   1.007   4.068 -0.6155 -1.1886 -1.5158
  154OSM    H8G17209   4.568   1.030   4.196 -2.7742 -1.7572 -1.7642
  154OSM    C9F17210   4.651   1.218   4.105  0.7313 -0.0340 -0.1809
  154OSM    H9F17211   4.639   1.274   4.011  2.9750  2.3971  0.8444
  154OSM   C10F17212   4.679   1.295   4.219 -0.4401  0.0545  0.6601
  154OSM   H10F17213   4.706   1.401   4.219  0.1478 -0.0917  0.2851
  154OSM   C11F17214   4.675   1.230   4.355 -0.6255  0.5148  0.3845
  154OSM   H11F17215   4.608   1.142   4.364  1.8353 -1.3974  1.2759
  154OSM   H11G17216   4.636   1.304   4.427  0.6651  1.1479  0.4539
  154OSM   C12F17217   4.814   1.173   4.411 -0.1299  0.8858  0.5213
  154OSM   H12F17218   4.893   1.251   4.414 -0.3230  1.2004 -1.4197
  154OSM   H12G17219   4.839   1.088   4.344 -2.7121 -0.5970  1.2723
  154OSM   C13F17220   4.808   1.117   4.551 -0.0469  0.1061  0.1192
  154OSM   H13F17221   4.889   1.041   4.557 -1.3577 -1.3446  0.2586
  154OSM   H13G17222   4.714   1.062   4.574 -2.5452  3.5272 -1.2030
  154OSM   C14F17223   4.821   1.215   4.674  0.1668  0.2559  0.5425
  154OSM   H14F17224   4.744   1.294   4.661  0.4727  0.5613  0.5654
  154OSM   H14G17225   4.924   1.256   4.668 -0.7914  3.0206  1.3567
  154OSM   C15F17226   4.804   1.132   4.801 -0.3552 -0.9768  0.0894
  154OSM   H15F17227   4.877   1.049   4.797  0.8904  0.1113 -0.4430
  154OSM   H15G17228   4.699   1.095   4.795  0.1287 -2.1436 -2.7062
  154OSM   C16F17229   4.835   1.236   4.913  0.4672  1.0032  0.4411
  154OSM   H16F17230   4.786   1.332   4.889  0.5765  1.6513  2.5952
  154OSM   H16G17231   4.946   1.235   4.919  0.7990 -3.4538 -1.8986
  154OSM   C17F17232   4.789   1.173   5.045  0.3627  0.0926  0.5561
  154OSM   H17F17233   4.691   1.128   5.019  1.9314 -1.4249 -3.5851
  154OSM   H17G17234   4.780   1.245   5.129 -0.9956  1.2900 -0.5670
  154OSM   C18F17235   4.881   1.053   5.094  0.1717 -0.5627 -0.8129
  154OSM   H18F17236   4.828   1.025   5.188  0.5615  1.3008  0.0074
  154OSM   H18G17237   4.978   1.091   5.132  0.6410  0.1993 -2.6908
  154OSM   H18H17238   4.894   0.971   5.020  1.8619 -0.8636 -0.2193
  155OSM      N17239   5.441   2.797   3.407 -0.4431  0.4853  0.3376
  155OSM    C1517240   5.339   2.851   3.324  0.3093  0.4674 -0.2538
  155OSM   H15A17241   5.242   2.811   3.345  1.2701 -0.2003  3.7467
  155OSM   H15B17242   5.360   2.821   3.222  2.3628 -2.3115  0.8526
  155OSM   H15C17243   5.338   2.959   3.322 -0.7732  0.4629 -1.9416
  155OSM    C1417244   5.399   2.822   3.554 -0.6908  0.7477  0.4406
  155OSM   H14A17245   5.305   2.775   3.577  0.9648 -2.0416  2.1707
  155OSM   H14B17246   5.388   2.927   3.577 -1.6001  0.5435  0.9536
  155OSM   H14C17247   5.478   2.776   3.611  0.2316  1.3025 -0.3534
  155OSM    C1317248   5.457   2.652   3.400 -0.0704  0.2249  0.0682
  155OSM   H13A17249   5.501   2.620   3.306  0.0403 -1.4067  0.6537
  155OSM   H13B17250   5.357   2.611   3.401 -0.2330  0.6087  1.5321
  155OSM   H13C17251   5.508   2.607   3.484 -1.7743 -1.7133  0.1492
  155OSM    C1217252   5.573   2.859   3.381 -0.3822  0.1796 -0.9706
  155OSM   H12A17253   5.608   2.826   3.284 -0.8194  0.1584 -1.1243
  155OSM   H12B17254   5.639   2.807   3.448  0.0643  0.8580 -0.8808
  155OSM    C1117255   5.586   3.006   3.402  0.0779 -0.3612 -0.3380
  155OSM   H11A17256   5.688   3.034   3.367 -0.8103  2.3786 -0.9462
  155OSM   H11B17257   5.573   3.037   3.508  0.8022 -1.8373  0.2028
  155OSM      P17258   5.514   3.240   3.303 -0.1832 -0.5249 -0.4864
  155OSM    O1317259   5.629   3.246   3.214  0.1232 -0.3168  0.0090
  155OSM    O1417260   5.392   3.294   3.246  0.9039  0.2241 -0.0988
  155OSM    O1117261   5.539   3.313   3.444 -0.1864 -0.1042  0.7074
  155OSM    O1217262   5.489   3.086   3.334  0.2511 -0.6016 -0.1351
  155OSM    C1S17263   5.444   3.304   3.547  0.0693  0.7294 -0.4803
  155OSM    H1S17264   5.382   3.213   3.531 -1.7335  1.7983  0.1977
  155OSM    H1T17265   5.363   3.379   3.544  0.4167  1.0992 -0.9019
  155OSM     NF17266   5.416   3.266   3.774  0.4432  0.1611 -0.5861
  155OSM    HNF17267   5.385   3.352   3.813  0.4718  0.7647 -1.8555
  155OSM    C2S17268   5.517   3.285   3.680 -0.9297  0.0534 -0.3329
  155OSM    H2S17269   5.578   3.192   3.680  3.3759  2.6084 -0.6654
  155OSM    C3S17270   5.604   3.406   3.712  0.1103  1.0727 -0.6468
  155OSM    H3S17271   5.532   3.490   3.723  0.2812  0.9350  2.1622
  155OSM     O317272   5.690   3.457   3.611  0.3117 -0.5524 -0.1601
  155OSM    HO317273   5.657   3.420   3.529 -0.5877  1.5955 -0.8281
  155OSM    C4S17274   5.685   3.377   3.843 -0.1553 -0.2202  0.5670
  155OSM    H4S17275   5.616   3.383   3.928 -1.1365  0.6927 -0.2644
  155OSM    C5S17276   5.813   3.351   3.874  0.2624 -0.1853  0.6586
  155OSM    H5S17277   5.884   3.333   3.792  1.8888  1.2426  1.7066
  155OSM    C6S17278   5.876   3.314   4.009 -1.2352 -0.3365 -0.7174
  155OSM    H6S17279   5.965   3.379   4.022 -2.6459  1.7782 -1.1046
  155OSM    H6T17280   5.924   3.215   3.997  0.9724  0.6475 -0.5125
  155OSM    C7S17281   5.788   3.330   4.130 -0.6838 -0.1483  0.1624
  155OSM    H7S17282   5.704   3.258   4.120 -2.4004  1.6862  0.7940
  155OSM    H7T17283   5.736   3.428   4.130  1.1785  0.9127  1.6515
  155OSM    C8S17284   5.868   3.316   4.263 -0.4243  0.5405 -0.4786
  155OSM    H8S17285   5.954   3.386   4.260  0.2629 -0.3019 -0.9345
  155OSM    H8T17286   5.919   3.218   4.275  2.2865  1.7717 -1.2352
  155OSM    C9S17287   5.775   3.329   4.379  0.0557  1.1050  0.0690
  155OSM    H9S17288   5.693   3.255   4.368 -1.4077  2.8181 -1.1019
  155OSM    H9T17289   5.728   3.429   4.383 -3.4814 -0.4220  1.1757
  155OSM   C10S17290   5.844   3.312   4.518 -0.3203 -0.2331 -0.2658
  155OSM   H10S17291   5.927   3.386   4.508  0.3792 -1.0194 -0.3821
  155OSM   H10T17292   5.885   3.211   4.538  2.4829  1.0705  1.3325
  155OSM   C11S17293   5.754   3.355   4.640 -0.1822 -0.1103  0.4404
  155OSM   H11S17294   5.667   3.287   4.656 -1.7400  1.5373 -0.6318
  155OSM   H11T17295   5.718   3.458   4.618  0.1057 -0.8695 -4.7143
  155OSM   C12S17296   5.837   3.351   4.769  0.2605  0.0717  1.2125
  155OSM   H12S17297   5.923   3.420   4.754  0.9815 -1.2491 -1.4195
  155OSM   H12T17298   5.871   3.245   4.767 -0.0799 -0.0533  1.8217
  155OSM   C13S17299   5.771   3.374   4.899  0.3104 -0.0381 -0.6142
  155OSM   H13S17300   5.684   3.305   4.905  0.2473  0.1275  1.0547
  155OSM   H13T17301   5.726   3.476   4.908 -1.4309 -0.7785 -0.3756
  155OSM   C14S17302   5.862   3.343   5.017  0.3198  0.0252 -0.6756
  155OSM   H14S17303   5.956   3.402   5.015  1.3656 -1.4623  1.5069
  155OSM   H14T17304   5.889   3.236   5.014 -0.7255 -0.2534 -0.8195
  155OSM   C15S17305   5.788   3.363   5.158 -0.5097 -0.2457 -0.1999
  155OSM   H15S17306   5.710   3.286   5.172 -1.0744  0.1591 -1.0580
  155OSM   H15T17307   5.734   3.460   5.158  0.6050  0.4171  1.3106
  155OSM   C16S17308   5.887   3.363   5.275 -0.5293  0.5310 -0.9020
  155OSM   H16S17309   5.992   3.394   5.257  1.0809 -3.3399  0.8379
  155OSM   H16T17310   5.886   3.254   5.297  0.8941  1.0512  2.2453
  155OSM   C17S17311   5.843   3.459   5.384  0.1778  0.0391 -0.0221
  155OSM   H17S17312   5.735   3.436   5.401 -0.0252  0.5423 -0.5927
  155OSM   H17T17313   5.848   3.565   5.351  6.2423  0.2935  0.6222
  155OSM   C18S17314   5.923   3.451   5.513  0.2693 -0.8819 -0.4003
  155OSM   H18S17315   5.865   3.496   5.597  1.4414 -1.5198  0.7880
  155OSM   H18T17316   6.018   3.509   5.511 -0.2181  0.0572  1.2788
  155OSM   H18U17317   5.924   3.343   5.540 -4.9337 -1.4830 -1.5563
  155OSM    C1F17318   5.345   3.155   3.793 -0.6131 -0.0894 -0.1182
  155OSM     OF17319   5.346   3.069   3.710 -0.1457  1.0112 -0.0100
  155OSM    C2F17320   5.272   3.147   3.925  0.4198 -0.0010 -0.2340
  155OSM    H2F17321   5.214   3.053   3.931 -2.2469  1.5127 -0.4944
  155OSM    H2G17322   5.192   3.224   3.921  1.4015  1.0138 -1.4078
  155OSM    C3F17323   5.357   3.189   4.046 -0.4216 -0.5082  0.0223
  155OSM    H3F17324   5.343   3.299   4.057 -1.8872 -0.6623 -0.1890
  155OSM    H3G17325   5.467   3.173   4.050 -0.3453  0.2355  1.6353
  155OSM    C4F17326   5.312   3.129   4.177  0.1304 -0.2549  0.0029
  155OSM    H4F17327   5.329   3.019   4.187  1.0906  0.0321  2.2548
  155OSM    H4G17328   5.204   3.152   4.190 -0.4094 -2.4150 -0.1084
  155OSM    C5F17329   5.379   3.191   4.295 -0.0750  0.6018  0.3017
  155OSM    H5F17330   5.351   3.299   4.293 -3.6208 -0.0609  2.8631
  155OSM    H5G17331   5.488   3.175   4.295 -0.4330 -2.5615 -0.3966
  155OSM    C6F17332   5.325   3.162   4.432  0.4771  0.3636 -0.1878
  155OSM    H6F17333   5.258   3.073   4.426  1.8468 -0.6140 -3.6234
  155OSM    H6G17334   5.269   3.250   4.470  0.9935  0.2380  0.9116
  155OSM    C7F17335   5.429   3.135   4.538  0.0295 -0.3496 -0.4147
  155OSM    H7F17336   5.489   3.228   4.548  0.5044 -0.7352  0.4026
  155OSM    H7G17337   5.500   3.056   4.505  0.8709  0.6771 -1.1695
  155OSM    C8F17338   5.368   3.092   4.673 -0.5764  0.0098  0.2219
  155OSM    H8F17339   5.463   3.076   4.729 -2.1993 -1.8087  2.6505
  155OSM    H8G17340   5.331   2.988   4.659 -0.2696 -0.3649  1.9376
  155OSM    C9F17341   5.272   3.185   4.743 -0.5778  0.6054 -0.5525
  155OSM    H9F17342   5.195   3.247   4.696 -1.5380  0.5205  0.8488
  155OSM   C10F17343   5.276   3.200   4.876  0.0424 -0.2406 -0.4383
  155OSM   H10F17344   5.201   3.266   4.922  1.8765 -0.0911  2.6984
  155OSM   C11F17345   5.366   3.139   4.974  0.3597  0.4348  0.4477
  155OSM   H11F17346   5.463   3.105   4.932 -0.8055  0.1636 -2.2416
  155OSM   H11G17347   5.317   3.044   5.004  4.0409 -1.0367  2.5520
  155OSM   C12F17348   5.385   3.210   5.103  0.0468  0.6012 -0.5034
  155OSM   H12F17349   5.282   3.239   5.133 -0.3431  1.2453 -2.3106
  155OSM   H12G17350   5.457   3.294   5.094  1.9197 -0.5246  2.5338
  155OSM   C13F17351   5.443   3.126   5.213 -0.1829  0.7662 -0.9115
  155OSM   H13F17352   5.553   3.132   5.200  0.2143 -1.2494  0.9635
  155OSM   H13G17353   5.400   3.024   5.205 -2.9636  1.7157  0.5608
  155OSM   C14F17354   5.420   3.192   5.357  0.2769  0.4213  0.6548
  155OSM   H14F17355   5.313   3.210   5.378  0.0483  1.3958 -1.1627
  155OSM   H14G17356   5.471   3.291   5.368  0.8622 -0.0232  2.3166
  155OSM   C15F17357   5.469   3.093   5.461  0.0411 -0.2030 -0.2600
  155OSM   H15F17358   5.576   3.064   5.450  0.4195  0.6681  0.9036
  155OSM   H15G17359   5.417   2.996   5.444 -0.1038  0.1050 -1.6729
  155OSM   C16F17360   5.442   3.145   5.603 -0.1717 -0.1881 -0.2411
  155OSM   H16F17361   5.334   3.149   5.628 -0.4149  1.3949 -1.4195
  155OSM   H16G17362   5.487   3.247   5.608 -1.2277  0.2368  2.1074
  155OSM   C17F17363   5.518   3.073   5.710 -0.1135 -0.4301  0.9904
  155OSM   H17F17364   5.627   3.066   5.694 -0.0101 -2.4461  2.1385
  155OSM   H17G17365   5.476   2.971   5.726  2.3087 -1.6285  0.1838
  155OSM   C18F17366   5.496   3.165   5.839  0.6122  0.9936 -0.0218
  155OSM   H18F17367   5.551   3.261   5.840 -0.5267  1.6679  1.3038
  155OSM   H18G17368   5.544   3.114   5.925 -0.6650  1.2628  0.8716
  155OSM   H18H17369   5.391   3.198   5.856  0.6899  1.0462  0.3750
  156OSM      N17370   3.082   3.182   3.493  0.2607  0.1986 -0.3537
  156OSM    C1517371   3.021   3.175   3.624 -0.1623 -0.4824 -0.5957
  156OSM   H15A17372   2.957   3.258   3.651  0.8892 -0.5376  2.4465
  156OSM   H15B17373   3.090   3.174   3.708  0.9022  0.2502 -1.4433
  156OSM   H15C17374   2.973   3.078   3.630  1.5134 -1.3557 -0.6801
  156OSM    C1417375   2.977   3.171   3.391 -0.4853  0.1668  0.4861
  156OSM   H14A17376   2.899   3.246   3.389 -1.9869 -1.2817 -2.0881
  156OSM   H14B17377   2.937   3.071   3.400 -1.1068  0.4870  1.4572
  156OSM   H14C17378   3.017   3.174   3.290  0.7890 -1.8611  0.8892
  156OSM    C1317379   3.151   3.315   3.483 -0.7740  0.6163 -1.4546
  156OSM   H13A17380   3.073   3.384   3.512 -2.0442 -2.1777  2.6170
  156OSM   H13B17381   3.188   3.343   3.386 -1.4591  1.8270 -1.3902
  156OSM   H13C17382   3.227   3.328   3.558 -1.3325  0.5464 -0.8722
  156OSM    C1217383   3.185   3.064   3.478  0.0763  0.1197  0.8144
  156OSM   H12A17384   3.263   3.077   3.552 -0.1076  0.1611  1.0028
  156OSM   H12B17385   3.240   3.078   3.386  0.0366 -0.0457  0.7665
  156OSM    C1117386   3.138   2.915   3.493  0.1834  0.6481  0.6587
  156OSM   H11A17387   3.224   2.849   3.471 -1.2848 -1.4252  0.8473
  156OSM   H11B17388   3.063   2.895   3.414  0.8606 -0.1491  0.2077
  156OSM      P17389   3.183   2.850   3.742  0.2091 -0.3215 -0.2047
  156OSM    O1317390   3.249   2.717   3.711 -0.3899  0.0503  0.3938
  156OSM    O1417391   3.277   2.966   3.764  0.8517  0.8117 -0.3269
  156OSM    O1117392   3.085   2.843   3.863  0.1231 -0.9211 -0.0534
  156OSM    O1217393   3.089   2.882   3.620 -0.0102  0.7434 -0.2999
  156OSM    C1S17394   2.942   2.873   3.842 -0.0026  0.0187 -0.4318
  156OSM    H1S17395   2.895   2.821   3.755  1.7951 -1.3688 -0.6469
  156OSM    H1T17396   2.932   2.980   3.814 -1.2687  0.2497  0.8253
  156OSM     NF17397   2.712   2.890   3.939  0.2112  0.5152 -0.2384
  156OSM    HNF17398   2.666   2.968   3.981 -0.6020 -0.8587  1.5329
  156OSM    C2S17399   2.851   2.866   3.970 -0.3711  0.2671 -0.6395
  156OSM    H2S17400   2.842   2.762   4.009 -1.0536  0.4379 -0.3196
  156OSM    C3S17401   2.916   2.960   4.087  0.6526  0.3846  0.4724
  156OSM    H3S17402   2.880   3.063   4.068 -0.5605 -0.0591  0.2671
  156OSM     O317403   3.062   2.974   4.090  0.0657  0.3298  0.9157
  156OSM    HO317404   3.089   2.917   4.018 -0.6675 -0.1562  1.0206
  156OSM    C4S17405   2.859   2.931   4.216 -0.6123 -0.0336  0.3645
  156OSM    H4S17406   2.754   2.960   4.228 -1.1828 -2.7957  3.3685
  156OSM    C5S17407   2.920   2.864   4.316 -0.1165 -0.2909 -0.6837
  156OSM    H5S17408   3.016   2.822   4.282 -0.2918  0.7069 -2.5195
  156OSM    C6S17409   2.839   2.836   4.445 -0.3977  0.1900  0.5925
  156OSM    H6S17410   2.850   2.729   4.471 -0.2870 -0.3921 -1.6369
  156OSM    H6T17411   2.730   2.857   4.438  0.0043  2.7791  1.0205
  156OSM    C7S17412   2.896   2.925   4.551 -0.2060  0.2094  0.4681
  156OSM    H7S17413   2.906   3.025   4.503  0.8646 -1.0520 -2.1761
  156OSM    H7T17414   3.003   2.901   4.570  0.1402  2.7969  2.4185
  156OSM    C8S17415   2.813   2.929   4.673 -0.8963  0.2709  0.0755
  156OSM    H8S17416   2.707   2.938   4.640 -0.7467  0.9593 -0.2295
  156OSM    H8T17417   2.828   3.012   4.746  2.1184 -0.9231  0.9820
  156OSM    C9S17418   2.823   2.801   4.749  0.1537  0.5670  0.6732
  156OSM    H9S17419   2.931   2.774   4.748  0.0395 -0.8514 -4.9121
  156OSM    H9T17420   2.767   2.726   4.690 -1.4049  0.6927  1.9080
  156OSM   C10S17421   2.767   2.799   4.886  0.2524  0.8666 -0.1806
  156OSM   H10S17422   2.828   2.865   4.951 -1.0210  0.3605  1.5938
  156OSM   H10T17423   2.777   2.697   4.930 -0.4684  0.5714 -0.6752
  156OSM   C11S17424   2.621   2.847   4.895 -0.0194 -0.8499 -0.3905
  156OSM   H11S17425   2.553   2.777   4.843 -3.2717  1.8004 -0.0117
  156OSM   H11T17426   2.616   2.949   4.850 -0.1336  0.3129  2.0712
  156OSM   C12S17427   2.571   2.857   5.039  0.2145 -0.5213 -0.0592
  156OSM   H12S17428   2.472   2.908   5.037  1.5633  2.3432 -1.9821
  156OSM   H12T17429   2.646   2.918   5.094  0.1616  0.7889 -1.3836
  156OSM   C13S17430   2.568   2.718   5.104 -0.0331  0.0860  0.4229
  156OSM   H13S17431   2.669   2.677   5.124  1.0462  3.2639  2.3119
  156OSM   H13T17432   2.519   2.643   5.038 -1.2778 -0.1174  1.5471
  156OSM   C14S17433   2.489   2.713   5.238 -0.3758 -0.6952  0.6487
  156OSM   H14S17434   2.389   2.759   5.227 -0.0548  0.0769  0.9105
  156OSM   H14T17435   2.538   2.769   5.320  0.2244 -0.2558  0.0018
  156OSM   C15S17436   2.469   2.570   5.277 -0.9386 -0.1506 -0.3044
  156OSM   H15S17437   2.564   2.512   5.282 -2.0915 -2.0955 -0.0057
  156OSM   H15T17438   2.410   2.509   5.205  0.2469 -1.2064 -0.4278
  156OSM   C16S17439   2.396   2.556   5.411 -0.2902 -0.0468 -0.5193
  156OSM   H16S17440   2.304   2.613   5.387 -0.2366 -0.0713 -0.7866
  156OSM   H16T17441   2.455   2.613   5.486 -0.3773 -0.2393 -0.3031
  156OSM   C17S17442   2.367   2.407   5.451  0.6108 -0.2413  0.7329
  156OSM   H17S17443   2.361   2.329   5.373  0.9209 -0.5218  0.9839
  156OSM   H17T17444   2.278   2.396   5.516 -0.2570 -2.6631 -0.7646
  156OSM   C18S17445   2.484   2.357   5.533 -1.2398  0.0279 -0.6753
  156OSM   H18S17446   2.502   2.419   5.624 -0.1792  0.3654 -1.1042
  156OSM   H18T17447   2.581   2.355   5.479 -1.8950  3.7760 -2.3565
  156OSM   H18U17448   2.477   2.249   5.556  1.7537 -0.1936 -0.4533
  156OSM    C1F17449   2.640   2.793   3.878 -0.1035 -0.0828  0.8003
  156OSM     OF17450   2.684   2.686   3.853 -0.2474 -0.0736  0.1690
  156OSM    C2F17451   2.494   2.819   3.851  0.3383  0.8586 -0.1522
  156OSM    H2F17452   2.474   2.770   3.753 -0.4267  0.4132  0.2154
  156OSM    H2G17453   2.463   2.925   3.858 -1.5270  0.2679  2.0362
  156OSM    C3F17454   2.407   2.742   3.951 -0.2898 -1.3183  0.6392
  156OSM    H3F17455   2.416   2.631   3.945  0.6878 -1.2043 -0.6083
  156OSM    H3G17456   2.301   2.764   3.929 -0.3322 -1.2654  0.8974
  156OSM    C4F17457   2.420   2.792   4.094  0.3188 -0.1452 -0.9111
  156OSM    H4F17458   2.420   2.903   4.093 -1.3105 -0.1142 -1.4356
  156OSM    H4G17459   2.519   2.756   4.130  0.1686  1.1042  0.8402
  156OSM    C5F17460   2.297   2.752   4.175 -0.2992  0.0647  0.7803
  156OSM    H5F17461   2.279   2.647   4.144  2.1280  0.0972 -1.0145
  156OSM    H5G17462   2.212   2.809   4.130  1.1351  1.2850 -0.5087
  156OSM    C6F17463   2.312   2.773   4.331 -0.0416 -0.2262 -0.1616
  156OSM    H6F17464   2.406   2.718   4.352 -0.0400 -0.7449 -1.4183
  156OSM    H6G17465   2.233   2.705   4.369 -0.1926 -2.5610 -4.0874
  156OSM    C7F17466   2.316   2.917   4.379  0.8938  0.4860  0.6177
  156OSM    H7F17467   2.216   2.948   4.416  1.7098  1.5845  1.9742
  156OSM    H7G17468   2.334   2.986   4.294  0.3996  0.3099  0.3609
  156OSM    C8F17469   2.418   2.944   4.485 -0.1147 -0.1294 -0.1689
  156OSM    H8F17470   2.434   3.053   4.497 -0.3136 -0.0048 -1.0024
  156OSM    H8G17471   2.516   2.917   4.440  1.0000 -0.3690  2.2604
  156OSM    C9F17472   2.382   2.875   4.618 -0.3882  0.5243 -0.3447
  156OSM    H9F17473   2.391   2.765   4.627 -0.6568  0.5122 -0.2128
  156OSM   C10F17474   2.325   2.940   4.715  0.4301  0.4370  0.1173
  156OSM   H10F17475   2.295   2.884   4.805  0.7722  0.1902  0.0786
  156OSM   C11F17476   2.294   3.083   4.704  0.2348 -0.7868 -0.1278
  156OSM   H11F17477   2.255   3.099   4.602  1.4779 -1.4868 -0.7371
  156OSM   H11G17478   2.393   3.132   4.718 -1.1397  2.4166 -0.9902
  156OSM   C12F17479   2.199   3.149   4.809 -0.5226 -0.5032  0.2893
  156OSM   H12F17480   2.095   3.112   4.800  0.3063 -2.5461 -2.0527
  156OSM   H12G17481   2.182   3.257   4.792 -0.0205 -0.4658  0.0055
  156OSM   C13F17482   2.257   3.121   4.950 -0.5259 -0.3636 -0.0289
  156OSM   H13F17483   2.363   3.155   4.958 -0.3502 -1.1940  1.4831
  156OSM   H13G17484   2.241   3.014   4.979 -0.0243  0.5088  4.0957
  156OSM   C14F17485   2.172   3.194   5.056 -0.0412  0.4263  0.0316
  156OSM   H14F17486   2.068   3.166   5.029  0.4834 -2.3903  0.6709
  156OSM   H14G17487   2.183   3.303   5.035  1.5007  0.8457  2.6277
  156OSM   C15F17488   2.210   3.169   5.197  0.1968  0.2496  0.1043
  156OSM   H15F17489   2.140   3.234   5.253 -0.8315  0.2129 -1.1051
  156OSM   H15G17490   2.313   3.204   5.222  1.5715 -1.6155 -2.5310
  156OSM   C16F17491   2.214   3.027   5.243  1.2790  1.1046  0.0231
  156OSM   H16F17492   2.297   2.975   5.191  0.1583 -0.8926  0.1235
  156OSM   H16G17493   2.114   2.985   5.217  1.0478  0.7379  1.4650
  156OSM   C17F17494   2.232   2.996   5.389 -0.9129  0.3699  0.5029
  156OSM   H17F17495   2.208   2.887   5.393  0.4920  0.0682  1.6084
  156OSM   H17G17496   2.156   3.044   5.453 -1.4216 -0.4414  0.5282
  156OSM   C18F17497   2.377   3.031   5.440 -0.6375 -0.2168 -0.1328
  156OSM   H18F17498   2.396   3.140   5.433 -0.8707 -0.1964 -0.5010
  156OSM   H18G17499   2.442   2.981   5.365  0.9831  0.3750  0.8271
  156OSM   H18H17500   2.392   2.989   5.542 -0.5339 -3.1366 -1.2614
  157OSM      N17501   0.894   3.076   2.584  0.7841 -0.4755  0.6473
  157OSM    C1517502   1.008   3.139   2.511  0.2284 -0.1414  0.7228
  157OSM   H15A17503   1.086   3.176   2.576  1.3938  0.7895 -1.1035
  157OSM   H15B17504   0.965   3.229   2.471  1.5464 -1.2255 -3.6756
  157OSM   H15C17505   1.036   3.068   2.435 -1.9063 -1.5155  1.1556
  157OSM    C1417506   0.781   3.082   2.491 -0.5507  0.2997  0.4766
  157OSM   H14A17507   0.751   3.181   2.462 -3.1158 -0.4717  0.2206
  157OSM   H14B17508   0.699   3.020   2.526  1.2723 -2.5284  0.0579
  157OSM   H14C17509   0.811   3.039   2.396 -0.0918 -0.5951  1.0201
  157OSM    C1317510   0.925   2.934   2.621 -0.4712 -0.2684 -0.3991
  157OSM   H13A17511   0.852   2.892   2.689 -0.2420 -1.6097 -0.9457
  157OSM   H13B17512   1.018   2.933   2.676 -0.7567 -0.6357  0.0813
  157OSM   H13C17513   0.916   2.870   2.535 -1.1062 -0.6814 -0.0352
  157OSM    C1217514   0.867   3.161   2.705  0.6185  0.0151  0.6408
  157OSM   H12A17515   0.791   3.111   2.763  0.3849 -0.7009 -0.2507
  157OSM   H12B17516   0.825   3.256   2.676 -0.1406 -0.0685  1.4294
  157OSM    C1117517   0.975   3.187   2.810  0.1474 -0.3501 -0.4824
  157OSM   H11A17518   0.937   3.245   2.898  3.1430  1.3205 -0.1506
  157OSM   H11B17519   1.052   3.257   2.771 -0.6425  0.2328 -1.0414
  157OSM      P17520   1.182   3.074   2.911  0.3400  0.0700  0.3294
  157OSM    O1317521   1.228   2.937   2.914  0.2807 -0.2505 -0.1946
  157OSM    O1417522   1.257   3.179   2.835 -0.5179  0.1907  0.0980
  157OSM    O1117523   1.154   3.130   3.059  0.5271  0.4442  0.6370
  157OSM    O1217524   1.027   3.067   2.862 -0.4644 -0.5740  0.6340
  157OSM    C1S17525   1.100   3.040   3.152 -0.0898 -0.1999  0.4763
  157OSM    H1S17526   1.172   2.958   3.172  1.0296  0.2610 -1.3837
  157OSM    H1T17527   1.005   2.994   3.117  0.4618  0.1027 -1.5699
  157OSM     NF17528   1.017   2.992   3.388 -0.3988  0.6176  0.1781
  157OSM    HNF17529   0.922   3.002   3.415 -0.9144 -0.4195 -1.1492
  157OSM    C2S17530   1.080   3.093   3.295  0.1259 -0.4471  0.3090
  157OSM    H2S17531   1.180   3.119   3.337 -0.3545 -2.0468  2.6527
  157OSM    C3S17532   0.992   3.225   3.296 -0.1130  0.6304 -1.1224
  157OSM    H3S17533   0.889   3.193   3.267  0.1617 -0.9447 -0.4452
  157OSM     O317534   1.040   3.311   3.198  0.5349  0.3104  0.0796
  157OSM    HO317535   1.097   3.255   3.145  1.3981 -1.0400  2.2666
  157OSM    C4S17536   0.982   3.290   3.433  0.5393  0.3515  0.4493
  157OSM    H4S17537   0.899   3.249   3.492 -0.8103  0.2657 -1.4090
  157OSM    C5S17538   1.049   3.390   3.488 -0.3201 -0.3137 -0.0250
  157OSM    H5S17539   1.119   3.446   3.423  1.5510 -0.5602  1.6807
  157OSM    C6S17540   1.030   3.446   3.625 -0.2065  0.9892  0.0651
  157OSM    H6S17541   0.936   3.504   3.627 -1.5435 -1.0950  0.1543
  157OSM    H6T17542   1.112   3.513   3.660 -0.1533  0.5817  0.7363
  157OSM    C7S17543   1.008   3.334   3.732 -0.4603  0.3493  0.8293
  157OSM    H7S17544   1.089   3.260   3.746 -0.3204  0.2642 -0.3531
  157OSM    H7T17545   0.922   3.272   3.700  0.3606 -1.3180  1.7572
  157OSM    C8S17546   0.978   3.396   3.868 -0.5166  0.5395  0.3949
  157OSM    H8S17547   0.891   3.464   3.860 -0.6103  0.3291 -0.4115
  157OSM    H8T17548   1.067   3.457   3.896 -0.1412  0.4328 -0.5284
  157OSM    C9S17549   0.957   3.288   3.977 -1.1954  0.0455  0.4688
  157OSM    H9S17550   1.040   3.215   3.985 -1.5442 -0.3402  0.6741
  157OSM    H9T17551   0.858   3.240   3.960 -0.7213 -0.4817 -0.9539
  157OSM   C10S17552   0.937   3.347   4.111 -0.4450 -0.3907 -0.1600
  157OSM   H10S17553   0.860   3.427   4.115  2.8700  3.0619  1.7498
  157OSM   H10T17554   1.030   3.402   4.138 -0.0336 -0.7984 -0.7398
  157OSM   C11S17555   0.919   3.249   4.231  0.0756 -0.2101 -0.0588
  157OSM   H11S17556   1.007   3.181   4.235  0.8506  0.7737 -0.1956
  157OSM   H11T17557   0.826   3.192   4.209 -0.5932  0.5014  0.8348
  157OSM   C12S17558   0.905   3.326   4.366 -0.2182  0.3235  0.2193
  157OSM   H12S17559   0.799   3.355   4.382 -0.0978  0.8282  0.1156
  157OSM   H12T17560   0.982   3.403   4.385  1.9865 -1.3318 -1.5123
  157OSM   C13S17561   0.930   3.235   4.488  0.5228 -0.5861 -0.0634
  157OSM   H13S17562   1.029   3.186   4.482  0.9698  0.3655 -0.7066
  157OSM   H13T17563   0.855   3.153   4.493 -0.2701  0.1565  0.6739
  157OSM   C14S17564   0.921   3.309   4.622  0.2077  0.7194 -1.0903
  157OSM   H14S17565   0.826   3.366   4.630  0.5953  1.1272  1.5166
  157OSM   H14T17566   1.006   3.380   4.619 -0.3171  1.3239 -2.1533
  157OSM   C15S17567   0.939   3.209   4.741  0.5294 -0.0421 -0.1456
  157OSM   H15S17568   1.041   3.166   4.730  0.0309 -0.9985 -1.3611
  157OSM   H15T17569   0.862   3.130   4.728 -0.1754  0.6904 -0.4981
  157OSM   C16S17570   0.919   3.280   4.876  0.0162  0.2207 -0.0727
  157OSM   H16S17571   0.969   3.380   4.871  2.0050 -0.7237 -0.0557
  157OSM   H16T17572   0.959   3.214   4.956  0.2774 -0.8685 -1.0889
  157OSM   C17S17573   0.770   3.301   4.901  0.1316  0.4547 -0.3895
  157OSM   H17S17574   0.716   3.207   4.877  0.1514  0.0556  1.0388
  157OSM   H17T17575   0.736   3.386   4.837 -0.3604  1.4207  1.0899
  157OSM   C18S17576   0.749   3.340   5.053  0.0660 -0.1182  0.0467
  157OSM   H18S17577   0.641   3.363   5.068  0.3767  2.8495 -1.4355
  157OSM   H18T17578   0.809   3.429   5.083  1.0786 -0.7504 -0.0747
  157OSM   H18U17579   0.773   3.253   5.118 -0.6425  0.1005  0.6218
  157OSM    C1F17580   1.085   2.884   3.429  0.0322 -0.5069  0.0316
  157OSM     OF17581   1.204   2.869   3.397  0.1921 -0.0683 -0.2943
  157OSM    C2F17582   1.012   2.791   3.514  0.5308 -0.1144 -0.3456
  157OSM    H2F17583   1.051   2.687   3.519  1.9444  0.3401 -1.1816
  157OSM    H2G17584   0.907   2.787   3.480  0.4351 -0.6344  0.0079
  157OSM    C3F17585   1.006   2.842   3.659  0.7920 -0.2311 -0.5371
  157OSM    H3F17586   0.947   2.771   3.721 -0.2561  2.0585  1.2573
  157OSM    H3G17587   0.962   2.944   3.667  0.9544 -0.1798 -0.2915
  157OSM    C4F17588   1.140   2.854   3.724  0.4896  0.1249 -0.1837
  157OSM    H4F17589   1.197   2.938   3.679  2.1018 -0.5615  0.4993
  157OSM    H4G17590   1.202   2.763   3.710  0.8596  0.4879 -0.9495
  157OSM    C5F17591   1.144   2.879   3.875  0.1710 -0.2633  0.5788
  157OSM    H5F17592   1.081   2.805   3.929  0.4668  0.9202  2.6408
  157OSM    H5G17593   1.102   2.978   3.902 -0.0165 -0.6567  1.7732
  157OSM    C6F17594   1.285   2.876   3.938 -0.5396  1.0471  0.5433
  157OSM    H6F17595   1.359   2.923   3.869 -0.6136  2.9758  1.7045
  157OSM    H6G17596   1.315   2.775   3.972 -1.1285  0.3941 -0.7967
  157OSM    C7F17597   1.291   2.965   4.063  0.0990  0.3573  0.1392
  157OSM    H7F17598   1.210   2.925   4.127  1.9368  0.1473  2.4623
  157OSM    H7G17599   1.270   3.067   4.024 -0.1626  0.0056 -0.6694
  157OSM    C8F17600   1.422   2.941   4.140 -0.0438 -0.6888 -0.3002
  157OSM    H8F17601   1.442   3.034   4.198 -2.0660 -0.2909 -0.1809
  157OSM    H8G17602   1.505   2.934   4.066  1.8356 -1.0175  1.7180
  157OSM    C9F17603   1.410   2.819   4.227 -0.0242  0.3376 -0.1307
  157OSM    H9F17604   1.435   2.724   4.178 -0.9952  0.2408 -0.4416
  157OSM   C10F17605   1.360   2.818   4.353  1.0597  0.1165  0.5737
  157OSM   H10F17606   1.341   2.724   4.408 -0.2869 -0.9191 -1.5388
  157OSM   C11F17607   1.300   2.939   4.426  0.2845 -0.0114 -0.2864
  157OSM   H11F17608   1.281   3.027   4.360 -2.3256 -1.0212 -1.0089
  157OSM   H11G17609   1.363   2.963   4.514 -0.3165 -1.6367  0.6144
  157OSM   C12F17610   1.160   2.888   4.475 -0.3566 -0.5883 -0.2760
  157OSM   H12F17611   1.125   2.966   4.546  0.1268  0.5571 -1.2568
  157OSM   H12G17612   1.152   2.793   4.532 -3.8488  0.2700  0.9700
  157OSM   C13F17613   1.057   2.878   4.356 -0.3853  0.3958 -0.5947
  157OSM   H13F17614   1.094   2.811   4.275  0.6656  0.6621 -0.3497
  157OSM   H13G17615   1.041   2.977   4.306 -2.7383 -0.0891 -0.9310
  157OSM   C14F17616   0.919   2.825   4.401 -0.1759  0.1994  0.3985
  157OSM   H14F17617   0.905   2.861   4.505  0.0652  1.0258  0.1511
  157OSM   H14G17618   0.935   2.718   4.426  1.1191  0.6791  1.7950
  157OSM   C15F17619   0.798   2.847   4.300 -0.8864 -0.0261  0.4348
  157OSM   H15F17620   0.788   2.957   4.285 -0.7025  0.5933  4.0076
  157OSM   H15G17621   0.701   2.813   4.342 -0.2137  0.3544  2.4050
  157OSM   C16F17622   0.834   2.775   4.165 -0.5117  0.2147  0.2317
  157OSM   H16F17623   0.854   2.669   4.193  1.1763  0.1371 -1.1100
  157OSM   H16G17624   0.926   2.819   4.122 -0.8379  1.6528  0.9483
  157OSM   C17F17625   0.720   2.778   4.062 -0.1038  0.4665 -0.7296
  157OSM   H17F17626   0.630   2.799   4.123  1.2971 -0.8630  2.0272
  157OSM   H17G17627   0.709   2.681   4.008  3.0714 -1.0660  1.0282
  157OSM   C18F17628   0.749   2.885   3.957 -0.1687  0.1891 -0.6242
  157OSM   H18F17629   0.654   2.900   3.902  0.3840 -1.8384 -2.2498
  157OSM   H18G17630   0.826   2.866   3.879  0.6837  3.3487 -0.6815
  157OSM   H18H17631   0.774   2.974   4.018 -1.1777  1.1600 -1.5888
  158OSM      N17632   4.775   3.245   3.680  0.2039 -0.2818  0.1806
  158OSM    C1517633   4.714   3.110   3.648 -0.5586 -0.2459  0.2957
  158OSM   H15A17634   4.767   3.053   3.573 -1.8991  0.0875 -0.9330
  158OSM   H15B17635   4.613   3.123   3.613 -0.2932  0.9095 -0.0903
  158OSM   H15C17636   4.709   3.054   3.740 -2.9433 -0.2680  0.2186
  158OSM    C1417637   4.920   3.230   3.690 -0.8495  0.0608  0.3361
  158OSM   H14A17638   4.946   3.167   3.773  0.4138  0.3380  0.1659
  158OSM   H14B17639   4.967   3.326   3.705  0.3293 -0.3313 -0.6736
  158OSM   H14C17640   4.963   3.198   3.596  0.1605  1.0566  0.4443
  158OSM    C1317641   4.752   3.342   3.568 -0.2960 -0.4301  1.1255
  158OSM   H13A17642   4.798   3.438   3.584 -0.2130 -0.4898  1.2455
  158OSM   H13B17643   4.645   3.357   3.567 -0.3136 -0.5771  0.7881
  158OSM   H13C17644   4.777   3.304   3.470 -0.0117  0.6381  0.7743
  158OSM    C1217645   4.729   3.299   3.807 -0.4102 -0.2326 -0.4453
  158OSM   H12A17646   4.757   3.237   3.891 -2.5218  0.7359  1.0805
  158OSM   H12B17647   4.621   3.296   3.804 -0.3903 -0.4268 -1.1490
  158OSM    C1117648   4.761   3.445   3.840  0.3999 -0.5774  0.0635
  158OSM   H11A17649   4.860   3.468   3.795  0.9919 -4.0832 -0.7389
  158OSM   H11B17650   4.762   3.472   3.947 -0.5447  1.0833 -0.3023
  158OSM      P17651   4.516   3.548   3.817 -0.1019  0.1681  0.2809
  158OSM    O1317652   4.453   3.660   3.744 -0.2840  0.0887 -0.3931
  158OSM    O1417653   4.457   3.411   3.803 -0.2947 -1.0905  0.3604
  158OSM    O1117654   4.509   3.584   3.966 -0.1827 -0.5012 -0.1614
  158OSM    O1217655   4.669   3.536   3.775  0.6930  0.2365 -0.1778
  158OSM    C1S17656   4.569   3.709   4.017 -0.1249 -0.0690  0.6819
  158OSM    H1S17657   4.518   3.795   3.970  0.6622 -0.2977 -0.6205
  158OSM    H1T17658   4.676   3.726   3.993  0.0932  1.5408  2.5528
  158OSM     NF17659   4.605   3.861   4.205 -0.1827 -0.1153  0.3488
  158OSM    HNF17660   4.694   3.865   4.248  0.2100  0.6693 -0.5053
  158OSM    C2S17661   4.560   3.725   4.169  0.0477 -0.0130  0.2737
  158OSM    H2S17662   4.454   3.711   4.200  0.2087 -1.8309  0.1273
  158OSM    C3S17663   4.638   3.605   4.228  0.3888 -0.0566  0.5263
  158OSM    H3S17664   4.744   3.620   4.198  0.1443  2.1837  0.6049
  158OSM     O317665   4.591   3.482   4.181 -0.4721  0.0357 -0.2477
  158OSM    HO317666   4.525   3.515   4.119 -0.6291  2.0806  0.9088
  158OSM    C4S17667   4.629   3.622   4.380  0.5035 -0.0596  0.0713
  158OSM    H4S17668   4.677   3.718   4.402  0.3204 -0.4172  2.2983
  158OSM    C5S17669   4.545   3.567   4.466  0.1148 -0.9652  0.6536
  158OSM    H5S17670   4.477   3.487   4.432 -0.4536 -0.3472  0.2997
  158OSM    C6S17671   4.526   3.618   4.610 -0.1165  0.8800 -0.3634
  158OSM    H6S17672   4.563   3.540   4.680 -1.6507  0.3570 -0.1096
  158OSM    H6T17673   4.419   3.636   4.631 -0.3969 -0.5053 -0.4966
  158OSM    C7S17674   4.598   3.749   4.658 -0.6668 -0.0649  0.3494
  158OSM    H7S17675   4.555   3.835   4.602 -0.7389  0.4603  1.1918
  158OSM    H7T17676   4.707   3.729   4.648 -0.8289 -2.1059  1.9518
  158OSM    C8S17677   4.584   3.773   4.814  0.3800 -0.3008  0.2338
  158OSM    H8S17678   4.650   3.859   4.838  2.6087 -1.4864 -1.3937
  158OSM    H8T17679   4.624   3.680   4.859 -2.9390 -1.5605  0.8803
  158OSM    C9S17680   4.439   3.806   4.864 -0.7376 -0.1766 -0.8914
  158OSM    H9S17681   4.372   3.723   4.834 -2.4437  0.6457  0.5067
  158OSM    H9T17682   4.399   3.899   4.819 -2.4016  0.6827  2.0916
  158OSM   C10S17683   4.437   3.827   5.015 -0.4332 -0.1194  0.6372
  158OSM   H10S17684   4.349   3.886   5.049 -0.6120  1.2185 -1.9087
  158OSM   H10T17685   4.533   3.884   5.024  0.0396 -0.3776 -2.0248
  158OSM   C11S17686   4.438   3.697   5.097  0.0569 -0.4446 -0.3567
  158OSM   H11S17687   4.544   3.669   5.111  0.0247 -0.4003 -0.0003
  158OSM   H11T17688   4.383   3.623   5.036 -0.6878 -1.1250  1.0873
  158OSM   C12S17689   4.347   3.680   5.219 -0.1698 -0.7822 -0.2619
  158OSM   H12S17690   4.391   3.746   5.297 -0.4244  1.2157 -1.7429
  158OSM   H12T17691   4.372   3.575   5.248  0.5893 -0.0628  1.8902
  158OSM   C13S17692   4.199   3.707   5.189  0.0933  0.6991  0.5243
  158OSM   H13S17693   4.168   3.653   5.096  0.9871 -1.5029  1.4329
  158OSM   H13T17694   4.172   3.810   5.159 -0.4069  0.1221 -1.1846
  158OSM   C14S17695   4.104   3.643   5.296  0.5742 -0.5434 -0.0356
  158OSM   H14S17696   4.142   3.544   5.330  0.7595  0.0196  1.4647
  158OSM   H14T17697   3.999   3.634   5.259  0.2437 -0.4982  0.8808
  158OSM   C15S17698   4.107   3.724   5.429 -0.1750  0.0360  0.2256
  158OSM   H15S17699   4.061   3.824   5.416  1.0343  1.0338  2.8844
  158OSM   H15T17700   4.217   3.731   5.447  0.3309 -0.0986 -2.3702
  158OSM   C16S17701   4.035   3.652   5.540 -0.1223 -0.9782 -0.5722
  158OSM   H16S17702   4.094   3.565   5.578 -2.3471 -2.1294  0.4464
  158OSM   H16T17703   3.933   3.619   5.515 -0.5387  0.3691 -0.7375
  158OSM   C17S17704   4.016   3.742   5.668  0.3289 -0.0598  0.2447
  158OSM   H17S17705   3.930   3.807   5.640  0.5683 -0.9591 -2.9522
  158OSM   H17T17706   4.106   3.799   5.700 -1.0304  1.7138  1.1027
  158OSM   C18S17707   3.989   3.664   5.791 -0.2136  0.2503  0.5523
  158OSM   H18S17708   4.079   3.615   5.834 -0.2401  1.2400  1.7946
  158OSM   H18T17709   3.920   3.579   5.770  0.1581  0.0205  0.2403
  158OSM   H18U17710   3.943   3.729   5.868  1.3904  1.9329  0.1512
  158OSM    C1F17711   4.530   3.972   4.183  0.3522  0.3736 -0.4397
  158OSM     OF17712   4.423   3.973   4.131  0.2615  0.1925 -0.0230
  158OSM    C2F17713   4.595   4.110   4.215 -0.0134 -0.1706  0.5485
  158OSM    H2F17714   4.593   4.167   4.119  1.4414  0.2510  0.7469
  158OSM    H2G17715   4.692   4.103   4.268 -0.8990  2.4244  2.7207
  158OSM    C3F17716   4.512   4.194   4.315 -0.2599 -0.1724  0.3644
  158OSM    H3F17717   4.411   4.210   4.273  0.1607  0.9085 -0.2807
  158OSM    H3G17718   4.556   4.296   4.328  0.1702 -0.4671  1.3433
  158OSM    C4F17719   4.505   4.130   4.450 -0.2557  0.1703 -0.6346
  158OSM    H4F17720   4.606   4.097   4.483 -0.3183 -0.4590 -1.0664
  158OSM    H4G17721   4.440   4.041   4.439  0.0982 -0.0256 -1.1528
  158OSM    C5F17722   4.447   4.224   4.549  0.0702  0.0375 -0.2433
  158OSM    H5F17723   4.347   4.258   4.516 -0.2398 -1.5764 -1.0632
  158OSM    H5G17724   4.513   4.313   4.554  1.3939 -0.9598  1.6070
  158OSM    C6F17725   4.442   4.179   4.689 -0.1155  0.0383 -0.1212
  158OSM    H6F17726   4.530   4.115   4.712  1.3563  1.4358 -1.5751
  158OSM    H6G17727   4.351   4.117   4.698 -0.2020  0.1451 -0.2542
  158OSM    C7F17728   4.434   4.293   4.798 -0.3717  0.5012  0.1387
  158OSM    H7F17729   4.432   4.246   4.898 -1.9981  0.6637  0.1979
  158OSM    H7G17730   4.344   4.352   4.771  1.0138  2.0264 -1.4426
  158OSM    C8F17731   4.563   4.378   4.810  0.1329  0.5230 -0.9327
  158OSM    H8F17732   4.600   4.419   4.714  4.0801 -0.1974  0.0928
  158OSM    H8G17733   4.644   4.316   4.854 -1.2675  0.5413  1.8833
  158OSM    C9F17734   4.555   4.506   4.886 -0.7529  0.0075 -0.5392
  158OSM    H9F17735   4.508   4.584   4.823 -1.1921 -1.1770 -1.7240
  158OSM   C10F17736   4.598   4.528   5.012  0.3754  0.3210 -0.6577
  158OSM   H10F17737   4.603   4.622   5.068  0.2898 -0.4879  0.7632
  158OSM   C11F17738   4.647   4.421   5.110  0.6558  0.1893 -0.4047
  158OSM   H11F17739   4.744   4.385   5.070  0.1717  0.5223 -1.9492
  158OSM   H11G17740   4.582   4.331   5.110  2.3820 -1.1325  0.4606
  158OSM   C12F17741   4.650   4.478   5.253  0.5956  0.2612 -0.4648
  158OSM   H12F17742   4.552   4.507   5.295  0.4400 -0.4963 -0.2739
  158OSM   H12G17743   4.715   4.567   5.256 -0.9656  1.4226  0.3151
  158OSM   C13F17744   4.698   4.363   5.348  0.1217 -0.4859  0.5884
  158OSM   H13F17745   4.803   4.331   5.328 -0.2338 -2.5543  1.8132
  158OSM   H13G17746   4.635   4.276   5.321  1.6531 -1.3821 -0.2544
  158OSM   C14F17747   4.680   4.396   5.494  0.1517  0.0720 -0.2700
  158OSM   H14F17748   4.574   4.414   5.519  0.1079 -2.8580  2.2414
  158OSM   H14G17749   4.723   4.495   5.519 -0.7695  0.3326  0.3247
  158OSM   C15F17750   4.740   4.297   5.591  0.3286  0.5093  0.4649
  158OSM   H15F17751   4.849   4.285   5.571  0.1188 -1.0486  0.1482
  158OSM   H15G17752   4.698   4.199   5.561 -1.0526  1.1940  0.0470
  158OSM   C16F17753   4.726   4.342   5.739  1.2778 -0.4538  0.1902
  158OSM   H16F17754   4.617   4.350   5.758  1.5604 -0.1532  1.8277
  158OSM   H16G17755   4.773   4.441   5.754  0.0710  0.3474 -1.0604
  158OSM   C17F17756   4.788   4.235   5.830 -0.8662 -0.3056  0.1229
  158OSM   H17F17757   4.773   4.271   5.933  1.8412 -0.1352  0.5406
  158OSM   H17G17758   4.897   4.241   5.809 -0.7240  1.7800  1.1636
  158OSM   C18F17759   4.736   4.092   5.822  0.1425  0.1825  0.1499
  158OSM   H18F17760   4.625   4.093   5.833  0.0888  2.6262 -0.1915
  158OSM   H18G17761   4.788   4.025   5.893 -0.3180 -1.7047 -1.1868
  158OSM   H18H17762   4.751   4.059   5.717  0.5365  0.2146  0.1945
  159OSM      N17763   0.549   4.414   2.998 -0.2610  0.1484  0.0370
  159OSM    C1517764   0.471   4.320   3.084 -0.0293  0.3059 -0.0278
  159OSM   H15A17765   0.528   4.292   3.171 -2.3743 -0.5141  1.3287
  159OSM   H15B17766   0.421   4.238   3.035 -2.0455  1.2307  0.3561
  159OSM   H15C17767   0.381   4.370   3.117 -1.5814 -0.1801 -3.1539
  159OSM    C1417768   0.648   4.319   2.925 -0.9465 -0.1157  0.4170
  159OSM   H14A17769   0.718   4.371   2.860 -2.0921  0.5401 -0.3374
  159OSM   H14B17770   0.601   4.245   2.862  2.4467 -1.9318 -0.2014
  159OSM   H14C17771   0.720   4.285   2.998  0.0033  1.8025  0.4314
  159OSM    C1317772   0.461   4.465   2.893  0.4931 -0.7365  0.5135
  159OSM   H13A17773   0.521   4.499   2.810  1.5662 -0.4682  1.3667
  159OSM   H13B17774   0.404   4.553   2.918 -0.2770 -1.1028  0.0839
  159OSM   H13C17775   0.388   4.401   2.848  0.0984 -1.3448  1.9425
  159OSM    C1217776   0.614   4.517   3.088  0.0090  0.3008 -0.4459
  159OSM   H12A17777   0.550   4.599   3.116 -1.4838 -1.7339  2.7351
  159OSM   H12B17778   0.690   4.570   3.032  1.1568  1.5371  2.0852
  159OSM    C1117779   0.698   4.470   3.206 -0.4874  0.2032 -0.3047
  159OSM   H11A17780   0.646   4.394   3.268 -0.0185 -0.5046 -0.7496
  159OSM   H11B17781   0.729   4.555   3.270  1.3678 -0.2190 -0.5632
  159OSM      P17782   0.891   4.292   3.209 -0.0234  0.6144 -0.1704
  159OSM    O1317783   0.815   4.175   3.155 -0.8634 -0.0611 -0.1330
  159OSM    O1417784   1.034   4.294   3.177  0.1465 -0.4675  0.0994
  159OSM    O1117785   0.866   4.287   3.369  0.3411  0.2462  0.7674
  159OSM    O1217786   0.822   4.420   3.153 -0.3543  0.3456 -0.7221
  159OSM    C1S17787   0.954   4.361   3.453  0.2378 -0.3723 -0.1441
  159OSM    H1S17788   0.932   4.470   3.448  1.5772  0.0343  1.6775
  159OSM    H1T17789   1.060   4.348   3.419  1.1591  2.1448  1.4824
  159OSM     NF17790   0.975   4.437   3.690 -0.1222  0.1003 -0.1699
  159OSM    HNF17791   1.054   4.451   3.749 -0.5087  1.0302  0.1449
  159OSM    C2S17792   0.949   4.323   3.601 -0.2146  0.3703  0.1555
  159OSM    H2S17793   0.846   4.291   3.624  0.2925 -0.7992  0.8703
  159OSM    C3S17794   1.055   4.206   3.620  1.0709  0.3125 -0.0037
  159OSM    H3S17795   1.149   4.254   3.587  0.6458  0.0431 -1.6979
  159OSM     O317796   1.032   4.102   3.527 -0.0894  0.0749 -0.1764
  159OSM    HO317797   0.970   4.135   3.462  0.1158  0.7358 -0.0374
  159OSM    C4S17798   1.061   4.163   3.766  0.0516 -0.0993 -0.4778
  159OSM    H4S17799   1.135   4.222   3.822  0.6912  0.0457 -1.4515
  159OSM    C5S17800   0.983   4.073   3.833 -0.0132  0.6477 -0.2063
  159OSM    H5S17801   0.897   4.026   3.782  0.6191 -1.0633  0.2344
  159OSM    C6S17802   0.988   4.036   3.979 -0.1777  0.1637  0.4829
  159OSM    H6S17803   1.063   4.083   4.045 -0.2689  0.2975  0.4911
  159OSM    H6T17804   0.995   3.927   3.997 -1.6199 -0.0035  0.2049
  159OSM    C7S17805   0.857   4.079   4.040  0.1046 -0.6527  0.5724
  159OSM    H7S17806   0.768   4.031   3.994 -1.7796  1.6491  1.6211
  159OSM    H7T17807   0.839   4.187   4.018 -0.1939 -0.3970  1.9838
  159OSM    C8S17808   0.851   4.073   4.193 -0.7703 -0.3221 -0.3065
  159OSM    H8S17809   0.891   3.982   4.241 -0.2841 -0.3870 -0.8222
  159OSM    H8T17810   0.744   4.078   4.224 -0.3232  0.3377  1.2225
  159OSM    C9S17811   0.922   4.190   4.271  0.4257 -0.3871 -0.1407
  159OSM    H9S17812   0.894   4.283   4.218 -2.5502 -0.8554  0.4343
  159OSM    H9T17813   1.031   4.176   4.255  0.2141 -0.1097 -2.0243
  159OSM   C10S17814   0.891   4.202   4.425  0.4510  0.9834  0.3629
  159OSM   H10S17815   0.784   4.179   4.443  0.6340 -0.0385  0.2023
  159OSM   H10T17816   0.902   4.310   4.448 -1.2529  1.0885  0.8235
  159OSM   C11S17817   0.990   4.138   4.523 -0.3818  0.0180  0.6403
  159OSM   H11S17818   1.074   4.203   4.555 -1.2736  1.1027  0.8236
  159OSM   H11T17819   1.039   4.051   4.474  1.1556  1.4118 -0.4215
  159OSM   C12S17820   0.914   4.088   4.654  0.5167 -0.4097  0.9658
  159OSM   H12S17821   0.871   3.986   4.641 -1.5412  0.5427 -0.3229
  159OSM   H12T17822   0.826   4.153   4.672 -0.2350 -1.5688  1.6445
  159OSM   C13S17823   0.997   4.082   4.784  0.2637  0.2499  0.3486
  159OSM   H13S17824   1.101   4.060   4.754  0.5569 -3.2314  3.2417
  159OSM   H13T17825   0.978   3.983   4.830 -0.2337  0.8909  1.5582
  159OSM   C14S17826   0.989   4.208   4.879 -0.8175  0.2358  0.2008
  159OSM   H14S17827   0.887   4.226   4.918 -1.2238  2.2124 -1.5929
  159OSM   H14T17828   1.009   4.299   4.818  0.5566  0.2188  0.5937
  159OSM   C15S17829   1.082   4.206   5.003 -0.7863  0.4864  0.4334
  159OSM   H15S17830   1.184   4.186   4.965 -0.1093  1.9601  1.4013
  159OSM   H15T17831   1.050   4.122   5.068  0.0374 -0.3031 -0.1619
  159OSM   C16S17832   1.089   4.338   5.083  0.8029  0.1751 -1.3931
  159OSM   H16S17833   0.984   4.347   5.119  0.4463 -1.2818 -1.9751
  159OSM   H16T17834   1.126   4.423   5.022  0.9890  1.2942  0.2205
  159OSM   C17S17835   1.187   4.318   5.200  0.5196  0.8392  0.2277
  159OSM   H17S17836   1.287   4.294   5.159 -1.4386 -1.5459 -3.8699
  159OSM   H17T17837   1.147   4.229   5.254 -2.4696  1.8445 -0.1104
  159OSM   C18S17838   1.208   4.429   5.303 -0.6546  0.3421 -0.4157
  159OSM   H18S17839   1.117   4.493   5.311 -0.8019 -0.0698  2.3674
  159OSM   H18T17840   1.295   4.494   5.282  1.0813 -1.5072  0.6432
  159OSM   H18U17841   1.218   4.395   5.409 -0.0419  2.0549  0.1109
  159OSM    C1F17842   0.879   4.527   3.704 -0.0162 -0.3865  0.1213
  159OSM     OF17843   0.779   4.522   3.628  0.0812 -0.2072  0.0276
  159OSM    C2F17844   0.896   4.637   3.806 -0.5158  0.3999  0.5141
  159OSM    H2F17845   0.909   4.734   3.754  2.2723 -0.1955 -0.0634
  159OSM    H2G17846   0.976   4.613   3.880 -0.2088  2.8489  1.0368
  159OSM    C3F17847   0.768   4.634   3.893  0.1691 -0.3307 -0.2522
  159OSM    H3F17848   0.673   4.647   3.837  0.2386  1.2487 -0.0570
  159OSM    H3G17849   0.776   4.716   3.968  1.2699  0.8170 -1.5451
  159OSM    C4F17850   0.759   4.495   3.961  0.3653 -0.7572  0.6540
  159OSM    H4F17851   0.862   4.469   3.992  1.6434  0.8048 -1.9540
  159OSM    H4G17852   0.705   4.431   3.888 -0.0805 -1.5243  1.6380
  159OSM    C5F17853   0.673   4.499   4.089 -0.2699 -0.1901 -0.3088
  159OSM    H5F17854   0.626   4.401   4.111  1.2021 -0.6455  0.9878
  159OSM    H5G17855   0.591   4.571   4.065  0.1493 -0.1917 -1.8469
  159OSM    C6F17856   0.753   4.557   4.208 -0.1937 -0.1327 -0.1694
  159OSM    H6F17857   0.808   4.642   4.164  1.7246 -2.1203 -1.7896
  159OSM    H6G17858   0.840   4.491   4.225 -0.0033 -0.5873 -2.5655
  159OSM    C7F17859   0.652   4.603   4.315  0.5132  0.4067 -0.0646
  159OSM    H7F17860   0.558   4.639   4.267 -1.5887 -1.1297  2.6159
  159OSM    H7G17861   0.687   4.691   4.374  0.6986 -1.5512  2.9835
  159OSM    C8F17862   0.624   4.488   4.412  0.6413  0.4247 -0.3609
  159OSM    H8F17863   0.723   4.465   4.457  0.5255 -0.2731 -0.4578
  159OSM    H8G17864   0.603   4.393   4.359 -0.6998  0.1777  0.5831
  159OSM    C9F17865   0.511   4.506   4.508 -0.3209  0.3736  0.1604
  159OSM    H9F17866   0.418   4.544   4.463 -0.5599 -1.4271 -0.9713
  159OSM   C10F17867   0.515   4.496   4.640 -0.3537 -0.1866  0.2038
  159OSM   H10F17868   0.426   4.510   4.702 -0.0418 -1.1147  0.8935
  159OSM   C11F17869   0.642   4.457   4.714 -0.4902  0.0070  0.2700
  159OSM   H11F17870   0.683   4.548   4.763  0.6232  0.8558 -2.0770
  159OSM   H11G17871   0.729   4.410   4.664  0.0558  0.8911  0.3687
  159OSM   C12F17872   0.612   4.364   4.830  0.4480 -0.4744  0.1169
  159OSM   H12F17873   0.710   4.349   4.879  0.6005 -1.5783 -0.4961
  159OSM   H12G17874   0.571   4.269   4.791 -0.3089  0.5169 -1.6643
  159OSM   C13F17875   0.522   4.409   4.943  0.4183 -0.3445 -0.7037
  159OSM   H13F17876   0.415   4.410   4.913 -0.1124 -0.1256  1.0346
  159OSM   H13G17877   0.542   4.514   4.973 -0.2467 -0.3328 -0.2670
  159OSM   C14F17878   0.543   4.304   5.057 -0.4886  0.9064  0.1207
  159OSM   H14F17879   0.652   4.302   5.081  0.0156 -0.6543 -2.0535
  159OSM   H14G17880   0.513   4.202   5.026 -0.6272  0.8779  0.3463
  159OSM   C15F17881   0.470   4.353   5.184 -0.0059  0.3165  0.3660
  159OSM   H15F17882   0.371   4.306   5.199 -0.2627  0.4529 -0.7963
  159OSM   H15G17883   0.455   4.462   5.172 -2.5652 -0.1066 -1.1460
  159OSM   C16F17884   0.551   4.328   5.319 -0.0197 -0.2596 -0.6608
  159OSM   H16F17885   0.630   4.406   5.316  0.3003 -0.5761 -0.5226
  159OSM   H16G17886   0.585   4.223   5.302  1.5801  0.2178 -0.5676
  159OSM   C17F17887   0.460   4.345   5.446  0.2966 -0.2791  0.4204
  159OSM   H17F17888   0.381   4.423   5.440 -0.4975 -1.1541 -0.9436
  159OSM   H17G17889   0.531   4.392   5.517 -1.2311  1.6227  0.7920
  159OSM   C18F17890   0.397   4.214   5.510 -0.5626  1.0694 -0.1683
  159OSM   H18F17891   0.393   4.139   5.429 -2.1425  0.3873  0.4891
  159OSM   H18G17892   0.297   4.228   5.557 -0.2950 -4.9615  3.2572
  159OSM   H18H17893   0.467   4.174   5.587 -1.0711  0.3699 -0.0617
  160OSM      N17894   4.174   5.149   3.484 -0.8131  0.3224 -0.1532
  160OSM    C1517895   4.259   5.027   3.461 -0.5305 -0.9753 -0.7144
  160OSM   H15A17896   4.335   5.020   3.538 -0.8494 -1.1009 -0.4117
  160OSM   H15B17897   4.299   5.023   3.360 -2.3181 -1.2624 -1.4414
  160OSM   H15C17898   4.202   4.936   3.459  1.0135 -2.0120 -3.2410
  160OSM    C1417899   4.269   5.265   3.502  0.1172  0.3575 -0.4156
  160OSM   H14A17900   4.290   5.280   3.607  0.7876 -1.4983 -0.2462
  160OSM   H14B17901   4.237   5.362   3.467  2.9198  1.0873 -1.1703
  160OSM   H14C17902   4.363   5.243   3.454  0.6680  1.2556  0.2173
  160OSM    C1317903   4.080   5.173   3.367  0.0474  0.5298  0.1694
  160OSM   H13A17904   4.123   5.192   3.270 -0.9304 -0.7618 -0.5425
  160OSM   H13B17905   4.036   5.271   3.385  1.9815  1.7169 -1.1957
  160OSM   H13C17906   3.999   5.103   3.358  0.8862 -0.5312  0.6049
  160OSM    C1217907   4.088   5.139   3.604  0.3142 -0.8678  0.5835
  160OSM   H12A17908   4.072   5.234   3.653 -1.1975  0.6036 -2.4955
  160OSM   H12B17909   4.144   5.096   3.686  1.5484 -0.4327 -0.0015
  160OSM    C1117910   3.956   5.062   3.597  1.2106  0.6674 -0.3487
  160OSM   H11A17911   3.961   4.958   3.559 -0.7742  0.1208  0.7244
  160OSM   H11B17912   3.886   5.121   3.533 -0.8057 -1.6661 -0.4533
  160OSM      P17913   3.948   4.950   3.828  0.3918  0.2232 -0.0649
  160OSM    O1317914   3.875   4.833   3.798  0.2965  0.9931  0.0327
  160OSM    O1417915   4.093   4.943   3.819 -0.6121  0.5787  0.1837
  160OSM    O1117916   3.907   5.001   3.975 -0.5275 -0.4392  0.0865
  160OSM    O1217917   3.900   5.062   3.728  0.1697  0.5596 -0.5331
  160OSM    C1S17918   3.865   5.138   3.988  0.4179  0.3826  0.6167
  160OSM    H1S17919   3.767   5.151   3.938  0.0603  0.6394  1.3759
  160OSM    H1T17920   3.938   5.213   3.951 -0.0216  0.6890  0.3715
  160OSM     NF17921   3.791   5.308   4.146 -0.3238  0.6135 -0.7203
  160OSM    HNF17922   3.861   5.369   4.183 -0.1057 -0.0150 -0.0744
  160OSM    C2S17923   3.843   5.177   4.134  0.1552  0.2096 -0.0514
  160OSM    H2S17924   3.757   5.113   4.162 -0.6987  1.0540 -0.7013
  160OSM    C3S17925   3.960   5.142   4.230 -0.0454  0.3113 -0.5737
  160OSM    H3S17926   4.038   5.210   4.190  0.0427 -0.3599 -1.5860
  160OSM     O317927   4.027   5.019   4.211 -0.6373  0.5956  0.0894
  160OSM    HO317928   4.000   5.001   4.121 -0.2517  0.8163 -0.0766
  160OSM    C4S17929   3.926   5.175   4.371  0.0052  0.3821 -0.4971
  160OSM    H4S17930   3.941   5.281   4.397  0.0140  0.5359 -1.1197
  160OSM    C5S17931   3.899   5.087   4.473 -0.7462 -0.2634  0.5853
  160OSM    H5S17932   3.899   4.980   4.449 -1.0637  0.0967 -1.1976
  160OSM    C6S17933   3.873   5.118   4.615  0.5885 -0.4152  0.1051
  160OSM    H6S17934   3.934   5.049   4.678  2.7073  0.4985 -0.8504
  160OSM    H6T17935   3.764   5.105   4.627  0.7935 -0.9591  1.6014
  160OSM    C7S17936   3.922   5.259   4.670  0.1831 -0.4629 -0.0311
  160OSM    H7S17937   3.888   5.340   4.602  2.5116  0.0005 -0.7403
  160OSM    H7T17938   4.032   5.266   4.658 -0.0420  0.6925 -1.7724
  160OSM    C8S17939   3.872   5.291   4.814 -0.2481  0.5193 -0.0736
  160OSM    H8S17940   3.763   5.286   4.832 -0.2418  1.5710  0.3190
  160OSM    H8T17941   3.896   5.398   4.834  0.5581  0.2375  0.5219
  160OSM    C9S17942   3.933   5.192   4.913 -0.4655 -0.4878  0.6948
  160OSM    H9S17943   4.036   5.229   4.929 -0.4277  2.0807 -3.7816
  160OSM    H9T17944   3.933   5.090   4.869  2.6270 -0.6792  0.9437
  160OSM   C10S17945   3.856   5.181   5.047 -0.1380  0.7074  0.4496
  160OSM   H10S17946   3.897   5.098   5.108 -0.5672 -0.3391 -0.6384
  160OSM   H10T17947   3.753   5.155   5.015 -0.0069 -0.4828  0.9395
  160OSM   C11S17948   3.863   5.316   5.117 -0.2396 -0.4328  0.3004
  160OSM   H11S17949   3.803   5.389   5.058 -0.1629  0.2158  1.0090
  160OSM   H11T17950   3.963   5.364   5.122 -0.1574 -0.6711  0.9877
  160OSM   C12S17951   3.803   5.303   5.260  0.2379  0.6521  0.0493
  160OSM   H12S17952   3.852   5.228   5.325 -0.2608 -0.0533 -0.3828
  160OSM   H12T17953   3.698   5.272   5.243  0.8200 -0.9229 -0.9046
  160OSM   C13S17954   3.808   5.439   5.335 -0.5297  0.0772  0.3583
  160OSM   H13S17955   3.759   5.521   5.278  1.3797  1.3236  0.4254
  160OSM   H13T17956   3.915   5.470   5.339 -0.1712 -0.9825 -0.2838
  160OSM   C14S17957   3.748   5.433   5.473 -0.2360  0.3493  0.6198
  160OSM   H14S17958   3.809   5.368   5.539  1.6059  0.3054 -1.0150
  160OSM   H14T17959   3.646   5.387   5.469  0.2696 -0.7267 -0.6864
  160OSM   C15S17960   3.739   5.572   5.539  0.0641  0.4253  0.4338
  160OSM   H15S17961   3.685   5.558   5.635 -0.0856  1.2055  0.4681
  160OSM   H15T17962   3.671   5.635   5.478  1.3392  0.9562 -0.4658
  160OSM   C16S17963   3.880   5.627   5.572 -0.1374  0.3126  0.0887
  160OSM   H16S17964   3.922   5.670   5.478  0.6119 -0.6029 -0.0244
  160OSM   H16T17965   3.945   5.544   5.608  0.4050 -0.4213 -2.3676
  160OSM   C17S17966   3.867   5.730   5.682 -0.4478  0.2690  0.2608
  160OSM   H17S17967   3.806   5.681   5.761  0.0311 -0.1775  0.3590
  160OSM   H17T17968   3.807   5.810   5.634 -0.6978  0.4588  0.8745
  160OSM   C18S17969   3.994   5.790   5.747  0.2507 -0.1305  0.0325
  160OSM   H18S17970   3.971   5.876   5.812 -0.3565 -0.2033 -0.0820
  160OSM   H18T17971   4.060   5.809   5.659 -0.5158  2.6844 -0.0223
  160OSM   H18U17972   4.033   5.719   5.823  1.1123  1.3250  0.9867
  160OSM    C1F17973   3.683   5.352   4.087  0.2249  0.0348 -0.8316
  160OSM     OF17974   3.593   5.272   4.060  0.0108 -0.3381 -0.1402
  160OSM    C2F17975   3.685   5.499   4.068 -0.3349  0.1590  0.9222
  160OSM    H2F17976   3.668   5.516   3.959  0.7681  1.4633  0.9404
  160OSM    H2G17977   3.781   5.541   4.105  0.6935 -1.2483 -0.0470
  160OSM    C3F17978   3.573   5.581   4.144  0.6062  0.0985 -0.1060
  160OSM    H3F17979   3.615   5.590   4.246 -0.9823 -0.3141  0.6181
  160OSM    H3G17980   3.475   5.528   4.146  1.0622 -0.7502  1.7108
  160OSM    C4F17981   3.570   5.723   4.088 -0.0892 -0.2023  0.7707
  160OSM    H4F17982   3.532   5.725   3.983  0.0079  0.5925  0.7455
  160OSM    H4G17983   3.670   5.772   4.091 -0.6338  0.9926  0.0989
  160OSM    C5F17984   3.485   5.817   4.168  0.4633 -0.5592 -0.2654
  160OSM    H5F17985   3.376   5.803   4.151  0.2037  2.0477 -1.3063
  160OSM    H5G17986   3.512   5.920   4.137 -2.0400 -0.4261 -2.3996
  160OSM    C6F17987   3.507   5.828   4.325  0.4174  0.5529 -0.0059
  160OSM    H6F17988   3.615   5.811   4.347  0.3955 -0.2443 -0.4754
  160OSM    H6G17989   3.442   5.746   4.362  0.5566  0.3353 -0.2422
  160OSM    C7F17990   3.447   5.944   4.397  0.3442 -0.0287 -0.2073
  160OSM    H7F17991   3.360   5.975   4.336  0.1621  1.9314  0.9759
  160OSM    H7G17992   3.522   6.026   4.393  0.9482 -0.5526  0.0243
  160OSM    C8F17993   3.404   5.923   4.542  0.4399  0.1057 -0.3088
  160OSM    H8F17994   3.325   5.845   4.536  0.3545  0.2263 -0.7532
  160OSM    H8G17995   3.343   6.010   4.578  0.3565 -0.1588  0.2070
  160OSM    C9F17996   3.509   5.867   4.633 -0.2062  0.4523 -0.2312
  160OSM    H9F17997   3.555   5.772   4.604  2.7459  0.8815  2.5316
  160OSM   C10F17998   3.556   5.933   4.742  0.3559  0.5810 -0.5210
  160OSM   H10F17999   3.627   5.876   4.804 -0.2334  0.3889 -0.0085
  160OSM   C11F18000   3.516   6.066   4.793 -0.2413 -0.2683 -0.0553
  160OSM   H11F18001   3.457   6.115   4.712  0.4251 -0.9433 -0.9790
  160OSM   H11G18002   3.598   6.140   4.808 -1.4055  1.2026 -0.6868
  160OSM   C12F18003   3.425   6.049   4.917 -0.0923  0.2529  0.4439
  160OSM   H12F18004   3.468   5.976   4.988  1.5365  0.3848 -0.3655
  160OSM   H12G18005   3.327   6.005   4.889 -0.0273 -0.1573  0.8483
  160OSM   C13F18006   3.417   6.182   4.984 -0.2657  0.0987 -0.0593
  160OSM   H13F18007   3.371   6.247   4.906 -0.1817  0.3735  0.1184
  160OSM   H13G18008   3.516   6.227   5.005 -0.2458 -0.0997  0.2784
  160OSM   C14F18009   3.338   6.192   5.116 -0.0406  0.2639 -0.2417
  160OSM   H14F18010   3.380   6.135   5.201  2.0814  1.7991 -0.1846
  160OSM   H14G18011   3.230   6.170   5.101 -0.5462  1.1271  1.8062
  160OSM   C15F18012   3.332   6.340   5.168  0.7027 -0.3926  0.1456
  160OSM   H15F18013   3.303   6.399   5.079  0.0579 -2.0562 -0.7874
  160OSM   H15G18014   3.434   6.367   5.202  1.0095 -0.4175 -0.7265
  160OSM   C16F18015   3.234   6.373   5.282  0.3705  0.2156 -0.2289
  160OSM   H16F18016   3.249   6.304   5.368 -0.8084 -0.6321 -0.6623
  160OSM   H16G18017   3.129   6.352   5.250  0.5717 -0.3061 -0.5693
  160OSM   C17F18018   3.237   6.518   5.329 -0.4023  0.3061 -0.3975
  160OSM   H17F18019   3.196   6.587   5.253 -0.8587  0.4698 -0.0033
  160OSM   H17G18020   3.341   6.548   5.355 -0.4657  0.7841 -0.6842
  160OSM   C18F18021   3.138   6.530   5.450  0.2390  0.6414 -0.5701
  160OSM   H18F18022   3.035   6.496   5.427  0.5465 -0.6037 -0.1435
  160OSM   H18G18023   3.136   6.638   5.476 -0.7639  0.0540  2.0317
  160OSM   H18H18024   3.177   6.478   5.540 -0.6219  1.1219  0.0989
  161OSM      N18025   1.623   3.697   3.367 -0.5448  0.0499  0.1542
  161OSM    C1518026   1.544   3.668   3.246 -0.1893 -0.0157 -0.2853
  161OSM   H15A18027   1.560   3.747   3.174  1.5396  0.4591  0.5551
  161OSM   H15B18028   1.441   3.641   3.264  0.3695 -1.6848  0.6352
  161OSM   H15C18029   1.596   3.583   3.204  2.7911  1.4234  0.2202
  161OSM    C1418030   1.766   3.706   3.325 -0.4592  0.3621 -0.3637
  161OSM   H14A18031   1.778   3.772   3.240 -1.8906  1.3869  0.1849
  161OSM   H14B18032   1.816   3.613   3.305  2.9361  2.4316 -2.7037
  161OSM   H14C18033   1.816   3.754   3.408 -1.5763  1.2381 -0.1687
  161OSM    C1318034   1.575   3.829   3.424 -0.6843 -0.0181 -0.4593
  161OSM   H13A18035   1.637   3.861   3.507 -1.5698 -1.5902  0.8548
  161OSM   H13B18036   1.471   3.816   3.449 -0.9335  1.2860 -0.7331
  161OSM   H13C18037   1.588   3.912   3.355 -1.8277  0.7994  0.2853
  161OSM    C1218038   1.611   3.587   3.473  0.6547  0.8179  1.0311
  161OSM   H12A18039   1.512   3.594   3.515 -1.0493 -2.6914 -1.8460
  161OSM   H12B18040   1.679   3.606   3.555  2.2864  0.9619 -0.3003
  161OSM    C1118041   1.635   3.439   3.426  0.6103  0.1676 -0.3290
  161OSM   H11A18042   1.565   3.426   3.341  0.8011 -0.3940 -0.3995
  161OSM   H11B18043   1.592   3.371   3.502 -0.1481  1.5665  0.5418
  161OSM      P18044   1.881   3.395   3.504  0.4667  0.4933 -0.0700
  161OSM    O1318045   1.944   3.260   3.494  0.1921 -0.4939 -0.0754
  161OSM    O1418046   1.972   3.507   3.497 -0.6065 -0.2930  0.3885
  161OSM    O1118047   1.792   3.406   3.635  0.2151 -0.4241 -0.9481
  161OSM    O1218048   1.769   3.413   3.393  0.0051 -0.4304 -0.3304
  161OSM    C1S18049   1.831   3.477   3.749 -0.3552  0.5073  0.2906
  161OSM    H1S18050   1.866   3.581   3.731  0.5609  0.3532  1.0740
  161OSM    H1T18051   1.927   3.430   3.779 -0.7212 -0.3036  0.2026
  161OSM     NF18052   1.811   3.563   3.977 -0.0154 -0.8446  0.7594
  161OSM    HNF18053   1.830   3.513   4.061  0.8226  1.1776  1.8318
  161OSM    C2S18054   1.740   3.484   3.874 -0.0354 -0.2487 -0.0986
  161OSM    H2S18055   1.652   3.537   3.832  0.1842  0.1251 -0.0935
  161OSM    C3S18056   1.699   3.344   3.916 -0.0927 -0.1773  0.1884
  161OSM    H3S18057   1.786   3.290   3.958  0.7500  0.5850 -0.5265
  161OSM     O318058   1.641   3.270   3.815 -0.0730 -0.6132  0.5054
  161OSM    HO318059   1.682   3.305   3.736  0.0702 -1.6564  0.0984
  161OSM    C4S18060   1.601   3.361   4.032 -0.8535  0.6875 -0.5549
  161OSM    H4S18061   1.653   3.347   4.127 -0.0226  0.5372 -1.0210
  161OSM    C5S18062   1.464   3.360   4.027 -0.9722 -0.0330  0.2860
  161OSM    H5S18063   1.411   3.341   3.933  2.9909 -4.2610 -1.5181
  161OSM    C6S18064   1.383   3.351   4.148  0.0410  0.2706  0.0598
  161OSM    H6S18065   1.324   3.258   4.139  2.0253 -1.0967  0.4900
  161OSM    H6T18066   1.321   3.444   4.142  1.8960  1.4645 -2.0723
  161OSM    C7S18067   1.448   3.360   4.290  0.8325  0.2998 -0.1079
  161OSM    H7S18068   1.500   3.459   4.294  0.6518  0.4338 -0.8899
  161OSM    H7T18069   1.520   3.279   4.315 -1.2867 -1.3388  0.9759
  161OSM    C8S18070   1.346   3.354   4.402  0.4419 -0.0150 -0.7138
  161OSM    H8S18071   1.303   3.251   4.398 -1.1677  0.6467 -1.5812
  161OSM    H8T18072   1.263   3.428   4.392 -0.7620 -1.1827  0.2641
  161OSM    C9S18073   1.410   3.370   4.534  0.4464 -0.5283 -0.2574
  161OSM    H9S18074   1.406   3.478   4.560 -0.2450 -0.0713 -2.0792
  161OSM    H9T18075   1.514   3.332   4.532 -0.0077 -2.2000  2.9767
  161OSM   C10S18076   1.331   3.285   4.641  0.7611 -0.3077 -0.5650
  161OSM   H10S18077   1.360   3.179   4.653 -0.4411 -0.3527  3.1300
  161OSM   H10T18078   1.223   3.280   4.617  0.6326 -1.1680  0.1623
  161OSM   C11S18079   1.342   3.358   4.777  0.0750  0.4265  0.0724
  161OSM   H11S18080   1.284   3.454   4.779  0.6024  0.8294  3.9454
  161OSM   H11T18081   1.450   3.382   4.782  0.0963  0.3821 -0.2048
  161OSM   C12S18082   1.291   3.272   4.893 -0.9859 -0.1619 -0.4471
  161OSM   H12S18083   1.370   3.197   4.915 -1.0468 -0.3569 -0.8850
  161OSM   H12T18084   1.201   3.220   4.855  0.6567 -1.2420 -3.1460
  161OSM   C13S18085   1.258   3.353   5.017 -0.3346 -0.0286 -0.0357
  161OSM   H13S18086   1.214   3.288   5.096  0.0054 -0.9595 -0.6022
  161OSM   H13T18087   1.175   3.421   4.985 -1.0773 -0.3061  1.2482
  161OSM   C14S18088   1.373   3.427   5.080 -0.5504  0.6025 -0.7081
  161OSM   H14S18089   1.387   3.525   5.030 -1.0322 -0.6352 -3.4646
  161OSM   H14T18090   1.469   3.377   5.054 -0.9929  0.0171 -1.2617
  161OSM   C15S18091   1.373   3.428   5.235 -0.5041  0.5816  0.6845
  161OSM   H15S18092   1.458   3.494   5.263 -0.0138  0.2511 -0.0058
  161OSM   H15T18093   1.400   3.327   5.272  0.6478 -0.1818 -2.0094
  161OSM   C16S18094   1.241   3.465   5.298 -0.2029 -0.5692  0.3458
  161OSM   H16S18095   1.167   3.386   5.276  0.0211 -0.2024 -1.9064
  161OSM   H16T18096   1.205   3.558   5.248  2.4098  0.1969 -0.3015
  161OSM   C17S18097   1.248   3.493   5.448  0.4468 -0.0847 -0.2959
  161OSM   H17S18098   1.335   3.554   5.476  0.0820  0.7039 -0.8319
  161OSM   H17T18099   1.248   3.392   5.494 -3.2688  0.2061  0.6838
  161OSM   C18S18100   1.127   3.576   5.500 -0.1211 -0.0759 -0.5942
  161OSM   H18S18101   1.033   3.531   5.459  0.0475 -1.7108  0.7068
  161OSM   H18T18102   1.147   3.683   5.481  0.6020 -0.1384 -0.2177
  161OSM   H18U18103   1.120   3.563   5.610  1.3280  1.9210 -0.2293
  161OSM    C1F18104   1.829   3.698   3.964 -0.1728 -0.0953 -0.4923
  161OSM     OF18105   1.786   3.763   3.869 -0.0177  0.5780  0.1631
  161OSM    C2F18106   1.897   3.764   4.084  0.2987  0.3913 -0.4321
  161OSM    H2F18107   2.005   3.739   4.078 -0.3113 -2.6573 -0.6429
  161OSM    H2G18108   1.852   3.728   4.179  1.5306  2.0977  0.8658
  161OSM    C3F18109   1.863   3.913   4.094 -0.2545  0.0789 -0.1911
  161OSM    H3F18110   1.755   3.931   4.106 -0.2372 -0.5802  1.0444
  161OSM    H3G18111   1.898   3.950   3.994  1.1930 -2.9464 -0.9258
  161OSM    C4F18112   1.934   3.985   4.208 -0.2818  0.4702  0.2051
  161OSM    H4F18113   1.942   4.092   4.179  1.5161  0.4224  0.4423
  161OSM    H4G18114   2.034   3.938   4.206 -0.6458 -0.3218  0.1567
  161OSM    C5F18115   1.867   3.966   4.347 -0.0222 -1.0168 -0.3182
  161OSM    H5F18116   1.842   3.862   4.378  1.0750 -0.3605  3.2738
  161OSM    H5G18117   1.780   4.036   4.347  1.5203  1.0195  1.0335
  161OSM    C6F18118   1.956   4.028   4.456  0.1086 -0.1262 -0.8752
  161OSM    H6F18119   1.961   4.135   4.425  4.0029  0.1978  0.3748
  161OSM    H6G18120   2.058   3.985   4.460  0.3559  0.5384  0.4347
  161OSM    C7F18121   1.857   4.029   4.578 -0.4431  0.5498 -0.3162
  161OSM    H7F18122   1.801   3.933   4.571  0.2182  0.2746 -2.7750
  161OSM    H7G18123   1.778   4.106   4.562 -0.8288  0.2549  0.1444
  161OSM    C8F18124   1.927   4.055   4.712  0.3418  0.2204  0.9430
  161OSM    H8F18125   1.841   4.069   4.780 -0.6146  1.6253 -0.5074
  161OSM    H8G18126   1.991   4.146   4.703 -0.4374  0.9497  2.5202
  161OSM    C9F18127   2.007   3.932   4.748 -1.0763  0.5464 -0.1286
  161OSM    H9F18128   2.052   3.872   4.668 -0.4463 -0.3562  0.8798
  161OSM   C10F18129   2.039   3.888   4.875  0.6592  0.7451 -0.6190
  161OSM   H10F18130   2.083   3.787   4.885 -0.5422  0.3902  1.7838
  161OSM   C11F18131   1.976   3.945   5.008 -0.1394 -0.1201  0.5582
  161OSM   H11F18132   1.884   3.892   5.041 -0.5336 -0.9840 -1.7399
  161OSM   H11G18133   1.962   4.052   4.984  0.2283 -0.3942 -0.9984
  161OSM   C12F18134   2.085   3.940   5.116  0.8415 -0.7047 -0.0376
  161OSM   H12F18135   2.174   3.982   5.066  1.7415 -0.3883  1.7742
  161OSM   H12G18136   2.094   3.836   5.153 -3.0674 -1.2652 -0.1476
  161OSM   C13F18137   2.056   4.020   5.237 -0.3639 -0.4051  0.4910
  161OSM   H13F18138   1.975   3.973   5.297 -0.3156 -0.6290  0.3809
  161OSM   H13G18139   2.018   4.123   5.220  1.0810  0.5743  2.7005
  161OSM   C14F18140   2.185   4.011   5.324 -0.6564 -0.1955 -0.5663
  161OSM   H14F18141   2.270   4.034   5.257 -0.7120  0.2058 -0.4978
  161OSM   H14G18142   2.207   3.910   5.365 -2.3689  0.0466  1.1147
  161OSM   C15F18143   2.177   4.113   5.443 -0.1321  0.4932 -1.0841
  161OSM   H15F18144   2.068   4.136   5.453 -0.5372 -1.6581 -0.1535
  161OSM   H15G18145   2.217   4.213   5.413 -0.0880  1.0276  0.6663
  161OSM   C16F18146   2.233   4.069   5.577 -0.2329  0.5948 -0.4609
  161OSM   H16F18147   2.202   4.139   5.657 -0.2850 -0.1486  0.1872
  161OSM   H16G18148   2.343   4.061   5.568 -0.2485  1.0735 -1.1699
  161OSM   C17F18149   2.185   3.929   5.636 -0.0494  0.6643 -0.0235
  161OSM   H17F18150   2.226   3.925   5.740 -2.6600 -1.4440  1.0474
  161OSM   H17G18151   2.237   3.840   5.594  0.4343 -0.5067  2.7980
  161OSM   C18F18152   2.037   3.897   5.646  0.1145  0.1439  0.4405
  161OSM   H18F18153   2.026   3.815   5.720 -1.9064  1.1845  1.3908
  161OSM   H18G18154   1.997   3.855   5.552  1.9084 -0.7772  0.0435
  161OSM   H18H18155   1.970   3.982   5.673 -1.1464 -0.7558  0.2726
  162OSM      N18156   2.815   4.384   3.344  0.9573 -0.1400 -0.1246
  162OSM    C1518157   2.958   4.384   3.295  0.2473  0.6750  0.3445
  162OSM   H15A18158   2.991   4.478   3.255  1.4669  1.3195  2.6702
  162OSM   H15B18159   2.958   4.308   3.217 -1.4176  2.9649 -2.0488
  162OSM   H15C18160   3.023   4.351   3.375 -0.1952 -0.4389  0.2683
  162OSM    C1418161   2.798   4.507   3.429  0.7644 -0.2761 -0.2970
  162OSM   H14A18162   2.811   4.599   3.375 -1.9537 -0.6111 -1.7375
  162OSM   H14B18163   2.864   4.492   3.513  0.3230 -0.3277  0.0431
  162OSM   H14C18164   2.694   4.518   3.458  1.0610 -0.9021  1.1004
  162OSM    C1318165   2.713   4.393   3.233 -0.2830 -0.1188 -0.0917
  162OSM   H13A18166   2.721   4.305   3.171  0.4775 -2.4483  3.0423
  162OSM   H13B18167   2.732   4.479   3.171 -0.3402 -0.8066 -1.0840
  162OSM   H13C18168   2.610   4.386   3.266 -0.5295 -2.3238 -1.1501
  162OSM    C1218169   2.784   4.262   3.425 -0.3116  0.3248  0.2903
  162OSM   H12A18170   2.848   4.268   3.511 -2.1798 -0.1974  1.7906
  162OSM   H12B18171   2.823   4.182   3.364  1.5712 -1.3599  3.4476
  162OSM    C1118172   2.643   4.242   3.479  0.1897 -0.2213 -0.0449
  162OSM   H11A18173   2.634   4.145   3.532  0.3129 -0.3771 -0.3087
  162OSM   H11B18174   2.584   4.234   3.385  1.3295  1.4352 -0.9566
  162OSM      P18175   2.474   4.324   3.662  0.1190  0.0511 -0.1181
  162OSM    O1318176   2.382   4.431   3.623  0.3007 -0.2457  0.4435
  162OSM    O1418177   2.432   4.183   3.646 -0.2788 -0.2908  0.3913
  162OSM    O1118178   2.529   4.351   3.810  0.2145 -0.0621 -0.1737
  162OSM    O1218179   2.598   4.352   3.563  0.5902  0.1130  0.5412
  162OSM    C1S18180   2.668   4.327   3.839 -0.4144 -0.5717 -0.3385
  162OSM    H1S18181   2.704   4.230   3.800  1.5307 -0.0067 -0.0858
  162OSM    H1T18182   2.688   4.329   3.949  0.9777  3.1480 -0.5043
  162OSM     NF18183   2.902   4.406   3.885 -0.6381 -0.4530  0.1218
  162OSM    HNF18184   2.935   4.460   3.962 -0.0052  0.8318 -1.0142
  162OSM    C2S18185   2.785   4.438   3.810 -0.4448  0.4411  0.0327
  162OSM    H2S18186   2.805   4.426   3.701 -0.0320  1.1508  0.0229
  162OSM    C3S18187   2.739   4.583   3.830  0.1109 -0.4215 -0.2858
  162OSM    H3S18188   2.665   4.590   3.747  0.0450 -1.0440 -0.2867
  162OSM     O318189   2.835   4.677   3.794 -0.2208  0.2375 -0.3927
  162OSM    HO318190   2.906   4.632   3.746 -0.3212  2.1837 -2.5270
  162OSM    C4S18191   2.684   4.627   3.967 -0.0322  0.3136  0.6460
  162OSM    H4S18192   2.756   4.624   4.050 -0.8069  1.6832  1.4074
  162OSM    C5S18193   2.552   4.645   3.984 -0.4004  0.0029 -0.5707
  162OSM    H5S18194   2.480   4.637   3.901  0.3345  0.2798 -1.2520
  162OSM    C6S18195   2.480   4.657   4.119 -0.0864 -0.7004 -0.3459
  162OSM    H6S18196   2.412   4.572   4.140 -1.3289  0.6714  1.4801
  162OSM    H6T18197   2.408   4.739   4.097 -0.3633 -0.9075 -0.2129
  162OSM    C7S18198   2.565   4.702   4.241 -0.1623 -0.3427 -0.3603
  162OSM    H7S18199   2.624   4.796   4.236  1.5371 -1.3271  0.3549
  162OSM    H7T18200   2.644   4.626   4.263 -1.1913 -2.5321 -3.4567
  162OSM    C8S18201   2.489   4.726   4.375  0.2220  0.8596 -0.3841
  162OSM    H8S18202   2.441   4.629   4.401  1.8307  0.0486 -0.2861
  162OSM    H8T18203   2.413   4.802   4.345  0.2128 -0.2688 -3.6216
  162OSM    C9S18204   2.564   4.765   4.507  0.3194  0.5205  0.4323
  162OSM    H9S18205   2.620   4.861   4.512  0.4710  0.5403 -1.2152
  162OSM    H9T18206   2.644   4.687   4.514 -0.3651 -0.1703  0.7044
  162OSM   C10S18207   2.473   4.756   4.635  0.3996 -1.0644  0.6404
  162OSM   H10S18208   2.419   4.658   4.636 -2.5111  0.3621 -1.6507
  162OSM   H10T18209   2.399   4.838   4.630  3.0033  1.3900  0.2377
  162OSM   C11S18210   2.547   4.772   4.770  0.1525  0.4003 -0.4289
  162OSM   H11S18211   2.639   4.712   4.758  1.9298  3.4347 -4.1810
  162OSM   H11T18212   2.484   4.725   4.849  0.3497 -0.6285 -0.8706
  162OSM   C12S18213   2.593   4.907   4.794  0.7982  0.4312 -0.0413
  162OSM   H12S18214   2.507   4.977   4.786  0.2870 -0.3545 -1.7398
  162OSM   H12T18215   2.652   4.934   4.704  1.0246  1.9832  0.5405
  162OSM   C13S18216   2.662   4.920   4.928  0.2295 -0.1732  0.1859
  162OSM   H13S18217   2.713   5.018   4.934  0.4001 -0.3543  2.5832
  162OSM   H13T18218   2.732   4.834   4.931  1.3988  0.5390 -3.0738
  162OSM   C14S18219   2.570   4.903   5.051  0.3582  0.5646 -0.6041
  162OSM   H14S18220   2.533   4.798   5.046  1.5659  0.0204  1.0965
  162OSM   H14T18221   2.483   4.973   5.051  1.3926  1.9444  1.3348
  162OSM   C15S18222   2.654   4.922   5.177  0.6306 -0.4391  0.4005
  162OSM   H15S18223   2.711   5.017   5.178 -1.5116  0.9249  2.4707
  162OSM   H15T18224   2.729   4.840   5.172  1.6574  0.4472  1.0966
  162OSM   C16S18225   2.574   4.914   5.307  0.3014 -0.3319  0.5174
  162OSM   H16S18226   2.586   4.815   5.356  0.6027  0.6260  2.5136
  162OSM   H16T18227   2.468   4.939   5.284  0.2259  0.6211  1.7564
  162OSM   C17S18228   2.625   5.024   5.408 -0.4329  0.1299  0.5361
  162OSM   H17S18229   2.736   5.020   5.411 -0.4662 -0.7142  0.9874
  162OSM   H17T18230   2.599   4.984   5.508 -0.4128  0.4293  0.6614
  162OSM   C18S18231   2.562   5.166   5.393 -0.2153 -0.0475  0.1238
  162OSM   H18S18232   2.451   5.161   5.398 -0.1578  0.0547  2.7113
  162OSM   H18T18233   2.593   5.215   5.298 -0.0590  0.6069  0.5060
  162OSM   H18U18234   2.584   5.240   5.473 -0.3904 -1.4372  1.5100
  162OSM    C1F18235   2.968   4.285   3.880  0.0994 -0.0518  0.7994
  162OSM     OF18236   2.954   4.215   3.779  0.2831  0.7124  0.1241
  162OSM    C2F18237   3.036   4.234   4.006  0.2905 -0.5440 -0.4347
  162OSM    H2F18238   3.137   4.194   3.981  0.1737 -2.3294  1.6625
  162OSM    H2G18239   2.971   4.148   4.030 -0.1644 -0.0246  0.2407
  162OSM    C3F18240   3.033   4.320   4.140 -0.0298 -1.0007  0.5581
  162OSM    H3F18241   2.928   4.342   4.167  0.2127  0.9524  0.0046
  162OSM    H3G18242   3.068   4.423   4.118 -1.4594 -0.2567  1.5823
  162OSM    C4F18243   3.108   4.266   4.262  0.0828  0.7408 -0.6697
  162OSM    H4F18244   3.208   4.236   4.223  0.1078 -1.4169  0.8984
  162OSM    H4G18245   3.062   4.169   4.290 -0.6244 -0.3774 -4.9194
  162OSM    C5F18246   3.130   4.372   4.379  0.5839  0.0996 -0.1025
  162OSM    H5F18247   3.182   4.455   4.328 -0.0676  0.6183  0.0557
  162OSM    H5G18248   3.193   4.318   4.453 -0.6972 -0.0560  0.9157
  162OSM    C6F18249   3.002   4.426   4.448 -0.2968  0.6738  0.0009
  162OSM    H6F18250   2.961   4.341   4.506 -1.5878  1.8757  0.9200
  162OSM    H6G18251   2.928   4.449   4.369  0.4683 -3.1328 -2.0589
  162OSM    C7F18252   3.015   4.542   4.542  0.1041  0.4293  0.7887
  162OSM    H7F18253   2.911   4.569   4.571  0.1409  0.7123  0.6547
  162OSM    H7G18254   3.060   4.628   4.488  3.5355 -0.4449  1.9790
  162OSM    C8F18255   3.097   4.517   4.670  0.4139  0.5803  0.1618
  162OSM    H8F18256   3.112   4.616   4.718 -0.2496  1.7638 -1.9740
  162OSM    H8G18257   3.195   4.488   4.628 -0.9859  0.5180 -3.3877
  162OSM    C9F18258   3.045   4.415   4.777 -0.3995 -0.1866 -0.3776
  162OSM    H9F18259   3.040   4.312   4.737 -0.6687  0.3566 -1.7785
  162OSM   C10F18260   3.018   4.442   4.906  0.3941  0.5423  0.9104
  162OSM   H10F18261   2.997   4.359   4.975  1.0774  0.0740  0.5791
  162OSM   C11F18262   3.013   4.580   4.966  0.4160 -0.4540  0.0472
  162OSM   H11F18263   2.922   4.580   5.030 -0.3671 -3.2727 -0.9226
  162OSM   H11G18264   3.003   4.655   4.885 -0.7026 -1.4851 -0.8254
  162OSM   C12F18265   3.153   4.603   5.029  0.7878  0.1741  0.0596
  162OSM   H12F18266   3.157   4.712   5.045 -0.9419  0.1732  0.5987
  162OSM   H12G18267   3.245   4.566   4.977  0.9524 -0.2276  0.6194
  162OSM   C13F18268   3.161   4.540   5.171 -0.4886 -0.5608  1.1033
  162OSM   H13F18269   3.258   4.569   5.217  0.5043  0.0437 -1.1871
  162OSM   H13G18270   3.156   4.435   5.136 -0.4431  0.4618 -2.3854
  162OSM   C14F18271   3.047   4.572   5.267  0.1061  0.5259 -0.3939
  162OSM   H14F18272   3.054   4.482   5.332 -0.2250  0.2752 -0.7047
  162OSM   H14G18273   2.945   4.564   5.224  0.9361 -0.6335 -2.2560
  162OSM   C15F18274   3.079   4.692   5.354 -0.7607  0.6259  0.1788
  162OSM   H15F18275   3.129   4.768   5.289 -0.9979  0.0680 -0.6764
  162OSM   H15G18276   3.148   4.652   5.431 -0.6036 -0.1274 -0.3468
  162OSM   C16F18277   2.950   4.756   5.412 -0.6763  0.3259  0.1789
  162OSM   H16F18278   2.867   4.769   5.340 -0.1890  0.5482 -0.3505
  162OSM   H16G18279   2.981   4.859   5.438 -1.3892  1.1337 -2.0014
  162OSM   C17F18280   2.897   4.690   5.538  0.3872 -0.0060 -0.0799
  162OSM   H17F18281   2.980   4.676   5.611  0.0973 -0.2072  0.2143
  162OSM   H17G18282   2.861   4.586   5.521  0.4426  0.3162 -2.6458
  162OSM   C18F18283   2.785   4.764   5.604  0.6425  0.1718  0.3069
  162OSM   H18F18284   2.762   4.738   5.710  0.0952  0.6895  0.3190
  162OSM   H18G18285   2.688   4.731   5.562  0.3499 -1.1350  1.8842
  162OSM   H18H18286   2.792   4.874   5.604 -1.6057  0.3646 -1.5083
  163OSM      N18287   1.063   4.845   3.368  0.8148  0.2553 -0.3126
  163OSM    C1518288   0.995   4.874   3.502 -0.6870  0.6538 -0.0892
  163OSM   H15A18289   0.913   4.807   3.524 -0.8083  0.1943 -1.7360
  163OSM   H15B18290   0.953   4.973   3.498 -0.0203  0.9131 -1.0446
  163OSM   H15C18291   1.070   4.873   3.579 -0.8345 -0.6542  0.0662
  163OSM    C1418292   1.093   4.698   3.373  0.3496  0.1339  0.3817
  163OSM   H14A18293   1.137   4.655   3.284 -2.6371 -0.0288 -1.1167
  163OSM   H14B18294   0.998   4.649   3.384  1.0502 -1.6204 -1.0137
  163OSM   H14C18295   1.163   4.674   3.452 -0.3602  0.6389  1.1777
  163OSM    C1318296   0.951   4.863   3.272 -0.0196  0.2906 -0.3032
  163OSM   H13A18297   0.978   4.825   3.175  2.9267 -0.3628  0.6770
  163OSM   H13B18298   0.923   4.968   3.265 -2.6249 -0.0954  2.1391
  163OSM   H13C18299   0.862   4.814   3.309 -1.0995  1.3799 -1.3702
  163OSM    C1218300   1.187   4.934   3.340  0.0678  0.0943 -0.1598
  163OSM   H12A18301   1.149   5.030   3.310 -0.8373 -0.2229 -0.0639
  163OSM   H12B18302   1.238   4.896   3.253  0.8836  0.5399  0.1199
  163OSM    C1118303   1.286   4.959   3.463  0.1682  0.6445  0.3267
  163OSM   H11A18304   1.226   5.008   3.543  0.3447 -0.8124  1.4007
  163OSM   H11B18305   1.368   5.033   3.450  0.2108  0.3693 -1.1384
  163OSM      P18306   1.445   4.752   3.453 -0.2152 -0.2623 -0.2149
  163OSM    O1318307   1.464   4.619   3.517 -0.2378 -0.3595  0.4240
  163OSM    O1418308   1.450   4.753   3.307  0.4855  0.0171  0.0063
  163OSM    O1118309   1.566   4.843   3.504  0.1582 -0.3199  0.6826
  163OSM    O1218310   1.318   4.828   3.513  0.0812 -0.2325  0.4061
  163OSM    C1S18311   1.580   4.905   3.633  0.3340 -0.1934 -0.2533
  163OSM    H1S18312   1.482   4.940   3.671  0.0032  0.5397 -1.7098
  163OSM    H1T18313   1.632   5.004   3.626 -0.4741  0.3369  0.9200
  163OSM     NF18314   1.647   4.860   3.864  0.3858  0.3234 -0.0788
  163OSM    HNF18315   1.740   4.858   3.900  0.0849 -1.2040  0.7136
  163OSM    C2S18316   1.639   4.800   3.731  0.3798  0.1947 -0.0105
  163OSM    H2S18317   1.566   4.716   3.727  0.2985  0.2581  0.1285
  163OSM    C3S18318   1.766   4.730   3.688  0.4696  0.0823  0.7282
  163OSM    H3S18319   1.844   4.810   3.691  0.4121  0.2821 -1.4652
  163OSM     O318320   1.777   4.686   3.551 -0.0501 -0.2636 -0.5466
  163OSM    HO318321   1.725   4.750   3.503 -0.3029  0.4291  0.6198
  163OSM    C4S18322   1.814   4.631   3.785  0.4087 -0.2363 -0.5348
  163OSM    H4S18323   1.859   4.657   3.882 -2.5239  0.9113  0.6226
  163OSM    C5S18324   1.803   4.495   3.782 -0.2646 -0.6603  1.0550
  163OSM    H5S18325   1.735   4.455   3.706  1.6335 -1.2148 -0.4146
  163OSM    C6S18326   1.847   4.404   3.888  0.6309 -0.1719  0.2336
  163OSM    H6S18327   1.943   4.356   3.859  0.8259  0.6675 -0.5576
  163OSM    H6T18328   1.765   4.329   3.895 -0.6842  1.3478  1.8940
  163OSM    C7S18329   1.848   4.464   4.029 -0.0435  0.2722  0.3510
  163OSM    H7S18330   1.744   4.498   4.050 -1.2480 -2.4872 -0.6820
  163OSM    H7T18331   1.918   4.550   4.034  0.9573 -0.5600  1.0623
  163OSM    C8S18332   1.891   4.368   4.135 -0.1080  0.2501 -0.2148
  163OSM    H8S18333   1.963   4.296   4.089 -1.3478 -0.0975 -1.6777
  163OSM    H8T18334   1.816   4.293   4.169  1.7194 -1.6543 -0.0988
  163OSM    C9S18335   1.942   4.436   4.257  0.2836 -0.3253 -0.0002
  163OSM    H9S18336   1.877   4.417   4.345  2.2126 -0.2198  1.5112
  163OSM    H9T18337   1.940   4.544   4.232  2.4775  0.1989  1.7353
  163OSM   C10S18338   2.086   4.394   4.303 -0.1337 -0.4395  0.0073
  163OSM   H10S18339   2.157   4.420   4.221 -0.9280 -1.2602 -0.9726
  163OSM   H10T18340   2.106   4.289   4.334 -0.9185 -0.7954 -0.6390
  163OSM   C11S18341   2.120   4.480   4.428 -0.7329  0.3598  0.3629
  163OSM   H11S18342   2.094   4.586   4.409 -2.5503 -0.3534 -1.6239
  163OSM   H11T18343   2.231   4.476   4.431 -0.6713  0.0860 -1.2908
  163OSM   C12S18344   2.060   4.426   4.550  0.1813  0.2536 -0.1539
  163OSM   H12S18345   2.076   4.316   4.553 -0.6639  0.1310  0.2122
  163OSM   H12T18346   1.950   4.441   4.547  0.2302  0.7391  0.4037
  163OSM   C13S18347   2.108   4.494   4.684  0.2908 -0.2331  0.1435
  163OSM   H13S18348   2.088   4.600   4.660 -1.3993 -0.8054 -1.2021
  163OSM   H13T18349   2.218   4.483   4.695  0.6511  2.2473 -0.4959
  163OSM   C14S18350   2.027   4.443   4.805 -0.1208 -0.3036  0.0027
  163OSM   H14S18351   2.023   4.332   4.806  1.0228 -0.3631 -0.6846
  163OSM   H14T18352   1.922   4.473   4.787  0.0310 -0.8391 -1.9502
  163OSM   C15S18353   2.076   4.484   4.941 -0.2375  0.3304 -0.1914
  163OSM   H15S18354   2.054   4.592   4.952 -0.5101  0.0478  2.7261
  163OSM   H15T18355   2.186   4.473   4.941 -0.2629 -0.0096  0.6250
  163OSM   C16S18356   2.008   4.407   5.050 -0.3434 -0.2381 -0.2437
  163OSM   H16S18357   2.017   4.301   5.018 -0.2012 -0.0786 -0.7457
  163OSM   H16T18358   1.901   4.425   5.070 -0.2222  0.8631 -0.5287
  163OSM   C17S18359   2.079   4.402   5.184  0.8780  0.4005  0.0062
  163OSM   H17S18360   2.163   4.329   5.176  1.1557  0.8362 -1.2540
  163OSM   H17T18361   2.001   4.367   5.255 -1.5621  2.4033 -1.5417
  163OSM   C18S18362   2.143   4.531   5.234 -0.0187 -0.2493  0.2335
  163OSM   H18S18363   2.218   4.577   5.165 -0.7362  0.9946  0.2426
  163OSM   H18T18364   2.194   4.504   5.328  1.4429 -2.8242 -1.2107
  163OSM   H18U18365   2.070   4.609   5.267  1.0132  0.7757  0.1721
  163OSM    C1F18366   1.537   4.899   3.931 -0.0814  0.5802  0.5179
  163OSM     OF18367   1.428   4.851   3.893  0.4363 -0.2603 -0.2581
  163OSM    C2F18368   1.551   5.006   4.032  0.8834  0.8647  0.4748
  163OSM    H2F18369   1.510   5.097   3.983  0.0459 -0.4145 -1.3169
  163OSM    H2G18370   1.657   5.021   4.063  1.6873 -1.5333 -0.8001
  163OSM    C3F18371   1.471   4.983   4.157 -0.7576 -1.0499 -0.5686
  163OSM    H3F18372   1.497   4.880   4.191 -0.4800 -0.7356  0.1735
  163OSM    H3G18373   1.360   4.985   4.149 -0.7724  0.0708 -0.2392
  163OSM    C4F18374   1.516   5.072   4.273  0.4396  0.9418 -0.0814
  163OSM    H4F18375   1.475   5.175   4.263 -1.7891  0.1398  0.1480
  163OSM    H4G18376   1.627   5.069   4.278  0.3935 -1.1361  0.7143
  163OSM    C5F18377   1.475   5.015   4.408  0.1037 -0.2443 -0.1099
  163OSM    H5F18378   1.463   4.905   4.412  0.3427 -0.2699  4.1547
  163OSM    H5G18379   1.370   5.050   4.420 -0.1612 -0.8200 -0.6854
  163OSM    C6F18380   1.563   5.068   4.524 -0.1374 -0.0193 -0.2379
  163OSM    H6F18381   1.582   5.178   4.520 -1.2241  0.2162  0.6482
  163OSM    H6G18382   1.662   5.018   4.529  0.4556  1.1952  2.3752
  163OSM    C7F18383   1.495   5.015   4.652 -0.6492  0.6560 -0.6495
  163OSM    H7F18384   1.510   4.905   4.654  0.8985  0.8423  0.9816
  163OSM    H7G18385   1.385   5.027   4.655 -0.9429 -1.4347 -1.4332
  163OSM    C8F18386   1.562   5.084   4.769 -0.6801  0.1694  0.4350
  163OSM    H8F18387   1.670   5.086   4.746 -0.7527 -1.3943 -0.1438
  163OSM    H8G18388   1.547   5.023   4.861  0.6953 -2.8211 -1.2082
  163OSM    C9F18389   1.499   5.227   4.781  0.5650  0.0840  0.2581
  163OSM    H9F18390   1.533   5.299   4.705 -1.1053 -0.5713 -1.1603
  163OSM   C10F18391   1.431   5.274   4.891 -0.7644  0.2115  0.4806
  163OSM   H10F18392   1.397   5.379   4.899 -1.0075  0.0615  1.7557
  163OSM   C11F18393   1.380   5.187   5.008 -0.2369 -0.3409 -0.4696
  163OSM   H11F18394   1.357   5.086   4.970 -0.4535 -0.7860  0.8105
  163OSM   H11G18395   1.284   5.230   5.043 -1.3637 -1.3313 -2.2097
  163OSM   C12F18396   1.464   5.191   5.130 -0.3600  0.0117  0.3098
  163OSM   H12F18397   1.409   5.144   5.214 -1.5869 -0.6484 -0.8212
  163OSM   H12G18398   1.479   5.297   5.159  0.0305  0.8394 -2.5990
  163OSM   C13F18399   1.596   5.113   5.118 -0.3123 -0.1531  0.4599
  163OSM   H13F18400   1.651   5.129   5.022 -0.3483 -0.2715  0.4190
  163OSM   H13G18401   1.566   5.009   5.097 -1.2352  0.6655 -3.0818
  163OSM   C14F18402   1.691   5.129   5.233 -0.5311 -0.1171 -0.2098
  163OSM   H14F18403   1.737   5.230   5.228  0.5738 -0.6464 -1.3618
  163OSM   H14G18404   1.776   5.063   5.205 -1.4879 -1.7202  0.5120
  163OSM   C15F18405   1.649   5.104   5.379  0.0120  0.3955  0.0322
  163OSM   H15F18406   1.731   5.047   5.427 -0.1888 -0.4373 -0.6017
  163OSM   H15G18407   1.561   5.036   5.377 -0.3681  0.8354  1.1913
  163OSM   C16F18408   1.602   5.224   5.460 -0.4789 -0.4723  0.6226
  163OSM   H16F18409   1.565   5.176   5.553  1.0964  0.3712  1.7040
  163OSM   H16G18410   1.516   5.269   5.406 -0.5570 -0.3459  0.8519
  163OSM   C17F18411   1.719   5.316   5.503 -0.0751  0.1255 -0.1847
  163OSM   H17F18412   1.739   5.389   5.422 -0.1761  1.4435  0.9384
  163OSM   H17G18413   1.802   5.244   5.517 -1.1754 -1.0694  0.3474
  163OSM   C18F18414   1.689   5.392   5.634  0.8103 -0.5821 -0.1316
  163OSM   H18F18415   1.734   5.338   5.720  0.9178 -2.4736 -1.3196
  163OSM   H18G18416   1.579   5.410   5.645  0.4341  0.6270 -4.2792
  163OSM   H18H18417   1.741   5.490   5.628 -2.5222  1.3417 -0.8425
  164OSM      N18418   2.842   4.964   3.512 -0.0983 -0.1713  0.2329
  164OSM    C1518419   2.752   4.898   3.605 -0.0414  0.7021 -0.0589
  164OSM   H15A18420   2.803   4.892   3.700  1.4919 -0.5790 -0.9412
  164OSM   H15B18421   2.715   4.802   3.572 -1.3994  1.3269 -0.4441
  164OSM   H15C18422   2.658   4.952   3.609 -0.9013 -0.6330 -1.2072
  164OSM    C1418423   2.791   4.966   3.374 -0.0561 -0.0372 -0.2448
  164OSM   H14A18424   2.877   5.003   3.322 -0.1725 -0.1736 -0.5332
  164OSM   H14B18425   2.705   5.031   3.368 -0.7896 -1.0932 -1.8020
  164OSM   H14C18426   2.758   4.870   3.337  2.2593 -0.3811 -1.5905
  164OSM    C1318427   2.857   5.111   3.551  0.0045 -0.4031  0.8852
  164OSM   H13A18428   2.901   5.128   3.649  1.6337 -0.9638  0.2847
  164OSM   H13B18429   2.759   5.156   3.550  0.4331  0.5560 -1.3833
  164OSM   H13C18430   2.911   5.176   3.484 -0.0972  1.0309  2.1406
  164OSM    C1218431   2.980   4.905   3.525 -0.2762  0.1731 -0.3857
  164OSM   H12A18432   3.009   4.927   3.627  2.4783 -1.7515 -0.6416
  164OSM   H12B18433   3.051   4.953   3.459  0.2462 -1.6926 -1.2395
  164OSM    C1118434   2.991   4.756   3.501  0.0315  0.6544  0.1061
  164OSM   H11A18435   2.961   4.749   3.394 -0.4246 -1.0959  0.3140
  164OSM   H11B18436   2.920   4.699   3.565  0.4621  0.4155  0.3724
  164OSM      P18437   3.160   4.603   3.618  0.1119 -0.6494  0.5876
  164OSM    O1318438   3.053   4.504   3.599  0.0913  0.4608  0.1903
  164OSM    O1418439   3.288   4.553   3.575  0.1706  1.0400  0.0520
  164OSM    O1118440   3.159   4.655   3.764  0.2976  0.0757  0.0889
  164OSM    O1218441   3.126   4.721   3.523 -0.4092 -0.7249  0.7968
  164OSM    C1S18442   3.222   4.781   3.794  0.4404 -0.2856 -0.1123
  164OSM    H1S18443   3.192   4.861   3.724 -2.1634 -0.0878  1.1025
  164OSM    H1T18444   3.333   4.783   3.801  0.4052  1.6908  0.5425
  164OSM     NF18445   3.196   4.980   3.938 -0.1878 -0.3340  0.3692
  164OSM    HNF18446   3.249   5.002   4.019  0.8987  0.7345 -0.6064
  164OSM    C2S18447   3.166   4.834   3.925  0.3146 -0.5789  1.1061
  164OSM    H2S18448   3.056   4.832   3.905  0.9206 -1.6734 -2.9720
  164OSM    C3S18449   3.208   4.749   4.044  0.0496  0.0470  0.0569
  164OSM    H3S18450   3.317   4.761   4.063  0.2660 -0.6421 -0.7106
  164OSM     O318451   3.195   4.609   4.020 -0.0518 -0.2408  0.2171
  164OSM    HO318452   3.181   4.611   3.925 -2.1085 -0.6467  0.4543
  164OSM    C4S18453   3.140   4.792   4.171  0.1156  0.1339  0.5048
  164OSM    H4S18454   3.208   4.838   4.245 -0.9919  1.3117  0.8229
  164OSM    C5S18455   3.012   4.773   4.201 -0.1400  0.3561 -0.1655
  164OSM    H5S18456   2.945   4.714   4.137  1.2073 -0.0257 -1.2814
  164OSM    C6S18457   2.934   4.818   4.324  0.1228  0.2845 -0.2568
  164OSM    H6S18458   2.888   4.735   4.381 -1.3838  1.0422 -0.3295
  164OSM    H6T18459   2.848   4.885   4.303 -1.4514 -1.0362  1.5995
  164OSM    C7S18460   3.022   4.893   4.423 -0.8499  0.1520 -0.1578
  164OSM    H7S18461   3.071   4.983   4.380  0.0532 -0.5331 -0.5904
  164OSM    H7T18462   3.107   4.823   4.439  0.0565  0.7180 -2.1221
  164OSM    C8S18463   2.940   4.939   4.545  0.7093  0.3372 -0.5576
  164OSM    H8S18464   2.886   4.854   4.590 -0.0295  1.4882  0.8184
  164OSM    H8T18465   2.856   5.007   4.519 -0.7582 -1.5853 -0.9930
  164OSM    C9S18466   3.038   5.006   4.639 -0.2054  0.4078 -0.3142
  164OSM    H9S18467   3.095   5.084   4.584  0.7510  0.6712  0.9790
  164OSM    H9T18468   3.117   4.930   4.658  0.6708  1.2081 -0.6715
  164OSM   C10S18469   2.970   5.053   4.772 -0.1013 -0.0884 -0.0043
  164OSM   H10S18470   2.983   4.991   4.864  1.0239 -0.4600 -0.3955
  164OSM   H10T18471   2.861   5.064   4.753 -0.0877 -3.0048 -2.5356
  164OSM   C11S18472   3.038   5.187   4.836  0.2416  0.0016  0.2893
  164OSM   H11S18473   3.035   5.266   4.758 -0.1591  0.8925  1.1828
  164OSM   H11T18474   3.145   5.156   4.840 -0.9367 -5.5118 -1.9051
  164OSM   C12S18475   2.981   5.230   4.971 -0.2388  0.6812  0.0239
  164OSM   H12S18476   2.871   5.214   4.964  0.0004 -0.9352 -0.5137
  164OSM   H12T18477   3.000   5.337   4.992 -0.2261  1.1264 -2.0787
  164OSM   C13S18478   3.033   5.139   5.088  0.7855  0.5299 -0.2740
  164OSM   H13S18479   3.144   5.147   5.086  0.9332 -0.7179  1.1618
  164OSM   H13T18480   3.002   5.033   5.084 -1.1273  1.0363  0.0209
  164OSM   C14S18481   2.985   5.178   5.224  0.2549  0.1447  0.3456
  164OSM   H14S18482   2.880   5.153   5.248  0.9474 -0.6697  2.9204
  164OSM   H14T18483   2.985   5.289   5.231  0.6934  0.1579  0.1920
  164OSM   C15S18484   3.078   5.114   5.326 -0.4682 -0.1834 -0.0198
  164OSM   H15S18485   3.183   5.150   5.318 -0.1274 -0.9497  0.8232
  164OSM   H15T18486   3.082   5.003   5.321 -1.3545 -0.3685  2.3499
  164OSM   C16S18487   3.022   5.151   5.466  0.1970  0.6773 -0.4272
  164OSM   H16S18488   2.919   5.109   5.465 -0.1992  1.2350  3.0326
  164OSM   H16T18489   3.009   5.259   5.484 -0.1966  0.4983  0.4162
  164OSM   C17S18490   3.092   5.074   5.580  0.2811  0.8387  0.6473
  164OSM   H17S18491   3.137   4.978   5.548  1.7745  1.3637  1.0853
  164OSM   H17T18492   3.025   5.043   5.663  0.3064 -0.3502  0.2415
  164OSM   C18S18493   3.199   5.162   5.643  0.4449  0.1450 -0.3974
  164OSM   H18S18494   3.229   5.115   5.739 -0.2841 -1.6926 -1.0126
  164OSM   H18T18495   3.168   5.268   5.653  1.9108  0.5522  0.0222
  164OSM   H18U18496   3.294   5.148   5.588  0.3185  0.7546 -0.7798
  164OSM    C1F18497   3.142   5.075   3.859 -0.0552  0.0307  0.1270
  164OSM     OF18498   3.061   5.055   3.765  0.0043  0.2319 -0.4847
  164OSM    C2F18499   3.180   5.221   3.880  0.1629 -0.2822 -0.1014
  164OSM    H2F18500   3.291   5.224   3.867  0.3212 -0.1863  1.1338
  164OSM    H2G18501   3.147   5.250   3.982 -0.9156  0.3968 -0.6339
  164OSM    C3F18502   3.113   5.320   3.783 -0.1071  1.0350 -0.0242
  164OSM    H3F18503   3.008   5.289   3.765  0.0213  1.2845 -1.2727
  164OSM    H3G18504   3.165   5.320   3.685 -3.6246  2.6359 -2.0875
  164OSM    C4F18505   3.116   5.466   3.830  0.5638 -0.1930  0.7421
  164OSM    H4F18506   3.095   5.526   3.740  0.0623 -2.1202 -0.4896
  164OSM    H4G18507   3.214   5.493   3.876  1.2757 -1.8446  0.3018
  164OSM    C5F18508   3.003   5.507   3.933  0.1297  0.5036 -0.2020
  164OSM    H5F18509   2.976   5.421   3.998 -2.5537  1.2094 -0.2515
  164OSM    H5G18510   2.913   5.546   3.882  0.6033  1.8480 -0.0620
  164OSM    C6F18511   3.041   5.625   4.016  0.0216  0.1185  0.1057
  164OSM    H6F18512   2.995   5.718   3.976 -0.2436 -0.4419 -0.9270
  164OSM    H6G18513   3.151   5.640   4.012 -0.2370  2.1318 -0.9522
  164OSM    C7F18514   3.005   5.620   4.161 -0.0308 -0.4119  0.2175
  164OSM    H7F18515   3.062   5.529   4.191  0.4321 -0.0772  0.3568
  164OSM    H7G18516   2.898   5.614   4.190  0.4915  1.2515  2.8158
  164OSM    C8F18517   3.072   5.735   4.240 -0.2752 -0.2937 -0.2636
  164OSM    H8F18518   3.179   5.711   4.220  0.9985  2.5212  2.3495
  164OSM    H8G18519   3.051   5.723   4.349 -0.8019  0.2861 -0.2953
  164OSM    C9F18520   3.029   5.868   4.185  0.6867 -0.0680  0.7558
  164OSM    H9F18521   3.081   5.919   4.103 -2.5871  0.7075 -0.9989
  164OSM   C10F18522   2.920   5.940   4.226 -0.2250  0.9868  0.2556
  164OSM   H10F18523   2.904   6.035   4.173 -1.1909 -0.9563 -3.2462
  164OSM   C11F18524   2.833   5.903   4.343  0.2748 -0.5552  0.1522
  164OSM   H11F18525   2.847   5.797   4.371 -2.7191 -0.6952  1.4709
  164OSM   H11G18526   2.733   5.906   4.296  0.8424 -1.1298 -1.1582
  164OSM   C12F18527   2.856   6.000   4.462 -0.0606 -0.1897  0.1631
  164OSM   H12F18528   2.765   6.000   4.526 -1.7348  1.2511 -2.0817
  164OSM   H12G18529   2.869   6.098   4.411 -0.2629 -2.3022 -4.4995
  164OSM   C13F18530   2.987   5.964   4.540  0.4614  0.5077  0.2838
  164OSM   H13F18531   3.078   5.984   4.481  1.4983 -0.9489  1.3246
  164OSM   H13G18532   2.994   5.854   4.556  1.4780  0.4369 -0.5378
  164OSM   C14F18533   3.004   6.031   4.676  0.7211  0.8764  0.8981
  164OSM   H14F18534   2.942   6.123   4.674  0.3205  0.6555  2.3044
  164OSM   H14G18535   3.112   6.055   4.685  0.6930  0.8364  1.3613
  164OSM   C15F18536   2.968   5.935   4.791 -0.1992  0.2162 -0.0335
  164OSM   H15F18537   3.045   5.855   4.800  1.0238  1.1880 -1.5285
  164OSM   H15G18538   2.873   5.884   4.763 -1.2137  1.5151  0.9198
  164OSM   C16F18539   2.942   6.006   4.925 -0.0823  0.1259 -0.9697
  164OSM   H16F18540   2.860   6.078   4.908 -1.6881 -1.4873 -0.4121
  164OSM   H16G18541   3.039   6.052   4.953  0.6428  0.7802 -4.0828
  164OSM   C17F18542   2.895   5.912   5.036 -0.4152 -0.0167 -0.3351
  164OSM   H17F18543   2.953   5.819   5.018  1.9768  1.5854 -1.4993
  164OSM   H17G18544   2.788   5.886   5.023 -0.2419 -0.9003 -0.0718
  164OSM   C18F18545   2.927   5.949   5.181  0.0819 -0.7674 -0.4021
  164OSM   H18F18546   3.038   5.958   5.183  0.0940 -0.8111 -0.8196
  164OSM   H18G18547   2.907   5.870   5.257 -1.3394  0.6681  0.7662
  164OSM   H18H18548   2.880   6.045   5.208  1.3970 -0.3038  0.3391
  165SAPS     N18549   0.418   2.122   8.096  0.3239  0.6336 -0.5492
  165SAPS   HN118550   0.365   2.144   8.009 -0.6133  3.9993  0.7297
  165SAPS   HN218551   0.423   2.212   8.147 -3.0317  0.3108  0.6003
  165SAPS   HN318552   0.510   2.077   8.074  0.2847 -0.1185  0.7193
  165SAPS   C1218553   0.340   2.040   8.201 -0.2615 -0.9375 -0.0094
  165SAPS  H12A18554   0.350   1.935   8.178  2.6978 -0.4456 -1.4502
  165SAPS   C1318555   0.398   2.058   8.346  0.2900  0.1160  0.7172
  165SAPS  O13A18556   0.501   2.131   8.369  0.5819  0.2729 -0.3126
  165SAPS  O13B18557   0.357   1.979   8.432 -0.2369  0.3185 -0.1087
  165SAPS   C1118558   0.194   2.075   8.203 -0.3508 -0.7768  0.0368
  165SAPS  H11A18559   0.194   2.185   8.213  4.2940 -0.6189  0.7382
  165SAPS  H11B18560   0.146   2.030   8.292  0.3862 -0.2494  0.7165
  165SAPS     P18561   0.090   1.898   8.047 -0.1122 -0.1364  0.0660
  165SAPS   O1318562   0.214   1.815   8.039 -0.2787  0.0333 -0.6111
  165SAPS   O1418563  -0.014   1.860   8.138 -0.4046 -0.2466  0.1979
  165SAPS   O1218564   0.127   2.046   8.083  0.1623 -0.2145 -0.4245
  165SAPS   O1118565   0.036   1.919   7.901 -0.3562 -0.0357  0.1896
  165SAPS    C118566   0.092   2.026   7.815  0.6731 -0.2637  0.6985
  165SAPS    HA18567   0.091   2.125   7.864  1.9697  0.6566 -1.0430
  165SAPS    HB18568   0.201   2.012   7.796  0.3774 -0.7804 -0.7761
  165SAPS    C218569   0.033   2.053   7.676  0.2099  0.4841 -0.6056
  165SAPS    HS18570   0.041   2.159   7.645  0.9052  0.1149 -1.7457
  165SAPS   O2118571  -0.108   2.014   7.671  0.5646 -0.4548 -0.3456
  165SAPS   C2118572  -0.184   2.107   7.722  0.1708 -0.4216 -0.7484
  165SAPS   O2218573  -0.148   2.216   7.768  0.1675  0.0984  0.5602
  165SAPS   C2218574  -0.332   2.057   7.720  0.2064 -0.2517  0.4584
  165SAPS   H2R18575  -0.325   1.952   7.757  1.1842 -0.6790 -0.8656
  165SAPS   H2S18576  -0.394   2.122   7.786 -1.1175 -0.9234 -0.0765
  165SAPS    C318577   0.112   1.982   7.568  0.0318  0.2366 -0.4667
  165SAPS    HX18578   0.089   1.874   7.576  3.5076 -0.4949  1.2098
  165SAPS    HY18579   0.219   1.993   7.596  0.2479  0.9289 -1.5163
  165SAPS   O3118580   0.090   2.037   7.436 -0.0622  0.1636 -0.1581
  165SAPS   C3118581  -0.008   1.985   7.361  1.2110 -0.1438 -0.0178
  165SAPS   O3218582  -0.071   1.886   7.386  0.1697 -0.0828  0.3416
  165SAPS   C3218583  -0.020   2.073   7.231 -0.5198 -1.1356 -1.0523
  165SAPS   H2X18584   0.037   2.023   7.151 -0.3773 -0.2565 -1.5122
  165SAPS   H2Y18585   0.014   2.174   7.264 -1.7645 -0.9596 -0.1958
  165SAPS   C2318586  -0.401   2.061   7.579 -0.2408 -0.0197  0.2403
  165SAPS   H3R18587  -0.487   1.991   7.588  0.1122 -0.2619  2.2697
  165SAPS   H3S18588  -0.331   2.014   7.507 -0.5913 -0.1165 -0.0389
  165SAPS   C2418589  -0.458   2.196   7.540 -0.1631  0.5159  0.4904
  165SAPS   H4R18590  -0.519   2.240   7.622 -0.5684  2.1445 -0.6319
  165SAPS   H4S18591  -0.536   2.180   7.462 -0.4891  3.4444  0.0906
  165SAPS   C2518592  -0.364   2.293   7.491 -1.0951 -0.0302 -0.3797
  165SAPS   H5R18593  -0.279   2.310   7.558 -0.4291 -0.7582 -1.0319
  165SAPS   C2618594  -0.385   2.381   7.390  0.0735 -0.3038  0.6169
  165SAPS   H6R18595  -0.303   2.449   7.363 -1.5516  1.7098  0.5207
  165SAPS   C2718596  -0.507   2.374   7.300 -0.6179 -0.2571  0.3825
  165SAPS   H7R18597  -0.602   2.348   7.351 -0.5100 -2.5344 -0.4564
  165SAPS   H7S18598  -0.480   2.280   7.247  1.9134  0.0331  0.9916
  165SAPS   C2818599  -0.519   2.490   7.204  0.1826  0.5069  0.9548
  165SAPS   H8R18600  -0.526   2.588   7.252 -1.4915 -0.2209  2.3337
  165SAPS   C2918601  -0.521   2.470   7.070  0.4543  0.1698 -0.1512
  165SAPS   H9R18602  -0.518   2.559   7.005  0.8563 -1.0565 -1.8753
  165SAPS  C21018603  -0.531   2.348   6.986 -0.1735  0.3163  0.3910
  165SAPS  H10R18604  -0.496   2.267   7.054  1.4262  0.5321 -0.1339
  165SAPS  H10S18605  -0.450   2.361   6.911 -0.5452  0.9216  0.0881
  165SAPS  C21118606  -0.672   2.321   6.934 -0.3885  0.3555 -0.5843
  165SAPS  H11R18607  -0.752   2.359   7.000  1.1285 -2.0980  2.9918
  165SAPS  C21218608  -0.706   2.285   6.810  0.4770 -0.0678  0.1018
  165SAPS  H12R18609  -0.810   2.301   6.780 -0.3511  1.5313  3.3541
  165SAPS  C21318610  -0.602   2.246   6.705  0.2607 -0.3785  0.0239
  165SAPS  H13R18611  -0.649   2.184   6.626  0.9367 -2.4727  1.1800
  165SAPS  H13S18612  -0.517   2.185   6.743 -0.5012 -2.2277 -1.1073
  165SAPS  C21418613  -0.540   2.364   6.634  0.7378  0.0654 -0.5892
  165SAPS  H14R18614  -0.507   2.454   6.689  0.3795  0.5553 -1.1737
  165SAPS  C21518615  -0.509   2.363   6.504 -0.4926  0.3819 -0.0822
  165SAPS  H15R18616  -0.457   2.453   6.469 -1.4321  0.3058 -1.7486
  165SAPS  C21618617  -0.521   2.255   6.403  0.1789  0.5718  0.4861
  165SAPS  H16R18618  -0.509   2.159   6.457  0.6747 -0.1338 -0.8330
  165SAPS  H16S18619  -0.434   2.263   6.334  0.9893  2.0238  1.5984
  165SAPS  C21718620  -0.651   2.275   6.326 -0.1602  0.5886 -0.0302
  165SAPS  H17R18621  -0.728   2.256   6.404 -0.9625 -2.0228 -1.3399
  165SAPS  H17S18622  -0.678   2.197   6.252 -1.8464  0.6516  0.4733
  165SAPS  C21818623  -0.642   2.403   6.246  0.1159 -0.0580  0.2953
  165SAPS  H18R18624  -0.625   2.377   6.139 -0.6312 -1.1678  0.4317
  165SAPS  H18S18625  -0.554   2.466   6.271  0.0990  0.4599 -0.8902
  165SAPS  C21918626  -0.774   2.489   6.260 -0.6264 -0.4491  0.2143
  165SAPS  H19R18627  -0.790   2.503   6.369 -2.1328  0.7919 -0.1446
  165SAPS  H19S18628  -0.859   2.437   6.211 -0.0430 -1.2934  0.0744
  165SAPS  C22018629  -0.765   2.624   6.191  0.0202  0.0397  0.0978
  165SAPS  H20R18630  -0.742   2.610   6.083 -0.7065  0.9602 -0.1967
  165SAPS  H20S18631  -0.688   2.691   6.235 -1.0102  0.6786  0.9613
  165SAPS  H20T18632  -0.863   2.677   6.185  0.5875  1.3990  2.0708
  165SAPS   C3318633  -0.167   2.085   7.183  0.2477 -0.3124  0.3644
  165SAPS   H3X18634  -0.224   2.147   7.256  1.5609 -0.0488  1.2090
  165SAPS   H3Y18635  -0.227   1.993   7.175 -1.4357  0.8471 -1.1459
  165SAPS   C3418636  -0.192   2.167   7.047  0.5736  0.1154 -0.3912
  165SAPS   H4X18637  -0.151   2.270   7.042 -0.7828  0.7053  0.1810
  165SAPS   H4Y18638  -0.296   2.175   7.010  0.3740 -0.1284  0.1048
  165SAPS   C3518639  -0.117   2.093   6.928 -0.0384 -0.0936 -0.0121
  165SAPS   H5X18640  -0.136   1.983   6.928 -1.2451  0.0942 -0.3161
  165SAPS   H5Y18641  -0.008   2.113   6.927 -0.3757  2.6151 -3.8561
  165SAPS   C3618642  -0.152   2.163   6.788 -0.6571 -0.2873 -1.3072
  165SAPS   H6X18643  -0.134   2.272   6.795 -1.0071 -0.3251  1.1914
  165SAPS   H6Y18644  -0.262   2.146   6.786 -0.9211  1.0421  0.1265
  165SAPS   C3718645  -0.088   2.092   6.674 -0.1576  0.3749  0.0453
  165SAPS   H7X18646  -0.108   1.983   6.685  1.4439 -0.0073 -0.6287
  165SAPS   H7Y18647   0.022   2.105   6.668  0.0749 -1.8528 -2.0656
  165SAPS   C3818648  -0.151   2.141   6.540 -0.1299 -0.0898  0.3367
  165SAPS   H8X18649  -0.151   2.252   6.544 -0.3568 -0.1124  1.4856
  165SAPS   H8Y18650  -0.259   2.113   6.531 -0.0095 -0.3174 -0.4939
  165SAPS   C3918651  -0.067   2.105   6.417  0.3908 -0.7029 -0.3279
  165SAPS   H9X18652  -0.058   1.995   6.402 -1.1708 -0.7699 -0.9812
  165SAPS   H9Y18653   0.039   2.138   6.420 -0.2411  1.6251 -1.0586
  165SAPS  C31018654  -0.106   2.168   6.287  0.1366 -0.0944  0.7473
  165SAPS  H10X18655  -0.118   2.276   6.308  3.8810  0.4955  0.4673
  165SAPS  H10Y18656  -0.208   2.130   6.263  0.5236 -1.1558  0.7350
  165SAPS  C31118657  -0.010   2.159   6.171  0.1268 -0.3982 -0.2377
  165SAPS  H11X18658  -0.000   2.050   6.152 -4.7495 -1.2773  0.8947
  165SAPS  H11Y18659   0.092   2.194   6.198 -0.2627  0.8203 -0.2857
  165SAPS  C31218660  -0.069   2.226   6.041 -0.2246 -0.2838  0.3457
  165SAPS  H12X18661  -0.047   2.335   6.049 -3.1554  0.3561  0.8533
  165SAPS  H12Y18662  -0.179   2.210   6.044 -0.2321 -0.6368 -1.2631
  165SAPS  C31318663  -0.018   2.154   5.912 -0.1876  0.2349  0.4085
  165SAPS  H13X18664  -0.070   2.189   5.821  2.2647  1.4721 -0.6094
  165SAPS  H13Y18665  -0.033   2.045   5.926  2.3151 -0.3096 -0.6299
  165SAPS  C31418666   0.134   2.177   5.896 -0.3423 -0.0886  0.1658
  165SAPS  H14X18667   0.202   2.142   5.978 -0.3074  2.4738  1.3515
  165SAPS  H14Y18668   0.146   2.288   5.891  1.2368 -0.2169  0.4495
  165SAPS  C31518669   0.189   2.115   5.763  0.0907  0.8604  0.3038
  165SAPS  H15X18670   0.150   2.012   5.760  1.5934  0.2764 -1.8084
  165SAPS  H15Y18671   0.300   2.110   5.775  0.3657 -0.8124 -2.2160
  165SAPS  C31618672   0.151   2.186   5.632  1.0986 -0.0371  0.0449
  165SAPS  H16X18673   0.229   2.262   5.611  0.7424  0.4567  0.4989
  165SAPS  H16Y18674   0.065   2.254   5.647 -0.0167 -0.8215 -2.2683
  165SAPS  C31718675   0.134   2.094   5.509 -0.1096 -0.4475  0.3915
  165SAPS  H17X18676   0.109   1.987   5.526 -0.0365 -0.3485  1.1504
  165SAPS  H17Y18677   0.235   2.091   5.462  0.8867 -2.3692  2.4481
  165SAPS  C31818678   0.029   2.156   5.417  0.5503 -0.2972 -0.1449
  165SAPS  H18X18679  -0.071   2.157   5.465  0.3684  1.0300 -0.5033
  165SAPS  H18Y18680   0.014   2.098   5.324  1.4315  0.8496 -1.0341
  165SAPS  H18Z18681   0.058   2.261   5.395  4.4299 -1.2055 -0.0361
  166SAPS     N18682   0.032   3.363   8.258 -0.2298  0.0447  0.6969
  166SAPS   HN118683  -0.013   3.437   8.316 -1.5797 -0.0370 -0.2036
  166SAPS   HN218684   0.015   3.392   8.160  1.5456 -0.6509  0.1439
  166SAPS   HN318685  -0.015   3.272   8.277 -1.5310  0.9877  2.2983
  166SAPS   C1218686   0.183   3.359   8.273  0.0678 -0.0748  0.4504
  166SAPS  H12A18687   0.215   3.358   8.377  0.7303  0.4008  0.2606
  166SAPS   C1318688   0.255   3.241   8.199  0.3096 -0.2707 -0.2807
  166SAPS  O13A18689   0.197   3.133   8.165 -0.1496  0.3935  0.5340
  166SAPS  O13B18690   0.380   3.250   8.204 -0.1396 -0.2260 -0.3010
  166SAPS   C1118691   0.241   3.490   8.210  0.5164  0.0278 -0.5762
  166SAPS  H11A18692   0.352   3.482   8.214  0.3370 -2.3167  2.9602
  166SAPS  H11B18693   0.203   3.570   8.277  0.7435 -0.0294 -0.3820
  166SAPS     P18694   0.262   3.615   7.987 -0.0420 -0.2804 -0.3311
  166SAPS   O1318695   0.245   3.747   8.043  0.3839 -0.5072 -0.7442
  166SAPS   O1418696   0.403   3.574   7.973 -0.2050  0.0806 -0.5956
  166SAPS   O1218697   0.189   3.507   8.074  0.1546  0.3950 -0.1550
  166SAPS   O1118698   0.193   3.604   7.846 -0.0967  0.2605  0.0390
  166SAPS    C118699   0.110   3.483   7.824  0.1023  0.0949  0.6895
  166SAPS    HA18700   0.111   3.405   7.902  1.0572 -1.6323 -0.9743
  166SAPS    HB18701   0.005   3.516   7.812 -0.0450 -1.0269 -1.6886
  166SAPS    C218702   0.136   3.423   7.685 -0.6638 -0.2783 -0.7265
  166SAPS    HS18703   0.243   3.396   7.681 -0.2088  1.5913 -2.1695
  166SAPS   O2118704   0.098   3.512   7.574 -0.3229  0.6016 -0.3346
  166SAPS   C2118705   0.197   3.568   7.511  0.0128  0.3706  0.1977
  166SAPS   O2218706   0.320   3.556   7.525 -0.0123 -0.0175  0.1808
  166SAPS   C2218707   0.139   3.655   7.403  0.5875  0.3773  0.3159
  166SAPS   H2R18708   0.099   3.752   7.438  1.7869  0.7361  0.7510
  166SAPS   H2S18709   0.226   3.669   7.335  0.0888 -0.7403 -0.5843
  166SAPS    C318710   0.064   3.285   7.667  0.5985 -0.0438 -0.2230
  166SAPS    HX18711  -0.041   3.303   7.698  0.8825 -1.0035  1.4786
  166SAPS    HY18712   0.118   3.224   7.744  1.8971  0.9109 -0.3371
  166SAPS   O3118713   0.066   3.238   7.535 -0.4714  0.4061 -1.2209
  166SAPS   C3118714   0.182   3.169   7.505 -0.1985 -0.5285 -0.0180
  166SAPS   O3218715   0.279   3.166   7.574 -0.9058  0.3057  0.2342
  166SAPS   C3218716   0.153   3.096   7.377 -0.6166  0.2571  0.0815
  166SAPS   H2X18717   0.060   3.037   7.391 -1.2262  1.4290  1.2054
  166SAPS   H2Y18718   0.238   3.032   7.345 -0.1429  1.1181 -0.4324
  166SAPS   C2318719   0.022   3.584   7.326  0.2229  0.5506  0.7416
  166SAPS   H3R18720  -0.066   3.589   7.393  1.6501 -0.8000  2.8668
  166SAPS   H3S18721   0.058   3.479   7.314  0.8049  0.9501 -1.2773
  166SAPS   C2418722   0.004   3.639   7.181  0.1611 -0.0458  0.6834
  166SAPS   H4R18723  -0.036   3.551   7.124 -4.3081  2.3621 -0.3702
  166SAPS   H4S18724   0.107   3.666   7.151  0.1759 -2.2108 -1.5578
  166SAPS   C2518725  -0.074   3.765   7.177  1.0051  0.8370 -0.2045
  166SAPS   H5R18726  -0.068   3.841   7.255 -0.6730 -0.1317  0.9355
  166SAPS   C2618727  -0.177   3.783   7.091 -0.3210 -0.5079  0.5436
  166SAPS   H6R18728  -0.239   3.873   7.100 -0.8666 -1.0022  1.9307
  166SAPS   C2718729  -0.233   3.699   6.975 -0.3746 -0.6291 -0.3863
  166SAPS   H7R18730  -0.334   3.661   7.002  0.9175 -3.4420  0.9070
  166SAPS   H7S18731  -0.183   3.601   6.956  0.4452 -0.1991 -0.4842
  166SAPS   C2818732  -0.232   3.775   6.849  0.7032 -0.9631  0.0082
  166SAPS   H8R18733  -0.172   3.867   6.839 -4.0805  2.7025  1.5827
  166SAPS   C2918734  -0.302   3.737   6.742  0.4606 -0.0821  0.8328
  166SAPS   H9R18735  -0.309   3.812   6.661  1.3228  1.1066  1.8067
  166SAPS  C21018736  -0.382   3.608   6.736 -0.8643  0.2429  0.8604
  166SAPS  H10R18737  -0.404   3.574   6.839  0.0410  1.5714  1.5366
  166SAPS  H10S18738  -0.321   3.535   6.678  0.2489  1.4759  0.4039
  166SAPS  C21118739  -0.514   3.629   6.676  0.6500 -1.1589  0.6811
  166SAPS  H11R18740  -0.593   3.667   6.742 -0.2847  0.4607 -1.2382
  166SAPS  C21218741  -0.562   3.601   6.548  0.3623  0.0407 -0.6109
  166SAPS  H12R18742  -0.671   3.603   6.534 -0.0993 -0.8741  2.0973
  166SAPS  C21318743  -0.482   3.537   6.441  0.3163  0.4679  0.4194
  166SAPS  H13R18744  -0.372   3.552   6.448  0.2140  1.8497 -0.5314
  166SAPS  H13S18745  -0.507   3.582   6.343  1.6139  0.7741  0.2030
  166SAPS  C21418746  -0.504   3.390   6.445  0.0819  0.4546  0.3743
  166SAPS  H14R18747  -0.448   3.336   6.522 -0.5660  1.4908  1.6027
  166SAPS  C21518748  -0.562   3.319   6.347  0.6347  0.1286  0.2553
  166SAPS  H15R18749  -0.551   3.210   6.356 -0.8163  0.0465  1.3286
  166SAPS  C21618750  -0.647   3.359   6.221 -0.3057  0.1944 -0.4898
  166SAPS  H16R18751  -0.624   3.466   6.200 -0.6037  0.2379 -0.6033
  166SAPS  H16S18752  -0.757   3.352   6.231 -0.2871  1.7037  1.5122
  166SAPS  C21718753  -0.584   3.279   6.102 -0.7202  0.3693  0.0617
  166SAPS  H17R18754  -0.606   3.170   6.115  0.9980  0.1087  0.9877
  166SAPS  H17S18755  -0.474   3.286   6.098 -0.7248  0.7099  0.5679
  166SAPS  C21818756  -0.627   3.344   5.969 -0.0908 -0.0338  1.3520
  166SAPS  H18R18757  -0.579   3.443   5.955 -0.1192 -0.4331 -2.6872
  166SAPS  H18S18758  -0.737   3.360   5.967 -0.4734 -1.8264 -2.8235
  166SAPS  C21918759  -0.602   3.263   5.839 -0.0532 -0.0667 -0.0233
  166SAPS  H19R18760  -0.624   3.334   5.756  2.7556 -0.9499 -1.6420
  166SAPS  H19S18761  -0.654   3.165   5.836 -0.1108 -0.1242  1.7442
  166SAPS  C22018762  -0.450   3.243   5.823 -0.0826 -1.0270 -0.0257
  166SAPS  H20R18763  -0.429   3.205   5.720  1.8223  1.4568 -0.6504
  166SAPS  H20S18764  -0.418   3.163   5.892 -2.0171  0.2364  2.5306
  166SAPS  H20T18765  -0.388   3.334   5.839  0.6314 -1.8340  1.9767
  166SAPS   C3318766   0.124   3.187   7.261  0.0047  0.1536  0.0636
  166SAPS   H3X18767   0.029   3.243   7.268 -0.6614 -0.7768 -1.2016
  166SAPS   H3Y18768   0.123   3.125   7.169 -0.2091  1.1178 -0.6060
  166SAPS   C3418769   0.253   3.275   7.219  0.1306  0.1344 -0.9077
  166SAPS   H4X18770   0.337   3.204   7.207  0.1600 -0.1500  0.7059
  166SAPS   H4Y18771   0.282   3.326   7.313 -0.3898 -1.9467  0.4623
  166SAPS   C3518772   0.233   3.365   7.103  0.6557  0.2838 -0.7452
  166SAPS   H5X18773   0.326   3.416   7.072 -0.7377  2.0114 -2.3151
  166SAPS   H5Y18774   0.154   3.441   7.117 -0.2418 -0.8052  0.4167
  166SAPS   C3618775   0.183   3.281   6.980  0.0410  0.4037  0.2234
  166SAPS   H6X18776   0.093   3.217   6.997  1.7158 -1.6144  2.0695
  166SAPS   H6Y18777   0.261   3.207   6.953 -1.1332 -1.4429  1.5978
  166SAPS   C3718778   0.162   3.371   6.852 -0.3946  0.3234 -0.4273
  166SAPS   H7X18779   0.260   3.417   6.830 -0.1033  1.1522  2.1873
  166SAPS   H7Y18780   0.089   3.455   6.860  0.4984  1.4952 -3.3866
  166SAPS   C3818781   0.126   3.293   6.729  0.1522 -0.0446  0.5956
  166SAPS   H8X18782   0.038   3.227   6.747 -0.6867  1.1700  1.0207
  166SAPS   H8Y18783   0.210   3.229   6.694  0.7406  0.0874  1.7456
  166SAPS   C3918784   0.089   3.388   6.609 -0.4595  0.0817  0.3144
  166SAPS   H9X18785   0.185   3.410   6.557 -0.1722 -0.4163  0.6321
  166SAPS   H9Y18786   0.027   3.470   6.650 -1.1789 -0.3013  0.0103
  166SAPS  C31018787  -0.004   3.318   6.505  0.3576 -0.0744  0.4518
  166SAPS  H10X18788  -0.108   3.305   6.543  0.6268 -1.9557  0.6130
  166SAPS  H10Y18789   0.036   3.215   6.493  0.0807 -0.2108  0.6796
  166SAPS  C31118790  -0.005   3.401   6.374 -0.5281  0.6355  0.0828
  166SAPS  H11X18791   0.100   3.428   6.350  0.5880 -2.9283  0.4541
  166SAPS  H11Y18792  -0.078   3.485   6.375 -2.1766 -0.7259 -0.0415
  166SAPS  C31218793  -0.044   3.316   6.250 -0.3316  0.0266  0.2945
  166SAPS  H12X18794  -0.153   3.296   6.253  0.1256 -2.8600  0.3331
  166SAPS  H12Y18795   0.009   3.219   6.261 -0.1625  0.0286 -0.4337
  166SAPS  C31318796   0.006   3.381   6.112 -0.8035 -0.2411 -0.1662
  166SAPS  H13X18797   0.117   3.374   6.114 -0.6366  1.1566 -1.6350
  166SAPS  H13Y18798  -0.017   3.490   6.118  0.1699  0.0877 -1.7004
  166SAPS  C31418799  -0.071   3.305   5.994 -0.3328 -0.5304 -0.7785
  166SAPS  H14X18800  -0.063   3.378   5.910 -2.5738  0.0114 -0.5829
  166SAPS  H14Y18801  -0.177   3.300   6.027  0.2363 -0.7954  1.1191
  166SAPS  C31518802  -0.008   3.170   5.957 -0.4295 -0.0615 -0.4328
  166SAPS  H15X18803  -0.004   3.106   6.047  0.5107  0.0245 -0.4021
  166SAPS  H15Y18804   0.094   3.190   5.917  0.2047 -1.0185  0.6519
  166SAPS  C31618805  -0.087   3.098   5.846 -0.0398 -0.7288 -0.3742
  166SAPS  H16X18806  -0.108   3.169   5.763 -1.2568  0.6408  1.0248
  166SAPS  H16Y18807  -0.184   3.070   5.892  0.6145 -1.2478  0.7306
  166SAPS  C31718808  -0.018   2.971   5.790 -0.4448 -0.3163 -0.1930
  166SAPS  H17X18809  -0.096   2.924   5.726 -1.4204 -2.5633  2.4329
  166SAPS  H17Y18810   0.003   2.907   5.878  0.6420 -1.7753 -1.4631
  166SAPS  C31818811   0.106   3.003   5.712 -0.1259  0.1349 -0.9394
  166SAPS  H18X18812   0.149   2.914   5.661 -1.0149 -1.0100  0.2255
  166SAPS  H18Y18813   0.174   3.042   5.790 -0.5377 -0.8083 -0.0823
  166SAPS  H18Z18814   0.089   3.076   5.631  0.3715 -1.3631 -2.4675
  167SAPS     N18815   3.810   2.970   8.764  0.7366 -0.0313 -0.1605
  167SAPS   HN118816   3.850   2.963   8.668  1.0135  0.1171 -0.0596
  167SAPS   HN218817   3.707   2.981   8.757  0.6066 -0.5532  0.8225
  167SAPS   HN318818   3.844   3.055   8.814 -1.4587  1.1118 -0.4919
  167SAPS   C1218819   3.859   2.848   8.835 -0.5277 -0.0892  0.4022
  167SAPS  H12A18820   3.967   2.851   8.829 -0.6239  1.0945 -1.7226
  167SAPS   C1318821   3.824   2.840   8.983 -0.0988 -0.4624  0.5908
  167SAPS  O13A18822   3.748   2.929   9.032  0.0327 -0.4226 -0.3386
  167SAPS  O13B18823   3.890   2.760   9.049 -0.0197  0.2213  0.2091
  167SAPS   C1118824   3.810   2.718   8.764  0.0137  0.0364  0.0052
  167SAPS  H11A18825   3.701   2.707   8.782 -0.4175  1.7696 -1.2275
  167SAPS  H11B18826   3.864   2.634   8.812 -0.6453 -0.7499 -0.5988
  167SAPS     P18827   3.795   2.587   8.547  0.2287  0.3067 -0.2331
  167SAPS   O1318828   3.808   2.470   8.639  0.0477  0.4191 -0.4659
  167SAPS   O1418829   3.662   2.612   8.484  0.0805  0.1652 -0.2367
  167SAPS   O1218830   3.842   2.716   8.626 -0.3351 -0.1506 -0.2083
  167SAPS   O1118831   3.899   2.569   8.434 -0.3930 -0.3116 -0.3555
  167SAPS    C118832   3.957   2.679   8.351 -0.4724 -0.5569 -0.1035
  167SAPS    HA18833   3.938   2.779   8.398  1.5188 -0.4146  0.4766
  167SAPS    HB18834   4.066   2.667   8.338  0.1522  2.4749  1.2682
  167SAPS    C218835   3.887   2.687   8.219  0.1882  0.1104 -0.5912
  167SAPS    HS18836   3.780   2.706   8.239  0.2025 -0.3395 -0.0550
  167SAPS   O2118837   3.890   2.553   8.161 -0.6527  0.6208 -0.6176
  167SAPS   C2118838   3.800   2.530   8.069 -0.4287 -0.1244 -0.8639
  167SAPS   O2218839   3.697   2.594   8.057 -0.4949 -0.0591 -0.1730
  167SAPS   C2218840   3.842   2.402   7.993 -0.2943  0.2073  0.1965
  167SAPS   H2R18841   3.944   2.364   8.018 -0.0236 -0.3870 -1.6461
  167SAPS   H2S18842   3.779   2.321   8.035 -0.7864  0.8501  0.7028
  167SAPS    C318843   3.940   2.790   8.125 -0.2623 -0.7505 -0.2133
  167SAPS    HX18844   4.050   2.776   8.118  0.1601  1.2880  1.3118
  167SAPS    HY18845   3.928   2.879   8.190  1.9524 -0.2443 -0.4149
  167SAPS   O3118846   3.879   2.825   7.994  0.1154  0.4425 -0.2795
  167SAPS   C3118847   3.758   2.874   7.996 -0.3410  0.2499  0.3886
  167SAPS   O3218848   3.690   2.895   8.096  0.4721 -0.0944  0.4859
  167SAPS   C3218849   3.706   2.894   7.844 -0.1478  0.3694 -0.4938
  167SAPS   H2X18850   3.669   2.796   7.808  0.4889  0.0288 -0.2534
  167SAPS   H2Y18851   3.800   2.915   7.789 -0.0078 -1.3498 -0.9854
  167SAPS   C2318852   3.834   2.407   7.839 -0.2470 -0.3151 -0.2831
  167SAPS   H3R18853   3.739   2.453   7.803  0.0907  0.3774 -0.3111
  167SAPS   H3S18854   3.825   2.299   7.814  0.6565 -1.1155  2.4320
  167SAPS   C2418855   3.959   2.460   7.762 -0.2224  0.0111  0.2672
  167SAPS   H4R18856   3.961   2.391   7.675  2.1648  0.6679 -0.2756
  167SAPS   H4S18857   4.048   2.429   7.821  0.4547 -1.8844 -1.6158
  167SAPS   C2518858   3.950   2.609   7.725 -0.2089 -0.1199 -0.1261
  167SAPS   H5R18859   3.989   2.679   7.800  1.7550  1.2716 -2.3100
  167SAPS   C2618860   3.918   2.662   7.604  0.6500  0.4174  0.3067
  167SAPS   H6R18861   3.912   2.771   7.592 -0.9111  0.0811 -2.7877
  167SAPS   C2718862   3.842   2.586   7.498 -0.1446 -0.1609  0.0653
  167SAPS   H7R18863   3.803   2.489   7.534  1.4540 -0.8268  0.0888
  167SAPS   H7S18864   3.918   2.558   7.422  0.2567 -3.3158  1.4708
  167SAPS   C2818865   3.734   2.672   7.441  0.5512 -0.1065 -0.7465
  167SAPS   H8R18866   3.664   2.700   7.521 -0.8559 -0.6818 -1.7377
  167SAPS   C2918867   3.709   2.697   7.310 -0.1704  0.0973  0.4999
  167SAPS   H9R18868   3.623   2.762   7.287 -1.1654 -0.3462  2.6335
  167SAPS  C21018869   3.778   2.664   7.183 -0.3452  0.6956  0.1595
  167SAPS  H10R18870   3.878   2.620   7.205 -0.6034 -0.3266 -0.6259
  167SAPS  H10S18871   3.804   2.754   7.123  1.5516  0.4609  0.5586
  167SAPS  C21118872   3.709   2.570   7.093 -0.0926  0.4282 -0.1641
  167SAPS  H11R18873   3.694   2.472   7.141  1.4488 -0.2077 -0.8927
  167SAPS  C21218874   3.671   2.583   6.961 -0.2270 -0.1808 -0.6378
  167SAPS  H12R18875   3.614   2.494   6.930 -0.2339 -1.3319  2.3361
  167SAPS  C21318876   3.675   2.700   6.870  0.1294  0.0965 -0.4626
  167SAPS  H13R18877   3.752   2.770   6.906  1.3730 -0.4287 -1.9690
  167SAPS  H13S18878   3.574   2.746   6.881 -0.0753 -0.6849  1.3018
  167SAPS  C21418879   3.692   2.657   6.731 -0.4075 -0.3304 -0.0901
  167SAPS  H14R18880   3.638   2.567   6.698  0.5297 -0.5304 -1.1587
  167SAPS  C21518881   3.738   2.743   6.635 -0.8251 -0.7803  0.3410
  167SAPS  H15R18882   3.755   2.700   6.535  0.5598  1.1643 -0.3075
  167SAPS  C21618883   3.798   2.885   6.648 -0.2057 -0.1140 -0.1232
  167SAPS  H16R18884   3.837   2.909   6.749 -1.8817 -1.9123  1.0284
  167SAPS  H16S18885   3.720   2.963   6.636 -1.5121 -1.2890  0.4289
  167SAPS  C21718886   3.906   2.910   6.544 -0.3570 -0.7021 -0.0112
  167SAPS  H17R18887   3.998   2.848   6.542  0.5730  0.5633  1.5431
  167SAPS  H17S18888   3.933   3.015   6.564 -1.0971 -0.7375  1.2658
  167SAPS  C21818889   3.846   2.917   6.397 -0.0827 -1.2152  0.3647
  167SAPS  H18R18890   3.759   2.986   6.408  0.5817 -0.4860  1.2331
  167SAPS  H18S18891   3.805   2.818   6.370  0.3056 -0.9528 -1.2773
  167SAPS  C21918892   3.943   2.968   6.294 -0.9348 -0.8943 -0.5605
  167SAPS  H19R18893   4.029   2.897   6.292 -0.4932 -0.3825 -0.1108
  167SAPS  H19S18894   3.982   3.066   6.330 -4.7522  1.7304 -2.8077
  167SAPS  C22018895   3.885   2.981   6.153 -0.1325 -0.6821  0.8698
  167SAPS  H20R18896   3.961   2.993   6.072  1.3524 -1.3696  2.0960
  167SAPS  H20S18897   3.823   3.072   6.160  0.8401  0.0406  0.3952
  167SAPS  H20T18898   3.846   2.879   6.129 -0.1519 -0.4585 -0.0924
  167SAPS   C3318899   3.592   2.995   7.828  0.2277  0.3170  1.1045
  167SAPS   H3X18900   3.631   3.095   7.855 -0.9029  1.1428 -0.1629
  167SAPS   H3Y18901   3.507   2.960   7.891  1.3810 -1.5113  1.6946
  167SAPS   C3418902   3.542   3.010   7.681 -0.1674  0.5651 -0.5975
  167SAPS   H4X18903   3.471   3.094   7.666 -2.0987 -1.1618 -1.7842
  167SAPS   H4Y18904   3.484   2.919   7.656  0.7170  0.5576 -2.8663
  167SAPS   C3518905   3.652   3.039   7.581 -0.3081 -0.4014 -0.0041
  167SAPS   H5X18906   3.723   2.953   7.583 -0.4887 -0.5437  0.6155
  167SAPS   H5Y18907   3.705   3.132   7.610 -0.9578  0.4987 -1.6027
  167SAPS   C3618908   3.601   3.060   7.438 -0.3072  0.2827 -0.5867
  167SAPS   H6X18909   3.528   2.984   7.402  2.4939 -1.9544 -1.8982
  167SAPS   H6Y18910   3.684   3.042   7.367 -0.7772  1.4395 -1.4635
  167SAPS   C3718911   3.548   3.198   7.396  0.0865 -0.0062 -0.2661
  167SAPS   H7X18912   3.625   3.277   7.404  0.3757 -0.1157 -1.6265
  167SAPS   H7Y18913   3.452   3.223   7.448 -0.1687 -1.3272 -0.0780
  167SAPS   C3818914   3.514   3.207   7.245  0.3604  0.3353  0.2666
  167SAPS   H8X18915   3.413   3.161   7.236  0.6218  0.1791 -3.1337
  167SAPS   H8Y18916   3.595   3.153   7.192  0.3149  1.1407 -0.6505
  167SAPS   C3918917   3.514   3.351   7.198  0.1066 -0.2354  0.1991
  167SAPS   H9X18918   3.608   3.399   7.232 -0.7942  1.3108  0.5893
  167SAPS   H9Y18919   3.434   3.416   7.241 -0.3145  1.7094 -3.1226
  167SAPS  C31018920   3.498   3.371   7.043  0.0697  0.5148  0.6791
  167SAPS  H10X18921   3.409   3.308   7.019  0.7240 -0.6753  1.3147
  167SAPS  H10Y18922   3.575   3.318   6.984  0.7245 -0.7172  2.5390
  167SAPS  C31118923   3.485   3.514   6.990  0.0428  0.2532  0.0856
  167SAPS  H11X18924   3.578   3.568   7.018 -0.3867  1.1823 -0.2658
  167SAPS  H11Y18925   3.399   3.560   7.043 -1.3147 -1.3271 -0.6444
  167SAPS  C31218926   3.454   3.519   6.839 -0.5812  0.4156 -0.3898
  167SAPS  H12X18927   3.440   3.628   6.826 -0.9682  0.2440 -1.5220
  167SAPS  H12Y18928   3.350   3.486   6.816  0.6334 -2.5893 -2.2937
  167SAPS  C31318929   3.563   3.461   6.751 -0.5678  0.5894 -0.0064
  167SAPS  H13X18930   3.591   3.356   6.775  0.1032  0.8952  0.5806
  167SAPS  H13Y18931   3.649   3.527   6.776  0.1105 -0.2157 -0.1808
  167SAPS  C31418932   3.530   3.458   6.602 -0.1655 -0.2693  0.0746
  167SAPS  H14X18933   3.513   3.556   6.553 -1.7606 -1.1122 -1.1556
  167SAPS  H14Y18934   3.439   3.396   6.585 -0.4983  0.3587 -0.4747
  167SAPS  C31518935   3.648   3.387   6.531  0.0661 -0.0076 -0.6167
  167SAPS  H15X18936   3.646   3.277   6.550  0.5655  0.0311 -0.3255
  167SAPS  H15Y18937   3.740   3.422   6.583 -1.5027  0.1755  2.2790
  167SAPS  C31618938   3.652   3.411   6.383  0.2479  0.2933 -0.0046
  167SAPS  H16X18939   3.645   3.522   6.378 -0.4358  0.2583  0.0558
  167SAPS  H16Y18940   3.564   3.367   6.331  1.3047  0.3535 -1.9582
  167SAPS  C31718941   3.787   3.387   6.324  0.0174 -0.6624  0.1389
  167SAPS  H17X18942   3.811   3.282   6.298  3.9062  0.3467 -1.1203
  167SAPS  H17Y18943   3.876   3.423   6.379 -1.3062  1.2373  1.1694
  167SAPS  C31818944   3.803   3.465   6.188 -0.3714  0.4494 -0.6331
  167SAPS  H18X18945   3.723   3.427   6.121  1.6533 -2.3317 -1.6784
  167SAPS  H18Y18946   3.902   3.451   6.139 -0.2817  0.4474 -0.4545
  167SAPS  H18Z18947   3.795   3.575   6.202 -0.3348  0.5175 -1.1335
  168SAPS     N18948   1.884   1.768   8.214  0.0922 -0.6476  0.6632
  168SAPS   HN118949   1.912   1.850   8.156 -0.2090 -0.4904  0.7360
  168SAPS   HN218950   1.871   1.804   8.311 -0.4382  3.0427 -0.5992
  168SAPS   HN318951   1.958   1.696   8.201 -0.4550 -1.3038  1.1204
  168SAPS   C1218952   1.760   1.713   8.148  0.3063 -1.2487 -0.4663
  168SAPS  H12A18953   1.780   1.670   8.051  0.0727  0.7714 -1.4580
  168SAPS   C1318954   1.696   1.604   8.236  0.7528  0.5614  0.2943
  168SAPS  O13A18955   1.729   1.585   8.352 -0.0285  0.3025 -0.0376
  168SAPS  O13B18956   1.601   1.540   8.174 -0.1233 -0.7249 -0.1220
  168SAPS   C1118957   1.653   1.829   8.129  0.4963 -0.2116  0.0714
  168SAPS  H11A18958   1.624   1.857   8.233 -0.3438 -0.5181 -0.0692
  168SAPS  H11B18959   1.569   1.776   8.079  1.0769 -1.8132  0.7034
  168SAPS     P18960   1.601   2.017   7.961  0.0002  0.2127 -0.0032
  168SAPS   O1318961   1.461   1.986   8.010 -0.0721  0.2511  0.2380
  168SAPS   O1418962   1.638   2.159   7.938 -0.1535  0.1373 -0.6048
  168SAPS   O1218963   1.697   1.956   8.069 -0.0509  0.1789  0.4186
  168SAPS   O1118964   1.622   1.934   7.826  0.0862  0.3899 -0.2593
  168SAPS    C118965   1.751   1.904   7.787 -0.0130  0.7301  0.4374
  168SAPS    HA18966   1.823   1.982   7.821  1.1369  0.8498 -2.0272
  168SAPS    HB18967   1.781   1.805   7.829  1.3502  1.0154  0.1746
  168SAPS    C218968   1.776   1.895   7.633  0.0683 -0.5020 -0.2595
  168SAPS    HS18969   1.885   1.884   7.615  0.0740  0.3082 -0.7737
  168SAPS   O2118970   1.726   2.009   7.565  0.7252 -0.1289 -0.5437
  168SAPS   C2118971   1.796   2.123   7.581 -0.8142  0.3841 -0.6654
  168SAPS   O2218972   1.892   2.138   7.653  0.1767 -0.4040  0.2056
  168SAPS   C2218973   1.740   2.234   7.495 -0.6113  0.1804 -0.6996
  168SAPS   H2R18974   1.631   2.215   7.495 -0.3852 -1.3018  0.4826
  168SAPS   H2S18975   1.760   2.327   7.552 -1.9897 -0.0499  0.1737
  168SAPS    C318976   1.721   1.763   7.569 -0.0822 -0.3879 -0.0727
  168SAPS    HX18977   1.622   1.749   7.617  0.0791  2.6090  1.3812
  168SAPS    HY18978   1.786   1.680   7.605  1.5321  0.6462 -0.4673
  168SAPS   O3118979   1.717   1.760   7.424  0.0434 -0.1312 -0.2971
  168SAPS   C3118980   1.604   1.798   7.367  0.5622  1.0484  0.6076
  168SAPS   O3218981   1.504   1.839   7.420 -0.5684  0.0701  0.0746
  168SAPS   C3218982   1.616   1.773   7.219  0.5600  0.2705  0.1390
  168SAPS   H2X18983   1.629   1.664   7.204  1.9971  0.2483  1.3639
  168SAPS   H2Y18984   1.691   1.844   7.178  0.5839 -0.5291 -1.2603
  168SAPS   C2318985   1.791   2.225   7.348 -0.1605  0.1583  0.0783
  168SAPS   H3R18986   1.729   2.292   7.285 -0.1338  1.2672  1.2078
  168SAPS   H3S18987   1.775   2.122   7.308 -2.0909 -0.6815  2.7003
  168SAPS   C2418988   1.938   2.269   7.320  0.1969 -0.0069 -0.0479
  168SAPS   H4R18989   1.957   2.258   7.211 -2.0965  0.9087 -0.5922
  168SAPS   H4S18990   2.003   2.195   7.371 -2.2594 -2.7041 -0.5673
  168SAPS   C2518991   1.959   2.408   7.371 -0.0913 -0.1717  0.2253
  168SAPS   H5R18992   1.997   2.411   7.474  0.5589  1.7064 -0.0252
  168SAPS   C2618993   1.962   2.526   7.295 -0.3140 -0.0156 -0.2076
  168SAPS   H6R18994   1.988   2.616   7.353 -0.7855 -0.1445  0.2008
  168SAPS   C2718995   1.949   2.545   7.146  0.0410  0.3304 -0.2788
  168SAPS   H7R18996   1.889   2.459   7.111 -1.6192  0.8287  1.1899
  168SAPS   H7S18997   2.051   2.536   7.104  0.4887  1.8332  0.3904
  168SAPS   C2818998   1.891   2.678   7.104 -0.5553  0.2139 -0.5106
  168SAPS   H8R18999   1.844   2.745   7.177  0.6067 -0.2758  0.7347
  168SAPS   C2919000   1.927   2.740   6.992 -0.3674 -0.4250 -0.8379
  168SAPS   H9R19001   1.872   2.835   6.980 -2.4226 -1.5374 -0.7826
  168SAPS  C21019002   2.011   2.694   6.876  0.0399 -1.0169 -0.5294
  168SAPS  H10R19003   2.056   2.593   6.892  0.5474 -0.9599 -1.4672
  168SAPS  H10S19004   2.093   2.765   6.850 -0.4217 -0.0186  0.7170
  168SAPS  C21119005   1.927   2.671   6.754 -0.2190  0.8115 -0.0050
  168SAPS  H11R19006   1.826   2.633   6.777  0.9770 -2.2019  0.7182
  168SAPS  C21219007   1.970   2.676   6.624  0.0327  0.3754  0.2802
  168SAPS  H12R19008   1.901   2.636   6.548  0.0690  1.4757 -0.3542
  168SAPS  C21319009   2.110   2.720   6.575  0.0424  0.1040 -0.2420
  168SAPS  H13R19010   2.130   2.653   6.489  0.2934  1.6836 -1.4659
  168SAPS  H13S19011   2.181   2.698   6.658  1.2117  0.2140 -1.1900
  168SAPS  C21419012   2.136   2.870   6.553  0.1932 -0.1890  0.1201
  168SAPS  H14R19013   2.093   2.931   6.634 -0.1581  0.5562 -0.6095
  168SAPS  C21519014   2.200   2.928   6.446  0.0590  0.1351  0.0442
  168SAPS  H15R19015   2.225   3.035   6.447 -2.8774  1.0157 -2.7299
  168SAPS  C21619016   2.276   2.853   6.340  0.1658  0.5455  0.7547
  168SAPS  H16R19017   2.254   2.745   6.353  0.3313  0.6589  2.1135
  168SAPS  H16S19018   2.385   2.869   6.348  0.8257 -2.6676 -0.1258
  168SAPS  C21719019   2.238   2.898   6.195  0.1841 -0.4593  0.5260
  168SAPS  H17R19020   2.231   3.009   6.194  0.9267 -0.3735 -1.7982
  168SAPS  H17S19021   2.142   2.851   6.165 -0.6978 -0.3533  2.9543
  168SAPS  C21819022   2.356   2.865   6.096  0.2573 -0.1987  0.1628
  168SAPS  H18R19023   2.367   2.755   6.084  0.8709  0.1074 -2.9534
  168SAPS  H18S19024   2.447   2.916   6.134  0.1161 -0.6424  1.1380
  168SAPS  C21919025   2.327   2.927   5.959  0.4507 -0.1607  0.3365
  168SAPS  H19R19026   2.286   3.029   5.970  0.9201 -0.0979  1.6233
  168SAPS  H19S19027   2.253   2.858   5.912  0.3773  1.9769 -3.0731
  168SAPS  C22019028   2.449   2.925   5.861  0.5336  0.2014  0.0325
  168SAPS  H20R19029   2.496   2.825   5.873 -0.1119 -0.2049 -0.7764
  168SAPS  H20S19030   2.518   3.005   5.898 -0.6954  0.2563  2.4381
  168SAPS  H20T19031   2.409   2.939   5.759  0.1468  1.2372  0.3153
  168SAPS   C3319032   1.482   1.816   7.146  0.0293  0.0701  0.6912
  168SAPS   H3X19033   1.468   1.926   7.151 -0.0469  0.0196  2.6919
  168SAPS   H3Y19034   1.401   1.763   7.201 -0.5086  0.2106  0.0488
  168SAPS   C3419035   1.479   1.774   6.996  0.3320 -0.2871 -0.4718
  168SAPS   H4X19036   1.378   1.780   6.949 -0.6403  0.0369  1.5595
  168SAPS   H4Y19037   1.504   1.666   6.991 -0.1265 -0.6175  2.5852
  168SAPS   C3519038   1.581   1.850   6.908  0.8853  0.0239  0.1872
  168SAPS   H5X19039   1.686   1.834   6.941  1.0557 -0.5873 -0.6394
  168SAPS   H5Y19040   1.557   1.959   6.907 -1.5822 -0.4634  0.1212
  168SAPS   C3619041   1.575   1.810   6.761  0.2873 -0.0663  0.0927
  168SAPS   H6X19042   1.469   1.826   6.732 -0.0187  1.9700  1.9997
  168SAPS   H6Y19043   1.591   1.700   6.759 -0.3937 -0.1684 -1.8084
  168SAPS   C3719044   1.675   1.883   6.675  0.6708  0.3263  0.5585
  168SAPS   H7X19045   1.776   1.846   6.704 -0.1586 -2.1192  0.6095
  168SAPS   H7Y19046   1.668   1.993   6.688 -1.5972  0.6213 -2.1513
  168SAPS   C3819047   1.651   1.844   6.529  0.1180 -0.5365  0.2748
  168SAPS   H8X19048   1.543   1.846   6.503 -0.0524 -3.2833  0.4696
  168SAPS   H8Y19049   1.687   1.740   6.510  0.3490 -0.4141  0.0465
  168SAPS   C3919050   1.717   1.932   6.422 -0.4044  0.1436  0.2922
  168SAPS   H9X19051   1.821   1.950   6.456 -0.1175 -1.1992  0.1679
  168SAPS   H9Y19052   1.672   2.034   6.425 -0.6615  0.0580 -0.3835
  168SAPS  C31019053   1.717   1.876   6.282  0.9929  0.0687 -0.9857
  168SAPS  H10X19054   1.609   1.865   6.259 -0.2062  1.2727  3.2133
  168SAPS  H10Y19055   1.768   1.777   6.273  1.7803  0.3180  0.3969
  168SAPS  C31119056   1.774   1.969   6.179  0.4608  0.2868 -0.6206
  168SAPS  H11X19057   1.883   1.961   6.197  0.3424 -0.4862 -0.1972
  168SAPS  H11Y19058   1.742   2.074   6.201 -0.7783 -0.2179  0.0990
  168SAPS  C31219059   1.737   1.933   6.035 -0.1451  0.2711 -0.1253
  168SAPS  H12X19060   1.632   1.963   6.016  0.0277  0.5312 -0.6925
  168SAPS  H12Y19061   1.740   1.824   6.016 -0.4159 -0.0048  1.2767
  168SAPS  C31319062   1.830   1.991   5.938 -0.2618  0.4166  0.4589
  168SAPS  H13X19063   1.779   1.969   5.841  0.5888  1.8926 -0.3570
  168SAPS  H13Y19064   1.924   1.932   5.938 -0.1008  0.6669  1.4695
  168SAPS  C31419065   1.852   2.144   5.946  0.0318  0.0919 -0.1558
  168SAPS  H14X19066   1.912   2.169   6.035  1.2973 -0.0403 -0.9461
  168SAPS  H14Y19067   1.754   2.198   5.949  0.3252  0.5888  1.9559
  168SAPS  C31519068   1.935   2.200   5.826  0.0401  0.0784 -0.3488
  168SAPS  H15X19069   2.027   2.143   5.805  0.7848  1.3112 -0.5449
  168SAPS  H15Y19070   1.968   2.305   5.843  0.6915  0.1290 -1.7363
  168SAPS  C31619071   1.850   2.205   5.696  0.9479 -0.0156  0.2984
  168SAPS  H16X19072   1.823   2.098   5.688 -0.9913  0.4985 -0.4447
  168SAPS  H16Y19073   1.920   2.231   5.613 -1.0563  2.0688 -0.8369
  168SAPS  C31719074   1.733   2.302   5.710  0.1930  0.3927 -0.1031
  168SAPS  H17X19075   1.782   2.400   5.731  1.8649 -0.3033 -0.5724
  168SAPS  H17Y19076   1.662   2.281   5.793 -0.1040  1.0668 -0.1824
  168SAPS  C31819077   1.652   2.318   5.578  0.4217  0.3039 -0.1982
  168SAPS  H18X19078   1.718   2.343   5.493 -1.8202 -0.1918 -2.2104
  168SAPS  H18Y19079   1.565   2.388   5.587 -0.9317 -1.3390  0.0645
  168SAPS  H18Z19080   1.614   2.216   5.557 -1.8837  1.2172 -0.8380
  169SAPS     N19081   5.197   0.114   8.201  0.1519  0.7892  0.3646
  169SAPS   HN119082   5.278   0.178   8.219  0.3559  0.7695 -0.4452
  169SAPS   HN219083   5.239   0.020   8.192 -1.2324  0.0767  1.1138
  169SAPS   HN319084   5.149   0.143   8.113  0.7343  0.2650 -0.1349
  169SAPS   C1219085   5.097   0.101   8.306 -0.2494  0.2058 -0.0497
  169SAPS  H12A19086   5.141   0.045   8.387  0.8952  0.6367 -0.3601
  169SAPS   C1319087   5.049   0.240   8.353  0.1000  0.2914  0.1269
  169SAPS  O13A19088   5.116   0.342   8.332  0.1192  0.3565 -1.1550
  169SAPS  O13B19089   4.947   0.247   8.427 -0.2947 -0.0231 -0.1317
  169SAPS   C1119090   4.975   0.023   8.253 -0.5418  0.3702  0.2721
  169SAPS  H11A19091   4.912   0.088   8.189  1.1602  1.9050  0.0519
  169SAPS  H11B19092   4.912  -0.011   8.339 -0.3818  0.6418  0.5001
  169SAPS     P19093   4.933  -0.215   8.164  0.3543  0.0970 -0.0578
  169SAPS   O1319094   5.011  -0.323   8.106  0.0827  0.0001 -0.4216
  169SAPS   O1419095   4.851  -0.237   8.286 -0.3894 -0.4476 -0.2455
  169SAPS   O1219096   5.030  -0.093   8.191 -0.3978  0.4813  0.0292
  169SAPS   O1119097   4.835  -0.177   8.048  0.0848  0.2100 -0.1041
  169SAPS    C119098   4.694  -0.181   8.071  0.7157  0.4701  0.2575
  169SAPS    HA19099   4.658  -0.280   8.106 -0.9830  0.9299 -0.1217
  169SAPS    HB19100   4.662  -0.101   8.141 -0.4883  1.6775 -1.5688
  169SAPS    C219101   4.622  -0.163   7.935 -0.5747  0.4806 -0.3658
  169SAPS    HS19102   4.521  -0.208   7.940 -0.7626  0.9048 -0.2286
  169SAPS   O2119103   4.704  -0.217   7.828 -0.8469 -0.3721 -0.5596
  169SAPS   C2119104   4.725  -0.353   7.822  0.1841 -0.3815 -0.4828
  169SAPS   O2219105   4.686  -0.432   7.903 -0.2934 -0.2324  0.3061
  169SAPS   C2219106   4.816  -0.387   7.712 -0.0726  0.2255 -1.0175
  169SAPS   H2R19107   4.763  -0.455   7.642  1.4398  0.5301 -2.5227
  169SAPS   H2S19108   4.832  -0.298   7.648 -1.8213  1.1262 -0.2496
  169SAPS    C319109   4.602  -0.008   7.909  0.0324 -0.0684  0.4673
  169SAPS    HX19110   4.704   0.034   7.895 -1.0176  2.9029  1.0107
  169SAPS    HY19111   4.547   0.029   7.998 -0.1090 -2.5684  1.4924
  169SAPS   O3119112   4.517   0.018   7.789  0.2314 -0.1038 -0.0365
  169SAPS   C3119113   4.580   0.045   7.676  0.4269  0.1280 -0.0938
  169SAPS   O3219114   4.700   0.061   7.661  0.0096 -0.6684  0.1239
  169SAPS   C3219115   4.474   0.045   7.560 -0.2090 -0.4294  0.2640
  169SAPS   H2X19116   4.444   0.151   7.540  0.0663 -0.0915  1.5328
  169SAPS   H2Y19117   4.384  -0.006   7.601 -0.0301  0.8862  2.4662
  169SAPS   C2319118   4.954  -0.448   7.762 -0.6564 -0.2702 -0.3583
  169SAPS   H3R19119   4.931  -0.546   7.808 -2.9838 -0.8784 -2.5719
  169SAPS   H3S19120   5.005  -0.376   7.829 -1.8830  1.5544 -1.2938
  169SAPS   C2419121   5.059  -0.467   7.651 -0.2682  0.0185  0.1463
  169SAPS   H4R19122   5.165  -0.482   7.681 -0.0962 -1.0451 -0.9303
  169SAPS   H4S19123   5.064  -0.370   7.598 -0.8276 -0.4986 -0.8828
  169SAPS   C2519124   5.021  -0.580   7.560 -0.4273  0.5627  0.5057
  169SAPS   H5R19125   5.023  -0.681   7.603  1.1345  0.7580  0.9272
  169SAPS   C2619126   4.967  -0.556   7.439  0.4426  0.0402  1.7266
  169SAPS   H6R19127   4.938  -0.643   7.377  4.6029  0.9033 -1.9048
  169SAPS   C2719128   4.940  -0.426   7.371 -0.2466  0.3295 -0.0280
  169SAPS   H7R19129   4.890  -0.359   7.444  1.1552  1.0500  0.2994
  169SAPS   H7S19130   4.864  -0.437   7.290  0.5803 -1.3129 -0.6234
  169SAPS   C2819131   5.074  -0.372   7.330  0.1078 -0.3559  0.4112
  169SAPS   H8R19132   5.124  -0.322   7.415  0.1090 -0.3585  0.4124
  169SAPS   C2919133   5.136  -0.385   7.216  0.2598 -0.0481  0.0802
  169SAPS   H9R19134   5.235  -0.339   7.202  0.8762 -0.6288  2.0766
  169SAPS  C21019135   5.079  -0.457   7.097  0.0395 -0.0269  1.1565
  169SAPS  H10R19136   5.007  -0.537   7.126 -1.3731  1.0320  0.6898
  169SAPS  H10S19137   5.165  -0.503   7.045 -0.1030 -0.8864  1.6445
  169SAPS  C21119138   5.007  -0.372   6.997 -0.1955  0.3257 -0.0593
  169SAPS  H11R19139   5.007  -0.265   7.021  0.8884 -0.1162  2.1456
  169SAPS  C21219140   4.933  -0.408   6.893 -0.0373  0.0744 -0.5916
  169SAPS  H12R19141   4.858  -0.339   6.853 -1.2125 -0.7101  0.1926
  169SAPS  C21319142   4.904  -0.543   6.847 -0.1851  0.5477 -0.2959
  169SAPS  H13R19143   4.805  -0.553   6.799  0.5036 -1.9908 -1.3646
  169SAPS  H13S19144   4.884  -0.615   6.929  2.3831 -1.9791 -1.6818
  169SAPS  C21419145   5.022  -0.609   6.769 -0.3096  0.0152  0.2031
  169SAPS  H14R19146   5.120  -0.613   6.818 -0.1506  0.6130 -0.0563
  169SAPS  C21519147   5.020  -0.666   6.645 -0.6332  0.0249  0.3507
  169SAPS  H15R19148   5.113  -0.705   6.601 -0.6680  0.3679 -0.0250
  169SAPS  C21619149   4.898  -0.681   6.555 -0.2868  0.1510 -0.3351
  169SAPS  H16R19150   4.918  -0.646   6.452 -3.5681  0.0638 -1.1282
  169SAPS  H16S19151   4.818  -0.616   6.596 -0.3323 -0.4809  0.6115
  169SAPS  C21719152   4.840  -0.826   6.548 -0.9657  0.0394  0.4561
  169SAPS  H17R19153   4.930  -0.889   6.529 -2.0459 -1.0392 -1.4896
  169SAPS  H17S19154   4.780  -0.840   6.455  1.2026 -0.2531 -0.9700
  169SAPS  C21819155   4.751  -0.861   6.664  0.5937 -0.2831 -0.0233
  169SAPS  H18R19156   4.654  -0.808   6.651 -0.3182 -1.8565  0.1761
  169SAPS  H18S19157   4.781  -0.826   6.765 -2.7791  1.5765  0.4796
  169SAPS  C21919158   4.712  -1.011   6.670  0.0152 -0.7872  0.0376
  169SAPS  H19R19159   4.780  -1.077   6.728  1.3085  2.2641  2.2652
  169SAPS  H19S19160   4.716  -1.048   6.566 -0.8004 -0.5485 -0.0864
  169SAPS  C22019161   4.564  -1.033   6.722  0.0623 -0.3961  0.0812
  169SAPS  H20R19162   4.529  -0.943   6.779  1.8532  1.0157 -0.9291
  169SAPS  H20S19163   4.563  -1.118   6.793 -0.0421 -2.2679 -2.0797
  169SAPS  H20T19164   4.493  -1.040   6.637  0.1221  1.0933 -0.1215
  169SAPS   C3319165   4.522  -0.025   7.430  0.2275 -1.0056  0.5104
  169SAPS   H3X19166   4.620   0.008   7.388  0.4714 -2.2675  0.0479
  169SAPS   H3Y19167   4.443  -0.026   7.352  1.8487 -0.6088 -1.2148
  169SAPS   C3419168   4.558  -0.172   7.457  0.4389  0.0893 -0.2094
  169SAPS   H4X19169   4.472  -0.228   7.498 -0.2660  1.1627 -0.1846
  169SAPS   H4Y19170   4.642  -0.188   7.528 -1.7356 -0.4297  2.4235
  169SAPS   C3519171   4.616  -0.235   7.331 -0.5906  0.1319 -0.7891
  169SAPS   H5X19172   4.625  -0.345   7.348  1.9495  0.2081 -1.3354
  169SAPS   H5Y19173   4.722  -0.202   7.326 -0.5059 -0.0822 -0.4570
  169SAPS   C3619174   4.546  -0.200   7.203 -0.6711 -0.1898  0.0526
  169SAPS   H6X19175   4.570  -0.094   7.180 -1.4838 -0.2974 -1.3680
  169SAPS   H6Y19176   4.439  -0.225   7.216 -0.9392  1.3256  0.9287
  169SAPS   C3719177   4.614  -0.278   7.083  0.0283  0.2606  0.0257
  169SAPS   H7X19178   4.643  -0.373   7.133 -0.8818  1.3715  2.8784
  169SAPS   H7Y19179   4.709  -0.241   7.039 -0.2271  0.1312 -0.6336
  169SAPS   C3819180   4.515  -0.293   6.968  0.1455 -0.1847 -0.2272
  169SAPS   H8X19181   4.491  -0.190   6.934  1.9144 -0.1677 -1.5943
  169SAPS   H8Y19182   4.423  -0.346   7.002  1.3179 -2.6068 -0.6379
  169SAPS   C3919183   4.559  -0.386   6.850 -0.5519  0.0734 -0.1500
  169SAPS   H9X19184   4.590  -0.480   6.901 -0.4384  0.1662 -0.0513
  169SAPS   H9Y19185   4.644  -0.342   6.795  1.3632 -0.9105  1.8641
  169SAPS  C31019186   4.439  -0.439   6.773 -0.2968  0.9718 -0.5791
  169SAPS  H10X19187   4.389  -0.366   6.706  1.8782  0.3338 -3.0452
  169SAPS  H10Y19188   4.369  -0.489   6.843  0.0925 -0.3757 -1.1250
  169SAPS  C31119189   4.494  -0.539   6.672 -0.1995  0.1592 -0.3260
  169SAPS  H11X19190   4.550  -0.607   6.740  0.4133  0.2351 -0.7475
  169SAPS  H11Y19191   4.566  -0.493   6.601 -2.3763  2.3533 -1.2614
  169SAPS  C31219192   4.389  -0.622   6.605 -0.1605 -0.1478  0.3259
  169SAPS  H12X19193   4.313  -0.667   6.673 -0.0147 -0.6036  0.1970
  169SAPS  H12Y19194   4.450  -0.702   6.556  0.7665  1.8853 -2.0369
  169SAPS  C31319195   4.317  -0.540   6.505  0.8734  0.1116  0.0882
  169SAPS  H13X19196   4.397  -0.493   6.445 -0.4345  0.2866 -1.5712
  169SAPS  H13Y19197   4.245  -0.471   6.555 -1.4596 -3.8464  2.7859
  169SAPS  C31419198   4.235  -0.634   6.406 -0.9316  0.2934 -0.3702
  169SAPS  H14X19199   4.171  -0.704   6.464  0.0240 -0.1182  0.2190
  169SAPS  H14Y19200   4.307  -0.704   6.358  1.2468  1.6730  0.7158
  169SAPS  C31519201   4.166  -0.558   6.299  0.2771  0.7209  0.7203
  169SAPS  H15X19202   4.242  -0.501   6.242  0.6812 -0.1131  0.4063
  169SAPS  H15Y19203   4.098  -0.491   6.356  0.7720 -0.4238  2.7383
  169SAPS  C31619204   4.068  -0.637   6.208  0.6891 -0.5347 -0.6147
  169SAPS  H16X19205   4.117  -0.718   6.149  0.2561 -0.7870 -0.6272
  169SAPS  H16Y19206   4.033  -0.566   6.130  1.3518  0.7366  0.2025
  169SAPS  C31719207   3.946  -0.698   6.284  0.0344 -0.6709 -0.6632
  169SAPS  H17X19208   3.882  -0.622   6.334 -1.6323 -2.6313  0.3461
  169SAPS  H17Y19209   3.986  -0.761   6.367  0.5584  0.6926  0.1607
  169SAPS  C31819210   3.854  -0.786   6.199 -0.4946  0.0294  0.0228
  169SAPS  H18X19211   3.765  -0.816   6.258 -1.4456 -0.5147 -1.6274
  169SAPS  H18Y19212   3.908  -0.881   6.184  2.2052  1.6274 -1.0689
  169SAPS  H18Z19213   3.825  -0.733   6.105 -0.3310 -0.8523 -0.5346
  170SAPS     N19214   4.879   5.442   8.436  0.4251 -0.1221 -0.1121
  170SAPS   HN119215   4.804   5.396   8.380  1.7734 -0.1202 -2.0067
  170SAPS   HN219216   4.895   5.536   8.393  0.8785 -0.8746 -1.6827
  170SAPS   HN319217   4.967   5.387   8.434  0.7729  0.3118  1.6509
  170SAPS   C1219218   4.835   5.449   8.582  0.9518  0.0857  0.0569
  170SAPS  H12A19219   4.854   5.354   8.630 -0.9294  0.9037  2.6482
  170SAPS   C1319220   4.909   5.550   8.670 -0.4353  0.0334 -0.4219
  170SAPS  O13A19221   4.970   5.650   8.618  0.5914 -0.1649 -0.4594
  170SAPS  O13B19222   4.888   5.556   8.796 -0.5245  0.1960 -0.0492
  170SAPS   C1119223   4.677   5.479   8.576 -0.3374 -0.0547  0.2331
  170SAPS  H11A19224   4.656   5.572   8.518 -1.6862 -0.9400 -0.7663
  170SAPS  H11B19225   4.649   5.492   8.683  0.5988  1.1135  0.3636
  170SAPS     P19226   4.501   5.285   8.584 -0.5604  0.3617  0.5482
  170SAPS   O1319227   4.540   5.258   8.727 -0.2123  0.0914  0.0511
  170SAPS   O1419228   4.363   5.325   8.563 -0.2322 -0.0780 -0.5894
  170SAPS   O1219229   4.603   5.377   8.510 -0.0312 -0.0093  0.2152
  170SAPS   O1119230   4.514   5.145   8.506  0.0542  0.7244 -0.5597
  170SAPS    C119231   4.636   5.089   8.455  0.8044 -0.5818 -0.6294
  170SAPS    HA19232   4.725   5.155   8.468  1.0605 -1.2964  1.9160
  170SAPS    HB19233   4.664   5.003   8.520 -0.3173 -1.6958 -1.5777
  170SAPS    C219234   4.606   5.040   8.308 -0.1254 -0.7345 -0.0646
  170SAPS    HS19235   4.702   5.009   8.261  0.5945 -0.0081  0.8871
  170SAPS   O2119236   4.537   5.147   8.225  0.0002  0.4998  0.1830
  170SAPS   C2119237   4.616   5.250   8.209  0.0154  0.7275  0.1853
  170SAPS   O2219238   4.737   5.256   8.238  0.2951  0.1567  0.4134
  170SAPS   C2219239   4.531   5.363   8.146  0.4285  0.9239 -0.3661
  170SAPS   H2R19240   4.454   5.323   8.077 -0.8824  2.0924  0.3664
  170SAPS   H2S19241   4.463   5.400   8.226 -0.5336  1.3911 -1.3826
  170SAPS    C319242   4.522   4.909   8.317 -0.4637 -0.7271 -0.2576
  170SAPS    HX19243   4.424   4.946   8.355 -0.0486  1.0527 -0.8353
  170SAPS    HY19244   4.562   4.838   8.392 -1.0379  0.0391  0.7993
  170SAPS   O3119245   4.532   4.840   8.189 -0.2322  0.5924 -0.3766
  170SAPS   C3119246   4.427   4.824   8.126 -0.3598  0.3964 -0.3104
  170SAPS   O3219247   4.320   4.885   8.138  0.0744 -0.1578  0.6425
  170SAPS   C3219248   4.445   4.717   8.013  0.3518  0.1030  1.2109
  170SAPS   H2X19249   4.483   4.764   7.920  1.7625 -4.3469 -0.7197
  170SAPS   H2Y19250   4.350   4.670   7.979  1.3048 -0.0336 -1.4798
  170SAPS   C2319251   4.612   5.473   8.084 -0.0420 -0.2085  0.3303
  170SAPS   H3R19252   4.672   5.437   7.998 -1.8113 -2.5179 -0.0584
  170SAPS   H3S19253   4.686   5.498   8.163 -0.5776 -1.5920  1.3193
  170SAPS   C2419254   4.526   5.587   8.056 -0.7327 -0.0766  0.1548
  170SAPS   H4R19255   4.592   5.675   8.036 -2.3063  0.9281 -0.8407
  170SAPS   H4S19256   4.484   5.622   8.153  2.0985 -0.0500  1.4680
  170SAPS   C2519257   4.427   5.556   7.945  0.1625  0.3229 -0.4851
  170SAPS   H5R19258   4.337   5.503   7.978  0.4617 -0.5582 -1.0485
  170SAPS   C2619259   4.427   5.604   7.815  0.2681 -0.0763 -0.6108
  170SAPS   H6R19260   4.347   5.569   7.748  0.3332 -0.9919 -0.2233
  170SAPS   C2719261   4.528   5.695   7.757 -0.6777  0.2212  0.4617
  170SAPS   H7R19262   4.623   5.681   7.812 -0.0287  1.9502 -0.1474
  170SAPS   H7S19263   4.507   5.801   7.784 -0.2233  0.2339  0.7691
  170SAPS   C2819264   4.557   5.672   7.607 -0.2896  0.2985  0.3188
  170SAPS   H8R19265   4.485   5.705   7.531 -0.0755  0.7971  0.3241
  170SAPS   C2919266   4.673   5.617   7.556 -0.3421 -0.2841 -0.3174
  170SAPS   H9R19267   4.692   5.614   7.447  0.5109  1.5450 -0.2478
  170SAPS  C21019268   4.784   5.561   7.649  0.3802 -0.5271  0.3146
  170SAPS  H10R19269   4.733   5.503   7.729  1.6531 -1.9443  0.1283
  170SAPS  H10S19270   4.830   5.648   7.700  0.9707 -1.0940  0.7637
  170SAPS  C21119271   4.882   5.469   7.584 -1.0541 -0.3696  0.7006
  170SAPS  H11R19272   4.954   5.515   7.515 -2.1539 -0.0473 -0.2841
  170SAPS  C21219273   4.866   5.338   7.607 -0.2161 -0.2607 -0.2092
  170SAPS  H12R19274   4.926   5.267   7.549 -1.4045 -1.1687 -0.3812
  170SAPS  C21319275   4.765   5.257   7.695  0.0174  0.3253  0.4556
  170SAPS  H13R19276   4.733   5.171   7.631  0.4590 -0.1839  0.9108
  170SAPS  H13S19277   4.674   5.315   7.721 -0.4195  0.5730 -1.4709
  170SAPS  C21419278   4.828   5.201   7.818  0.0182  0.6982 -0.3969
  170SAPS  H14R19279   4.912   5.258   7.858 -0.1143 -0.4309  1.5950
  170SAPS  C21519280   4.795   5.083   7.880  0.4070 -0.0169 -0.0670
  170SAPS  H15R19281   4.848   5.056   7.972  1.8407 -1.9988 -1.4115
  170SAPS  C21619282   4.688   4.984   7.844  0.1889  0.2093  0.7882
  170SAPS  H16R19283   4.609   5.027   7.779 -0.2157  1.2046  1.8930
  170SAPS  H16S19284   4.632   4.959   7.937 -1.2647  1.1014  0.2064
  170SAPS  C21719285   4.754   4.850   7.785  0.1844 -0.3976  0.1377
  170SAPS  H17R19286   4.661   4.801   7.750 -0.3964  0.6561  0.1833
  170SAPS  H17S19287   4.815   4.802   7.864 -0.7892  0.1986  1.2633
  170SAPS  C21819288   4.847   4.881   7.663  0.2151  1.0505 -0.3595
  170SAPS  H18R19289   4.945   4.913   7.705  0.2765  2.3863 -1.4803
  170SAPS  H18S19290   4.807   4.964   7.602 -1.1713  0.3806 -0.3923
  170SAPS  C21919291   4.870   4.759   7.568  0.2258  0.1815  0.0493
  170SAPS  H19R19292   4.769   4.721   7.541 -0.2230  1.5546 -0.2985
  170SAPS  H19S19293   4.938   4.688   7.619 -0.8253  0.9765  2.7959
  170SAPS  C22019294   4.942   4.806   7.430 -0.2385  0.5077 -0.0293
  170SAPS  H20R19295   4.915   4.907   7.392 -2.8863 -0.3763 -0.6536
  170SAPS  H20S19296   4.937   4.728   7.352  1.8710  0.6387 -0.3472
  170SAPS  H20T19297   5.050   4.805   7.459 -0.2074  1.8178 -0.0283
  170SAPS   C3319298   4.532   4.593   8.049 -0.6213  0.3079 -0.4677
  170SAPS   H3X19299   4.499   4.556   8.149 -1.4289 -1.7829 -1.4589
  170SAPS   H3Y19300   4.639   4.624   8.048 -0.3820 -0.4841 -0.5276
  170SAPS   C3419301   4.519   4.472   7.953 -0.4793  0.7176 -0.7187
  170SAPS   H4X19302   4.518   4.505   7.847 -0.8842 -0.9816 -1.2827
  170SAPS   H4Y19303   4.420   4.425   7.971  0.5784 -1.8990 -1.2689
  170SAPS   C3519304   4.614   4.350   7.974 -0.0906  0.0352  0.7501
  170SAPS   H5X19305   4.636   4.323   8.079  2.9631  2.3972  0.8285
  170SAPS   H5Y19306   4.712   4.379   7.931 -0.1694 -2.1212 -1.0454
  170SAPS   C3619307   4.565   4.230   7.889 -0.0525  1.3476  0.6862
  170SAPS   H6X19308   4.454   4.222   7.893  0.0109 -0.5024 -0.2108
  170SAPS   H6Y19309   4.615   4.136   7.922 -1.1336 -1.1971 -3.9495
  170SAPS   C3719310   4.599   4.248   7.738 -0.5677 -0.6733  0.3728
  170SAPS   H7X19311   4.710   4.238   7.734 -0.4589 -1.3509  3.1247
  170SAPS   H7Y19312   4.571   4.350   7.703  0.0219 -0.1280  1.4162
  170SAPS   C3819313   4.521   4.146   7.649  0.1719 -0.5610  0.7667
  170SAPS   H8X19314   4.496   4.062   7.718 -0.9595 -0.2568  0.7470
  170SAPS   H8Y19315   4.584   4.104   7.568 -1.5431 -0.4812 -0.6573
  170SAPS   C3919316   4.390   4.200   7.596 -0.7635  0.1879  0.5975
  170SAPS   H9X19317   4.425   4.294   7.547  1.1470 -1.2807 -1.0345
  170SAPS   H9Y19318   4.318   4.216   7.678 -1.7069 -1.0021  0.0334
  170SAPS  C31019319   4.329   4.098   7.508 -0.1925  0.3854  0.1791
  170SAPS  H10X19320   4.334   3.998   7.557 -1.0268  0.7293  0.9782
  170SAPS  H10Y19321   4.386   4.085   7.413  0.5636 -1.0005  0.7861
  170SAPS  C31119322   4.179   4.121   7.485  0.1501 -0.5399  0.4444
  170SAPS  H11X19323   4.114   4.100   7.573 -1.1226  0.4228 -0.2345
  170SAPS  H11Y19324   4.143   4.036   7.423 -0.5700  0.7301 -0.9228
  170SAPS  C31219325   4.157   4.250   7.414  1.2088  0.0999 -0.9429
  170SAPS  H12X19326   4.181   4.330   7.488  2.7090 -0.7347 -0.4803
  170SAPS  H12Y19327   4.049   4.267   7.393  0.8889 -1.3875 -0.6224
  170SAPS  C31319328   4.230   4.291   7.279 -0.3452 -0.1852 -1.4054
  170SAPS  H13X19329   4.340   4.279   7.293 -0.4927 -0.6918 -0.5542
  170SAPS  H13Y19330   4.219   4.399   7.254 -1.5450  0.1855  0.5401
  170SAPS  C31419331   4.186   4.212   7.164  0.4621 -0.1463 -0.1370
  170SAPS  H14X19332   4.095   4.251   7.113 -0.5961 -0.4594  1.4533
  170SAPS  H14Y19333   4.160   4.113   7.205 -1.1675  0.5664  0.6390
  170SAPS  C31519334   4.298   4.193   7.056  0.3186  0.3788 -0.1740
  170SAPS  H15X19335   4.391   4.147   7.096  1.2887 -0.5438 -3.2452
  170SAPS  H15Y19336   4.327   4.291   7.014 -0.2184  0.1443 -1.1145
  170SAPS  C31619337   4.261   4.106   6.938  0.4450  0.3843 -0.2023
  170SAPS  H16X19338   4.161   4.126   6.893 -0.1332 -2.3905 -0.2919
  170SAPS  H16Y19339   4.256   3.998   6.962  0.8012  0.8596  2.2249
  170SAPS  C31719340   4.371   4.116   6.833  0.6463  0.2365  0.3963
  170SAPS  H17X19341   4.467   4.095   6.885  0.5275  3.0696  2.0154
  170SAPS  H17Y19342   4.387   4.216   6.786  0.7967  0.3526  0.6898
  170SAPS  C31819343   4.363   3.999   6.732  0.4436 -0.7886 -0.7203
  170SAPS  H18X19344   4.261   4.002   6.686  0.3182  0.3877 -0.3904
  170SAPS  H18Y19345   4.392   3.907   6.787 -0.9924 -0.8202  0.0322
  170SAPS  H18Z19346   4.443   4.008   6.655  0.9487 -3.0716 -0.5174
  171SAPS     N19347   5.008   4.258   8.962 -0.3919 -0.0546 -0.1114
  171SAPS   HN119348   5.030   4.248   8.860  2.8158 -0.3404  0.4895
  171SAPS   HN219349   4.999   4.159   8.992  0.8970 -0.5131 -1.1161
  171SAPS   HN319350   4.919   4.306   8.983 -0.2089  0.0965  0.3169
  171SAPS   C1219351   5.114   4.330   9.033  0.5574  0.3171 -0.8144
  171SAPS  H12A19352   5.067   4.409   9.091 -0.1838 -0.5061 -0.2654
  171SAPS   C1319353   5.191   4.231   9.123  0.2691  0.5211  0.4120
  171SAPS  O13A19354   5.145   4.118   9.135 -0.3687  0.0314  0.0100
  171SAPS  O13B19355   5.264   4.288   9.204 -0.0291 -0.3612  0.0089
  171SAPS   C1119356   5.213   4.390   8.930 -0.5203  0.1353 -0.0375
  171SAPS  H11A19357   5.258   4.313   8.865  3.7760  0.2545  2.4744
  171SAPS  H11B19358   5.299   4.429   8.988  0.1515 -0.4988 -0.5966
  171SAPS     P19359   5.184   4.641   8.854  0.5107  0.0608 -0.2728
  171SAPS   O1319360   5.080   4.702   8.940 -0.2052  0.0015  0.2436
  171SAPS   O1419361   5.328   4.662   8.893  0.4443  0.5812 -0.0019
  171SAPS   O1219362   5.147   4.488   8.848 -0.1944  0.6232  0.4258
  171SAPS   O1119363   5.178   4.685   8.702 -0.2633 -0.3098 -0.3296
  171SAPS    C119364   5.108   4.611   8.604  0.1450 -0.2133  0.1955
  171SAPS    HA19365   5.018   4.556   8.637 -0.3546 -0.2101 -1.1071
  171SAPS    HB19366   5.089   4.673   8.514  0.5081 -3.2570 -2.1496
  171SAPS    C219367   5.200   4.500   8.552 -0.9016 -0.4796 -0.3636
  171SAPS    HS19368   5.186   4.413   8.620 -0.4430 -1.8421 -1.9404
  171SAPS   O2119369   5.340   4.538   8.533 -0.7928 -0.7783  0.4757
  171SAPS   C2119370   5.433   4.454   8.574  0.2393 -0.2420  0.1063
  171SAPS   O2219371   5.413   4.357   8.647  0.6193 -0.7424 -0.0241
  171SAPS   C2219372   5.566   4.483   8.505  0.3174 -0.0109  0.6209
  171SAPS   H2R19373   5.527   4.504   8.403 -1.3627  0.3330  1.2989
  171SAPS   H2S19374   5.622   4.567   8.550 -0.7061  1.4989 -0.8082
  171SAPS    C319375   5.139   4.451   8.416  0.1554 -0.3196  0.1793
  171SAPS    HX19376   5.154   4.535   8.345 -2.1959  0.2623  0.2807
  171SAPS    HY19377   5.030   4.459   8.436  0.6243  1.6654  2.4781
  171SAPS   O3119378   5.174   4.318   8.367 -0.2893 -0.5179 -0.4274
  171SAPS   C3119379   5.114   4.284   8.252 -0.7269 -0.2091  0.2411
  171SAPS   O3219380   5.051   4.360   8.182 -0.1328  0.1309 -0.5746
  171SAPS   C3219381   5.129   4.132   8.211  0.8063 -0.2930  0.4263
  171SAPS   H2X19382   5.129   4.078   8.308 -2.2506  2.5754  2.2394
  171SAPS   H2Y19383   5.220   4.113   8.149  1.1519  0.7507  0.5884
  171SAPS   C2319384   5.660   4.360   8.483 -1.1987 -0.4280  0.7550
  171SAPS   H3R19385   5.598   4.272   8.457 -1.0935 -0.3880  0.3661
  171SAPS   H3S19386   5.716   4.338   8.577  1.7544  1.0159 -0.5298
  171SAPS   C2419387   5.742   4.364   8.358  0.0060 -0.6243  0.1314
  171SAPS   H4R19388   5.693   4.381   8.260  0.3551  0.4949  0.1325
  171SAPS   H4S19389   5.801   4.271   8.350  1.7188  0.3214  1.1464
  171SAPS   C2519390   5.848   4.467   8.383  0.3758 -0.1307  0.0393
  171SAPS   H5R19391   5.918   4.445   8.465  0.0743 -0.9980  0.0732
  171SAPS   C2619392   5.868   4.571   8.307 -0.2836 -0.6215  0.4113
  171SAPS   H6R19393   5.935   4.653   8.337 -1.4337  0.5837 -0.2170
  171SAPS   C2719394   5.791   4.616   8.184 -0.8332  0.1341 -0.5142
  171SAPS   H7R19395   5.776   4.726   8.190 -0.6205  0.1214  0.3545
  171SAPS   H7S19396   5.688   4.578   8.198 -1.1004  1.1551  0.3965
  171SAPS   C2819397   5.847   4.568   8.052 -0.3489  0.8696 -0.1002
  171SAPS   H8R19398   5.900   4.472   8.059 -0.9145  0.6281  0.9951
  171SAPS   C2919399   5.833   4.630   7.935  0.1390  0.7048  0.0054
  171SAPS   H9R19400   5.874   4.588   7.842 -1.5827  1.5516 -1.1913
  171SAPS  C21019401   5.764   4.759   7.914  0.6086  0.0379  0.9357
  171SAPS  H10R19402   5.680   4.778   7.984  0.0885 -0.4099  0.4462
  171SAPS  H10S19403   5.712   4.755   7.816 -1.9129  1.2713  2.1402
  171SAPS  C21119404   5.854   4.882   7.916 -0.4380  0.7897 -0.3989
  171SAPS  H11R19405   5.946   4.858   7.972  0.2667  2.1006 -0.9701
  171SAPS  C21219406   5.851   4.994   7.837 -0.2932 -0.4513 -0.6232
  171SAPS  H12R19407   5.929   5.071   7.852 -0.6750 -0.3092  0.8053
  171SAPS  C21319408   5.755   5.022   7.722 -0.1480  0.6153  0.3157
  171SAPS  H13R19409   5.722   5.126   7.741 -0.3367  0.3303  1.6441
  171SAPS  H13S19410   5.662   4.961   7.731  2.4207 -4.1552 -1.8206
  171SAPS  C21419411   5.833   5.005   7.590  0.0199 -1.2562  0.0952
  171SAPS  H14R19412   5.924   5.067   7.590 -1.0667  0.3884 -0.1275
  171SAPS  C21519413   5.810   4.926   7.487  0.7134  0.6968  0.0446
  171SAPS  H15R19414   5.873   4.931   7.398 -2.3080 -0.8776 -2.3613
  171SAPS  C21619415   5.705   4.821   7.487  0.1352 -0.1700 -0.1374
  171SAPS  H16R19416   5.614   4.862   7.439 -0.6071  1.4119  2.4337
  171SAPS  H16S19417   5.661   4.800   7.587 -0.3048  0.2305 -0.2463
  171SAPS  C21719418   5.758   4.697   7.428 -0.0854 -0.2756  0.1099
  171SAPS  H17R19419   5.672   4.627   7.432 -1.1207  0.8401 -1.2957
  171SAPS  H17S19420   5.849   4.663   7.482  0.1049  1.4074  0.9224
  171SAPS  C21819421   5.781   4.705   7.279  0.2705 -0.0293 -0.1742
  171SAPS  H18R19422   5.880   4.750   7.260 -0.0611  0.4412 -0.8265
  171SAPS  H18S19423   5.692   4.761   7.243 -1.0973 -0.7950  1.8122
  171SAPS  C21919424   5.781   4.568   7.217  0.3366  0.0670  0.4482
  171SAPS  H19R19425   5.692   4.513   7.253 -1.2066  1.1583 -1.5086
  171SAPS  H19S19426   5.866   4.504   7.247 -0.0152 -0.8420 -0.4506
  171SAPS  C22019427   5.770   4.576   7.062 -0.0703 -0.0660  0.3337
  171SAPS  H20R19428   5.731   4.485   7.012 -2.4294  1.2933 -0.4251
  171SAPS  H20S19429   5.867   4.610   7.019  0.4928  1.7470  2.7423
  171SAPS  H20T19430   5.697   4.658   7.044  1.5457  0.7518 -3.2186
  171SAPS   C3319431   5.007   4.062   8.136  0.0779 -0.1585  0.9658
  171SAPS   H3X19432   4.911   4.092   8.183 -1.3953 -2.8349 -0.1135
  171SAPS   H3Y19433   5.012   3.951   8.143 -2.4140 -0.2076  3.9090
  171SAPS   C3419434   5.005   4.106   7.988  0.0641  0.4109 -0.0990
  171SAPS   H4X19435   4.964   4.209   7.983 -2.6775 -0.6361 -3.2029
  171SAPS   H4Y19436   4.928   4.048   7.932  1.2558  0.7825 -2.2419
  171SAPS   C3519437   5.120   4.104   7.888  0.3534 -0.9503  0.1604
  171SAPS   H5X19438   5.167   4.005   7.905  2.6921  0.4231  2.3925
  171SAPS   H5Y19439   5.196   4.180   7.915 -0.2947 -0.2579  0.0791
  171SAPS   C3619440   5.071   4.122   7.739  0.1296  0.4470 -0.3572
  171SAPS   H6X19441   5.013   4.035   7.699  2.0781 -1.0343 -0.1285
  171SAPS   H6Y19442   5.163   4.103   7.679 -0.8162 -0.7817 -1.5020
  171SAPS   C3719443   5.009   4.252   7.707 -0.2949  0.4356 -0.5323
  171SAPS   H7X19444   5.086   4.331   7.698 -1.1532  1.1369 -2.3089
  171SAPS   H7Y19445   4.941   4.289   7.786 -0.7665 -0.9594 -0.2570
  171SAPS   C3819446   4.941   4.254   7.565  0.9673 -0.6100 -0.3028
  171SAPS   H8X19447   4.866   4.173   7.552 -1.7344  1.8399 -1.1442
  171SAPS   H8Y19448   5.018   4.243   7.485  2.1411  0.7925  0.5711
  171SAPS   C3919449   4.865   4.387   7.545 -0.8758  0.1539  0.1168
  171SAPS   H9X19450   4.946   4.460   7.523  0.7667 -2.2527 -2.3690
  171SAPS   H9Y19451   4.810   4.423   7.635  0.9045 -0.0720  1.3647
  171SAPS  C31019452   4.769   4.380   7.430 -0.3598 -0.5601  0.2579
  171SAPS  H10X19453   4.731   4.483   7.417 -1.7933 -0.8692  1.6175
  171SAPS  H10Y19454   4.678   4.318   7.449 -0.3934 -0.3225  0.8942
  171SAPS  C31119455   4.824   4.314   7.303  0.0310  0.8071 -0.2404
  171SAPS  H11X19456   4.847   4.207   7.321  0.4225  0.4396 -2.5341
  171SAPS  H11Y19457   4.921   4.363   7.284 -0.7492  2.0486 -1.2126
  171SAPS  C31219458   4.725   4.321   7.181 -0.3332  0.4048 -0.7198
  171SAPS  H12X19459   4.681   4.421   7.160 -0.4710  0.0914 -2.0278
  171SAPS  H12Y19460   4.644   4.248   7.200  1.0556 -0.5601  1.9126
  171SAPS  C31319461   4.794   4.278   7.049  0.3357  0.4330  0.0172
  171SAPS  H13X19462   4.795   4.170   7.021  3.4580 -0.2037  2.0711
  171SAPS  H13Y19463   4.905   4.289   7.046  0.6833 -2.0158  1.1779
  171SAPS  C31419464   4.726   4.340   6.920  0.0726 -0.4889 -0.9062
  171SAPS  H14X19465   4.755   4.447   6.920  1.3786 -0.8013  0.5084
  171SAPS  H14Y19466   4.616   4.336   6.937  0.5618  1.1272  4.1432
  171SAPS  C31519467   4.768   4.273   6.794 -0.8336  0.4703 -0.5097
  171SAPS  H15X19468   4.720   4.172   6.796 -0.5835  0.3522 -0.3982
  171SAPS  H15Y19469   4.874   4.252   6.819 -1.6725 -1.8124  1.6317
  171SAPS  C31619470   4.737   4.351   6.665  0.5392  0.8373 -0.2205
  171SAPS  H16X19471   4.774   4.456   6.665 -0.3313  1.3472 -4.6196
  171SAPS  H16Y19472   4.628   4.361   6.648  0.8299  2.6206 -1.2830
  171SAPS  C31719473   4.804   4.289   6.543 -0.4958 -0.0090 -0.0905
  171SAPS  H17X19474   4.787   4.179   6.540  0.3067 -0.1360 -0.3837
  171SAPS  H17Y19475   4.914   4.293   6.560 -0.6552  2.3353  0.6153
  171SAPS  C31819476   4.776   4.353   6.408 -0.0754  0.1521 -0.4437
  171SAPS  H18X19477   4.672   4.346   6.371 -0.2747  1.7602 -0.2548
  171SAPS  H18Y19478   4.851   4.310   6.338  1.1256  1.4956 -0.0336
  171SAPS  H18Z19479   4.793   4.462   6.405 -0.6500  0.4339  2.8085
  172SAPS     N19480   0.623   3.669   8.083 -0.0152  0.0259  0.3532
  172SAPS   HN119481   0.642   3.578   8.128 -0.7321 -1.4552 -2.1405
  172SAPS   HN219482   0.525   3.661   8.051 -0.4695 -1.8633  2.0376
  172SAPS   HN319483   0.688   3.683   8.002  0.1510 -0.4836  0.3938
  172SAPS   C1219484   0.630   3.783   8.182 -0.3060 -0.3279 -0.4752
  172SAPS  H12A19485   0.551   3.773   8.255  0.0503 -1.0628 -0.1865
  172SAPS   C1319486   0.758   3.797   8.267 -0.5668 -0.5047  0.0284
  172SAPS  O13A19487   0.853   3.712   8.255 -0.3867  0.2874  0.1672
  172SAPS  O13B19488   0.769   3.891   8.347 -0.3269 -0.4129 -0.8250
  172SAPS   C1119489   0.614   3.916   8.108  0.3583 -0.3045 -0.7045
  172SAPS  H11A19490   0.695   3.919   8.032  1.1628  0.0246  0.1424
  172SAPS  H11B19491   0.621   3.999   8.182  1.0824 -1.1798  0.2346
  172SAPS     P19492   0.424   4.031   7.966  0.6275 -0.6931  0.2020
  172SAPS   O1319493   0.305   4.083   8.040  0.0694  0.1976 -0.5516
  172SAPS   O1419494   0.535   4.130   7.945  0.9137 -0.3782 -0.5291
  172SAPS   O1219495   0.483   3.915   8.055  0.3840  0.2797 -0.4373
  172SAPS   O1119496   0.383   3.946   7.829  0.1708  0.1529 -0.4383
  172SAPS    C119497   0.481   3.929   7.727  0.7481  0.6520  0.2827
  172SAPS    HA19498   0.585   3.922   7.767  0.2833  0.7383  1.5447
  172SAPS    HB19499   0.460   3.841   7.663 -0.9116  3.2715 -3.0901
  172SAPS    C219500   0.486   4.050   7.627 -0.5097  0.2985  0.1337
  172SAPS    HS19501   0.520   4.140   7.682  0.0787 -0.1504  0.5206
  172SAPS   O2119502   0.363   4.057   7.557 -0.6392  0.0882 -0.0941
  172SAPS   C2119503   0.267   4.126   7.613 -0.5789  1.0070  0.1053
  172SAPS   O2219504   0.276   4.202   7.706 -0.2067  0.0095 -0.3099
  172SAPS   C2219505   0.137   4.095   7.542  0.3488  0.0595 -0.0585
  172SAPS   H2R19506   0.143   3.989   7.509 -0.3177  0.4707 -1.5556
  172SAPS   H2S19507   0.054   4.111   7.613  0.5508  0.4749  0.0873
  172SAPS    C319508   0.610   4.027   7.527 -0.8105 -0.4808 -0.0943
  172SAPS    HX19509   0.695   4.007   7.596 -0.0587 -3.5990 -1.7355
  172SAPS    HY19510   0.624   4.128   7.483 -2.5685  0.5394  1.5235
  172SAPS   O3119511   0.592   3.923   7.426 -0.4687 -0.3667 -0.2910
  172SAPS   C3119512   0.636   3.798   7.450 -0.1825 -0.4130 -0.1653
  172SAPS   O3219513   0.694   3.762   7.554  0.1604 -0.2172  0.0791
  172SAPS   C3219514   0.571   3.707   7.338 -0.3245 -0.6488  0.0400
  172SAPS   H2X19515   0.481   3.653   7.375  0.4389 -1.6898  0.4260
  172SAPS   H2Y19516   0.647   3.627   7.325  1.2230  0.6381  0.8122
  172SAPS   C2319517   0.109   4.193   7.430 -0.2914 -0.4742 -0.6641
  172SAPS   H3R19518   0.142   4.293   7.465 -3.1139  0.0405  0.7893
  172SAPS   H3S19519  -0.001   4.206   7.418 -0.4376  2.1770  2.0601
  172SAPS   C2419520   0.180   4.153   7.300  0.0977 -0.0919  0.1182
  172SAPS   H4R19521   0.147   4.053   7.262  1.4721 -0.3363 -0.4893
  172SAPS   H4S19522   0.284   4.141   7.336  0.2946 -0.0821 -0.4390
  172SAPS   C2519523   0.167   4.260   7.197 -0.1400  0.1158 -0.3767
  172SAPS   H5R19524   0.202   4.361   7.222  2.8579 -0.8122 -0.4612
  172SAPS   C2619525   0.128   4.245   7.067  0.1093 -0.1965 -0.6957
  172SAPS   H6R19526   0.121   4.337   7.007 -0.6774  0.1486 -0.0923
  172SAPS   C2719527   0.070   4.122   7.002  0.0713  0.4135 -0.3535
  172SAPS   H7R19528   0.056   4.035   7.070 -0.1871  1.0345  0.3945
  172SAPS   H7S19529   0.149   4.071   6.943 -0.7195 -0.8350 -0.3729
  172SAPS   C2819530  -0.061   4.147   6.927  0.2704  0.1515  0.1902
  172SAPS   H8R19531  -0.154   4.123   6.980 -2.1803 -0.0097 -3.7546
  172SAPS   C2919532  -0.069   4.182   6.796 -0.4605  0.2865  0.2401
  172SAPS   H9R19533  -0.171   4.195   6.757 -0.2202  0.3437 -0.3811
  172SAPS  C21019534   0.045   4.207   6.700  0.6148 -0.1618  0.0706
  172SAPS  H10R19535   0.014   4.173   6.598 -1.7908 -0.0488  0.6992
  172SAPS  H10S19536   0.125   4.133   6.722  0.0324  0.0442  3.2592
  172SAPS  C21119537   0.099   4.347   6.700 -1.3083  0.3951  0.0602
  172SAPS  H11R19538   0.175   4.369   6.777  0.5803  0.6712 -1.8100
  172SAPS  C21219539   0.062   4.441   6.615  0.0609  0.2650  0.2240
  172SAPS  H12R19540   0.109   4.541   6.611  0.4373  0.0708 -0.2889
  172SAPS  C21319541  -0.055   4.415   6.521 -0.0757 -0.5887 -0.4320
  172SAPS  H13R19542  -0.119   4.504   6.537  2.6757  1.4421  0.0683
  172SAPS  H13S19543  -0.112   4.326   6.554 -2.7769  0.6017 -1.5679
  172SAPS  C21419544  -0.008   4.383   6.379  0.0701  0.3904 -0.3270
  172SAPS  H14R19545   0.101   4.391   6.379  0.3258 -2.0510  0.4469
  172SAPS  C21519546  -0.075   4.341   6.271  0.7085  0.4473 -0.1299
  172SAPS  H15R19547  -0.015   4.306   6.186  0.4029 -0.6168  0.0732
  172SAPS  C21619548  -0.232   4.323   6.256 -0.2633  0.2600  0.2808
  172SAPS  H16R19549  -0.280   4.316   6.355 -0.7764  0.3481  0.0426
  172SAPS  H16S19550  -0.235   4.220   6.213  1.6453 -0.9019  2.6638
  172SAPS  C21719551  -0.289   4.443   6.179  0.9672 -0.0973 -0.3852
  172SAPS  H17R19552  -0.233   4.460   6.084  1.0701 -0.5207 -0.4008
  172SAPS  H17S19553  -0.266   4.534   6.239 -0.7225 -0.0529  0.2470
  172SAPS  C21819554  -0.441   4.445   6.153  0.2700  0.1466 -0.2233
  172SAPS  H18R19555  -0.453   4.510   6.063 -0.5287  0.4294  0.0850
  172SAPS  H18S19556  -0.498   4.492   6.236  2.2153  0.1851  1.1509
  172SAPS  C21919557  -0.499   4.311   6.103 -0.3082 -0.1956 -0.8876
  172SAPS  H19R19558  -0.465   4.224   6.163 -0.7902 -0.6884 -1.3143
  172SAPS  H19S19559  -0.468   4.278   6.001  1.7125 -1.0664 -0.0380
  172SAPS  C22019560  -0.651   4.319   6.118  0.8188 -0.0753  0.1494
  172SAPS  H20R19561  -0.677   4.330   6.226 -0.6304  0.8046 -0.2601
  172SAPS  H20S19562  -0.691   4.224   6.075 -0.1375 -0.3454  1.5369
  172SAPS  H20T19563  -0.667   4.415   6.065  2.3925  0.7695  1.1220
  172SAPS   C3319564   0.539   3.780   7.201 -0.1297  0.4169 -0.1264
  172SAPS   H3X19565   0.607   3.864   7.175 -0.9172  1.5549  1.3375
  172SAPS   H3Y19566   0.436   3.820   7.213 -0.6794 -0.8547 -0.3985
  172SAPS   C3419567   0.514   3.681   7.085 -0.1094 -0.7238  0.5079
  172SAPS   H4X19568   0.435   3.605   7.105  1.3058 -2.3290  0.2925
  172SAPS   H4Y19569   0.605   3.620   7.064  0.5019  0.6408 -1.0112
  172SAPS   C3519570   0.485   3.763   6.961 -0.1299  0.0186  0.2323
  172SAPS   H5X19571   0.570   3.761   6.889  0.8699 -0.7165  1.3793
  172SAPS   H5Y19572   0.459   3.869   6.982 -4.1931 -1.0843  1.5409
  172SAPS   C3619573   0.360   3.718   6.880  0.2132  0.0948  0.3401
  172SAPS   H6X19574   0.274   3.706   6.949  0.3682  0.0360  0.5213
  172SAPS   H6Y19575   0.373   3.616   6.840  0.6040  0.7872 -1.3847
  172SAPS   C3719576   0.325   3.806   6.761 -0.0024 -0.5907  0.4432
  172SAPS   H7X19577   0.408   3.787   6.689  0.0242  2.2808 -0.4456
  172SAPS   H7Y19578   0.331   3.914   6.788 -1.2685 -0.0194 -1.3921
  172SAPS   C3819579   0.192   3.760   6.699 -0.2563 -0.0577  0.1965
  172SAPS   H8X19580   0.120   3.799   6.774 -0.1553  0.0340  0.2460
  172SAPS   H8Y19581   0.186   3.649   6.693 -0.5167 -0.0085 -0.4712
  172SAPS   C3919582   0.155   3.826   6.563 -0.1503  0.5500  0.3093
  172SAPS   H9X19583   0.214   3.780   6.481 -2.0455 -2.4850  0.5105
  172SAPS   H9Y19584   0.177   3.935   6.570 -2.3321  1.0545 -0.0770
  172SAPS  C31019585   0.010   3.821   6.512  0.1707 -0.1009  0.2876
  172SAPS  H10X19586  -0.050   3.901   6.560 -0.0996  0.2007 -0.5461
  172SAPS  H10Y19587  -0.030   3.718   6.526  4.0151 -2.0158 -1.2810
  172SAPS  C31119588   0.015   3.857   6.361  0.0035  0.5467 -0.0091
  172SAPS  H11X19589   0.050   3.767   6.306 -1.3033  0.7820 -1.3091
  172SAPS  H11Y19590   0.092   3.935   6.347  0.7817 -0.2519 -0.3003
  172SAPS  C31219591  -0.113   3.922   6.309  0.4976  0.0894  1.0486
  172SAPS  H12X19592  -0.088   3.943   6.203  2.2857 -1.4568  1.1091
  172SAPS  H12Y19593  -0.150   4.011   6.364  1.2033  0.2378  1.3007
  172SAPS  C31319594  -0.228   3.819   6.322  0.0158  0.5128 -0.3561
  172SAPS  H13X19595  -0.320   3.882   6.315  0.3883  1.1788  0.5158
  172SAPS  H13Y19596  -0.236   3.773   6.423 -0.5223  0.7172 -0.3036
  172SAPS  C31419597  -0.221   3.704   6.218 -0.0821  0.0905  0.1081
  172SAPS  H14X19598  -0.231   3.616   6.285 -1.4259 -0.1668 -0.4041
  172SAPS  H14Y19599  -0.118   3.691   6.177  0.0008  1.4208 -0.1472
  172SAPS  C31519600  -0.340   3.715   6.118  0.5357 -0.9447 -0.2674
  172SAPS  H15X19601  -0.433   3.717   6.178  0.0869 -0.9272 -0.9566
  172SAPS  H15Y19602  -0.334   3.624   6.055  2.6416 -1.6015  0.7879
  172SAPS  C31619603  -0.341   3.845   6.030 -0.6819  0.8138 -0.6747
  172SAPS  H16X19604  -0.370   3.942   6.076 -0.5034  0.7078 -0.3386
  172SAPS  H16Y19605  -0.237   3.860   5.995  0.3770  0.3042  2.0068
  172SAPS  C31719606  -0.435   3.822   5.906 -0.2609 -0.4119 -0.2335
  172SAPS  H17X19607  -0.480   3.922   5.887  0.7099  0.1425  0.3033
  172SAPS  H17Y19608  -0.526   3.766   5.933 -0.7563  0.2959 -0.3918
  172SAPS  C31819609  -0.364   3.767   5.777 -0.2985  0.1913 -0.0780
  172SAPS  H18X19610  -0.442   3.734   5.706  1.1091  0.5956 -1.9089
  172SAPS  H18Y19611  -0.315   3.674   5.815 -0.5062  0.3284  0.5318
  172SAPS  H18Z19612  -0.295   3.837   5.725 -0.3553  0.2442 -0.0809
  173SAPS     N19613   1.620   2.003   2.354  0.1020 -0.5634 -0.3321
  173SAPS   HN119614   1.640   2.102   2.379 -1.2703 -0.1087 -0.9311
  173SAPS   HN219615   1.533   1.968   2.399  1.0514 -2.9774 -0.2254
  173SAPS   HN319616   1.689   1.953   2.414  0.2932  2.6094  2.4431
  173SAPS   C1219617   1.626   1.974   2.206  0.6048  0.2297 -0.4486
  173SAPS  H12A19618   1.575   1.881   2.186 -0.5160 -0.4950  4.4923
  173SAPS   C1319619   1.571   2.091   2.117  0.0107 -0.3616 -0.0042
  173SAPS  O13A19620   1.571   2.210   2.157 -0.1643  0.3633 -0.4509
  173SAPS  O13B19621   1.530   2.061   2.004 -0.0970  0.1245  0.1329
  173SAPS   C1119622   1.769   1.937   2.171 -0.5447 -0.1870 -0.1362
  173SAPS  H11A19623   1.834   2.027   2.164  0.9040 -1.2730 -1.4582
  173SAPS  H11B19624   1.768   1.883   2.074 -2.1308 -1.4185  0.5273
  173SAPS     P19625   1.903   1.724   2.240 -0.0488 -0.0229 -0.1367
  173SAPS   O1319626   1.817   1.607   2.208  0.2914 -0.4920 -0.0779
  173SAPS   O1419627   2.005   1.774   2.142 -0.1187 -0.5634 -0.3506
  173SAPS   O1219628   1.815   1.848   2.277 -0.0554 -0.0012 -0.3241
  173SAPS   O1119629   1.976   1.696   2.378 -0.2798 -0.1395  0.3895
  173SAPS    C119630   2.032   1.807   2.453 -0.0457  0.4815 -0.2698
  173SAPS    HA19631   2.138   1.828   2.428 -0.0651 -0.6721 -1.4498
  173SAPS    HB19632   1.971   1.900   2.441  1.1103  1.1157 -1.4551
  173SAPS    C219633   2.033   1.780   2.599 -0.3024 -0.6101 -0.0573
  173SAPS    HS19634   2.053   1.876   2.651  1.0864  0.1295 -1.8370
  173SAPS   O2119635   2.122   1.674   2.642 -0.4704 -0.1764  0.4252
  173SAPS   C2119636   2.247   1.716   2.671 -0.4932 -0.6045  0.6317
  173SAPS   O2219637   2.277   1.833   2.689 -0.1577  0.1309  0.7984
  173SAPS   C2219638   2.342   1.599   2.676  0.5378  0.7899  0.4745
  173SAPS   H2R19639   2.283   1.507   2.697 -1.7173  2.7637  3.6298
  173SAPS   H2S19640   2.383   1.586   2.573 -1.0210  1.9200 -0.3346
  173SAPS    C319641   1.884   1.734   2.645 -0.7296 -0.1590 -0.0162
  173SAPS    HX19642   1.855   1.646   2.583  0.1350  0.1150 -0.8310
  173SAPS    HY19643   1.811   1.816   2.627 -1.1691 -0.5103  0.1482
  173SAPS   O3119644   1.875   1.703   2.782 -0.3769 -0.0225 -0.1142
  173SAPS   C3119645   1.776   1.621   2.817  0.9214  0.6362  0.7517
  173SAPS   O3219646   1.688   1.591   2.737  0.0922 -0.6882  0.4431
  173SAPS   C3219647   1.775   1.592   2.963 -0.2517  0.0731  0.8717
  173SAPS   H2X19648   1.882   1.569   2.983 -0.9463 -0.8179  4.0993
  173SAPS   H2Y19649   1.711   1.502   2.974 -0.7242  0.1432 -1.0927
  173SAPS   C2319650   2.457   1.614   2.781  0.4020  0.5226 -0.4379
  173SAPS   H3R19651   2.508   1.708   2.749 -1.2402  1.6149  0.0228
  173SAPS   H3S19652   2.531   1.531   2.773 -0.1520 -0.3283  2.3170
  173SAPS   C2419653   2.414   1.618   2.932 -1.1833 -0.3848 -0.2407
  173SAPS   H4R19654   2.327   1.688   2.939  0.0823  1.2134  0.1977
  173SAPS   H4S19655   2.496   1.659   2.995 -0.7562 -1.9577  0.2703
  173SAPS   C2519656   2.391   1.474   2.975  0.5694  0.1570  0.0739
  173SAPS   H5R19657   2.482   1.418   3.003  1.3935  0.8336 -1.1563
  173SAPS   C2619658   2.271   1.417   3.001 -0.5962 -0.4131 -0.2493
  173SAPS   H6R19659   2.267   1.308   3.017 -2.1381 -0.5986 -1.6105
  173SAPS   C2719660   2.131   1.477   2.984  0.1615  0.0530  0.3291
  173SAPS   H7R19661   2.126   1.529   2.886  2.0599  1.8593  1.1047
  173SAPS   H7S19662   2.110   1.559   3.056  1.0997  0.3078  0.3182
  173SAPS   C2819663   2.021   1.373   3.003  0.2865 -0.1424 -0.1574
  173SAPS   H8R19664   1.991   1.363   3.108 -0.3165  0.3231 -0.2769
  173SAPS   C2919665   1.958   1.301   2.910 -0.2761  0.5019 -0.0278
  173SAPS   H9R19666   1.892   1.223   2.950  1.1372 -1.6436 -1.6117
  173SAPS  C21019667   1.982   1.321   2.761  0.5659 -0.1526  0.1321
  173SAPS  H10R19668   2.081   1.276   2.740  0.6054 -0.1491  0.3109
  173SAPS  H10S19669   1.979   1.427   2.727 -1.4725 -1.0811 -3.0743
  173SAPS  C21119670   1.868   1.256   2.678 -0.7010 -0.6930 -0.2412
  173SAPS  H11R19671   1.770   1.302   2.696 -1.4137 -1.7384 -1.3459
  173SAPS  C21219672   1.872   1.160   2.580  0.0025 -0.1204  0.5661
  173SAPS  H12R19673   1.777   1.141   2.528  0.2416  0.9164 -0.2860
  173SAPS  C21319674   1.988   1.078   2.528  0.4891 -0.2054 -0.4246
  173SAPS  H13R19675   1.967   0.969   2.527 -0.1236 -0.0934 -0.0212
  173SAPS  H13S19676   2.076   1.084   2.596 -0.5254  2.0771  0.8391
  173SAPS  C21419677   2.051   1.114   2.401 -0.8838  0.4050  0.6522
  173SAPS  H14R19678   2.044   1.221   2.375 -0.8174  0.4307  0.7392
  173SAPS  C21519679   2.099   1.027   2.306 -0.2738 -0.0901 -0.2383
  173SAPS  H15R19680   2.135   1.076   2.214  0.1600  1.0088  0.4929
  173SAPS  C21619681   2.096   0.874   2.321  0.1549 -0.2470  0.5673
  173SAPS  H16R19682   2.101   0.841   2.427  0.6950 -0.7939  0.3762
  173SAPS  H16S19683   2.189   0.832   2.278  0.1130  0.6041 -0.3879
  173SAPS  C21719684   1.966   0.805   2.266  0.4764 -0.1558 -0.2137
  173SAPS  H17R19685   1.960   0.841   2.162  1.0375  2.5052  0.6088
  173SAPS  H17S19686   1.885   0.839   2.335 -0.8197 -1.6200 -0.9319
  173SAPS  C21819687   1.964   0.653   2.262  0.1872 -0.0266 -0.3394
  173SAPS  H18R19688   1.861   0.622   2.237 -0.8067  0.7563  2.4100
  173SAPS  H18S19689   1.975   0.601   2.360 -1.3384 -0.7644 -0.5285
  173SAPS  C21919690   2.057   0.593   2.160  0.0067 -1.0201 -0.6548
  173SAPS  H19R19691   2.155   0.588   2.212  0.1957  0.5005 -0.8346
  173SAPS  H19S19692   2.057   0.667   2.077 -0.8797 -0.3746 -0.1012
  173SAPS  C22019693   2.017   0.460   2.105 -0.1214  0.2769 -0.2444
  173SAPS  H20R19694   2.094   0.417   2.037 -1.4788 -0.3348 -1.4599
  173SAPS  H20S19695   1.920   0.459   2.050  0.6282  0.6016 -1.6184
  173SAPS  H20T19696   1.988   0.389   2.185  1.2345 -0.2891 -0.2361
  173SAPS   C3319697   1.734   1.705   3.058 -0.7553 -0.1579  1.1757
  173SAPS   H3X19698   1.623   1.706   3.063 -0.7428 -1.8771  3.0723
  173SAPS   H3Y19699   1.767   1.805   3.022  0.0602 -0.8360 -0.0574
  173SAPS   C3419700   1.811   1.693   3.194 -0.2570 -0.2688  0.4803
  173SAPS   H4X19701   1.768   1.770   3.262 -3.9919 -0.5359 -1.3078
  173SAPS   H4Y19702   1.919   1.714   3.180 -0.4672  1.8087  1.4933
  173SAPS   C3519703   1.786   1.560   3.271  0.4693  0.3451  0.1603
  173SAPS   H5X19704   1.853   1.556   3.360  0.4610 -0.9352  0.1288
  173SAPS   H5Y19705   1.811   1.471   3.210 -1.8358  0.8375 -1.6060
  173SAPS   C3619706   1.641   1.557   3.325  0.1802  1.1869 -0.3688
  173SAPS   H6X19707   1.567   1.551   3.242 -0.1793  1.1805 -0.0495
  173SAPS   H6Y19708   1.618   1.658   3.366 -2.4333  0.5973 -0.1974
  173SAPS   C3719709   1.602   1.469   3.441 -0.7893  0.2666 -0.0460
  173SAPS   H7X19710   1.600   1.362   3.411  0.8519  0.1309  0.2774
  173SAPS   H7Y19711   1.503   1.499   3.482 -0.3940 -0.6839  1.7130
  173SAPS   C3819712   1.684   1.466   3.574  0.1276  0.1942 -0.3727
  173SAPS   H8X19713   1.624   1.401   3.641 -0.5286 -1.5472 -2.5333
  173SAPS   H8Y19714   1.690   1.575   3.598 -2.2452  0.0330  1.1848
  173SAPS   C3919715   1.823   1.397   3.572 -0.7115  0.2287  0.4371
  173SAPS   H9X19716   1.853   1.377   3.677 -0.8035  1.0387  0.6287
  173SAPS   H9Y19717   1.902   1.465   3.534 -0.5613  0.0865  0.4939
  173SAPS  C31019718   1.823   1.264   3.488 -0.4605 -0.0415 -0.2369
  173SAPS  H10X19719   1.788   1.286   3.384  3.6724  0.9250 -1.6076
  173SAPS  H10Y19720   1.748   1.188   3.518 -1.5082  0.5525 -1.2472
  173SAPS  C31119721   1.962   1.198   3.469 -0.1544 -0.7090  0.2416
  173SAPS  H11X19722   2.047   1.265   3.446 -2.6299  2.1163 -1.3205
  173SAPS  H11Y19723   1.959   1.136   3.377 -1.2140 -0.3641  0.0314
  173SAPS  C31219724   1.974   1.097   3.585  0.0550 -0.1803 -0.2243
  173SAPS  H12X19725   1.877   1.044   3.597 -1.0057  1.5143 -0.9707
  173SAPS  H12Y19726   1.998   1.151   3.679  0.1485  1.9311 -1.3945
  173SAPS  C31319727   2.085   0.990   3.561  0.6667 -0.2756 -0.1434
  173SAPS  H13X19728   2.177   1.036   3.518  1.0652  1.1929  2.1422
  173SAPS  H13Y19729   2.040   0.931   3.478 -0.9802  1.4323 -0.5266
  173SAPS  C31419730   2.124   0.897   3.673  0.4605  0.4295 -0.1206
  173SAPS  H14X19731   2.031   0.852   3.714  0.8405  0.9851  1.4192
  173SAPS  H14Y19732   2.175   0.960   3.749  1.3514 -0.1045 -0.2687
  173SAPS  C31519733   2.246   0.801   3.643 -0.2801 -0.3870 -0.5339
  173SAPS  H15X19734   2.338   0.863   3.651 -0.7711  0.3782 -0.8149
  173SAPS  H15Y19735   2.240   0.765   3.538 -0.9193  0.4012 -0.7706
  173SAPS  C31619736   2.246   0.693   3.747  0.1536  0.2654 -0.6534
  173SAPS  H16X19737   2.257   0.729   3.852 -0.9426  3.9505 -1.6706
  173SAPS  H16Y19738   2.332   0.626   3.726  1.0952  0.6366  1.6698
  173SAPS  C31719739   2.118   0.606   3.748  0.4340 -0.7797 -0.0291
  173SAPS  H17X19740   2.119   0.545   3.655  0.7177  1.7707 -1.8011
  173SAPS  H17Y19741   2.019   0.656   3.746  0.0275 -1.5394  0.4766
  173SAPS  C31819742   2.112   0.511   3.866 -0.5369 -0.1957 -0.5403
  173SAPS  H18X19743   2.022   0.448   3.851 -1.4432  1.4180 -2.2949
  173SAPS  H18Y19744   2.094   0.564   3.961  0.0824 -0.7667 -0.0962
  173SAPS  H18Z19745   2.199   0.444   3.884 -0.7450 -0.2540  0.2624
  174SAPS     N19746   4.876   5.951   3.347 -0.9277  0.5847 -0.2559
  174SAPS   HN119747   4.905   5.871   3.406 -2.3561 -0.3343 -0.7466
  174SAPS   HN219748   4.874   6.036   3.407 -3.6286 -0.2748  1.0326
  174SAPS   HN319749   4.778   5.936   3.317 -0.9428  2.6019 -1.3737
  174SAPS   C1219750   4.948   5.946   3.216  0.3123  0.1420 -0.2115
  174SAPS  H12A19751   5.052   5.958   3.245 -0.0238 -0.4999  1.3510
  174SAPS   C1319752   4.929   5.809   3.141 -0.8473 -0.5304 -0.2949
  174SAPS  O13A19753   4.884   5.710   3.210  0.4851 -0.0365  0.3654
  174SAPS  O13B19754   4.971   5.793   3.024 -0.4318  0.3485  0.1311
  174SAPS   C1119755   4.901   6.076   3.137  0.2801  0.6857  0.0312
  174SAPS  H11A19756   4.791   6.071   3.119  0.2762 -0.7511  0.2752
  174SAPS  H11B19757   4.940   6.065   3.033 -2.2773  1.9782 -1.1645
  174SAPS     P19758   5.077   6.262   3.149  0.3641  0.3534  0.2041
  174SAPS   O1319759   5.178   6.155   3.157  0.0366 -0.6168  0.4873
  174SAPS   O1419760   5.052   6.329   3.021 -0.2455  0.1854 -0.1710
  174SAPS   O1219761   4.939   6.199   3.193  0.3201  0.6141 -0.0524
  174SAPS   O1119762   5.121   6.359   3.262 -0.3896  0.7032  0.2180
  174SAPS    C119763   5.056   6.346   3.382  0.4695 -0.0429 -0.1452
  174SAPS    HA19764   4.956   6.393   3.375  0.1419 -0.2809  2.0114
  174SAPS    HB19765   5.039   6.248   3.432 -1.4607  0.1744 -0.3018
  174SAPS    C219766   5.123   6.431   3.494  0.0038 -0.2125 -0.3810
  174SAPS    HS19767   5.212   6.370   3.523 -0.0657 -0.4174 -0.5931
  174SAPS   O2119768   5.033   6.457   3.597  0.6915  0.7731  0.5324
  174SAPS   C2119769   5.020   6.358   3.688  0.1340  0.1908  0.4279
  174SAPS   O2219770   5.086   6.253   3.679  0.5623 -0.0195 -0.1183
  174SAPS   C2219771   4.925   6.394   3.794 -0.6259  0.0598 -0.1914
  174SAPS   H2R19772   4.869   6.484   3.764 -2.0918 -0.6351  0.3739
  174SAPS   H2S19773   4.842   6.321   3.805 -1.8167  1.5327  1.0252
  174SAPS    C319774   5.192   6.572   3.449 -0.6273  0.3744  0.1533
  174SAPS    HX19775   5.108   6.643   3.435 -3.0912 -1.8876  2.2729
  174SAPS    HY19776   5.245   6.546   3.355  2.6016 -0.7916  2.1075
  174SAPS   O3119777   5.301   6.614   3.537  0.1110  0.4873 -0.1384
  174SAPS   C3119778   5.337   6.741   3.545  0.1636 -0.1743  0.4087
  174SAPS   O3219779   5.291   6.832   3.475 -0.5091  0.3974 -0.1597
  174SAPS   C3219780   5.433   6.766   3.659 -0.4187 -0.5844  0.0190
  174SAPS   H2X19781   5.417   6.870   3.694 -3.5898 -1.1297  0.4611
  174SAPS   H2Y19782   5.527   6.766   3.600 -1.3649  2.1867 -1.6788
  174SAPS   C2319783   5.003   6.424   3.931  0.1773 -0.1401 -0.1289
  174SAPS   H3R19784   5.081   6.348   3.953  0.4648 -0.1265 -1.0617
  174SAPS   H3S19785   4.922   6.410   4.005  1.7345 -2.2399  1.2823
  174SAPS   C2419786   5.049   6.574   3.939 -0.4545 -0.0234  0.2479
  174SAPS   H4R19787   4.968   6.645   3.914  1.5877  1.4063 -2.9685
  174SAPS   H4S19788   5.126   6.595   3.861  0.2144 -2.5600  0.1140
  174SAPS   C2519789   5.093   6.596   4.075 -0.4034 -0.2931  0.3614
  174SAPS   H5R19790   5.202   6.597   4.087 -0.5201 -0.6740  1.5939
  174SAPS   C2619791   5.019   6.633   4.181  0.9986 -0.4555 -0.0627
  174SAPS   H6R19792   5.078   6.636   4.274  0.8477 -1.0131  0.0507
  174SAPS   C2719793   4.870   6.651   4.184 -0.2577 -0.2164  0.3323
  174SAPS   H7R19794   4.820   6.635   4.086  2.9687  0.3527 -1.5678
  174SAPS   H7S19795   4.842   6.755   4.210  1.4847  0.0256  1.4116
  174SAPS   C2819796   4.805   6.562   4.292  0.1946 -0.3536  0.5807
  174SAPS   H8R19797   4.778   6.463   4.252 -1.0402 -0.1455  0.8469
  174SAPS   C2919798   4.788   6.576   4.425 -0.0292 -0.5995 -0.0635
  174SAPS   H9R19799   4.736   6.502   4.487  1.2902 -0.7097  0.9339
  174SAPS  C21019800   4.830   6.699   4.500  0.2723 -0.1055  0.4203
  174SAPS  H10R19801   4.887   6.772   4.439  2.1629 -0.2436  1.9321
  174SAPS  H10S19802   4.904   6.663   4.574  0.7949 -1.0727 -0.5610
  174SAPS  C21119803   4.722   6.766   4.587 -0.2870  0.4627  0.1144
  174SAPS  H11R19804   4.669   6.840   4.525 -0.0275  0.6669  0.1344
  174SAPS  C21219805   4.707   6.767   4.719  0.3580  0.2141 -0.1979
  174SAPS  H12R19806   4.632   6.833   4.764 -1.4287 -1.8232 -0.0266
  174SAPS  C21319807   4.785   6.680   4.819  0.1849 -0.0446 -0.4401
  174SAPS  H13R19808   4.804   6.580   4.774  1.7996  0.1927 -0.3612
  174SAPS  H13S19809   4.713   6.654   4.900  0.9952 -0.6642  0.1124
  174SAPS  C21419810   4.910   6.732   4.881 -0.9686 -0.4920 -0.1828
  174SAPS  H14R19811   4.956   6.792   4.802 -0.1417  0.9198  1.3282
  174SAPS  C21519812   4.960   6.737   5.007  0.0905  0.2590 -0.0043
  174SAPS  H15R19813   5.055   6.791   5.015  1.0959 -1.4513  0.2137
  174SAPS  C21619814   4.907   6.671   5.131  0.4875 -0.2002  0.8438
  174SAPS  H16R19815   4.944   6.566   5.133  1.1400  0.0148  0.5251
  174SAPS  H16S19816   4.796   6.671   5.133  0.4849  0.7078  1.8891
  174SAPS  C21719817   4.953   6.749   5.256 -0.7523  0.0516  0.6692
  174SAPS  H17R19818   4.928   6.858   5.250  0.5541  0.3685  0.6320
  174SAPS  H17S19819   5.063   6.740   5.258 -0.6403  0.4480 -1.3409
  174SAPS  C21819820   4.900   6.675   5.380  0.3028 -0.3542  0.5569
  174SAPS  H18R19821   4.932   6.570   5.393  0.0904 -0.8058 -2.1365
  174SAPS  H18S19822   4.790   6.662   5.379 -0.0379  1.9915  1.3376
  174SAPS  C21919823   4.925   6.764   5.512  0.5798  0.3133  0.2679
  174SAPS  H19R19824   4.853   6.736   5.592  1.1212  1.7457  1.3163
  174SAPS  H19S19825   4.898   6.864   5.471  0.2247  0.0582 -0.1308
  174SAPS  C22019826   5.063   6.760   5.565 -0.1604 -0.5977 -0.0106
  174SAPS  H20R19827   5.066   6.821   5.658 -0.2922  1.0633 -1.0510
  174SAPS  H20S19828   5.126   6.805   5.485 -0.1674 -1.0573 -0.2796
  174SAPS  H20T19829   5.095   6.656   5.588  0.5057 -0.2319  0.7750
  174SAPS   C3319830   5.424   6.652   3.766  0.1428 -0.2494 -0.3556
  174SAPS   H3X19831   5.475   6.566   3.717  0.6514 -0.6237  0.8001
  174SAPS   H3Y19832   5.324   6.612   3.792  0.2792 -0.1807  0.2909
  174SAPS   C3419833   5.494   6.691   3.898  0.0818  0.3309  0.0639
  174SAPS   H4X19834   5.602   6.713   3.887 -0.1955  3.1006  1.7993
  174SAPS   H4Y19835   5.486   6.610   3.974 -1.9491  2.8803  2.8394
  174SAPS   C3519836   5.425   6.813   3.962  0.0607  0.4093 -0.2761
  174SAPS   H5X19837   5.315   6.798   3.961  0.3434 -2.1436 -0.5722
  174SAPS   H5Y19838   5.448   6.909   3.912 -1.3977  0.3193 -1.1625
  174SAPS   C3619839   5.458   6.843   4.109 -0.3868  1.1264  0.4075
  174SAPS   H6X19840   5.417   6.942   4.138  1.6453  2.3125 -0.5398
  174SAPS   H6Y19841   5.569   6.837   4.105 -0.3142 -4.8264  2.2411
  174SAPS   C3719842   5.407   6.740   4.206  0.2135 -0.1052 -0.5174
  174SAPS   H7X19843   5.430   6.633   4.185 -0.5664 -0.8462  1.9489
  174SAPS   H7Y19844   5.296   6.744   4.202 -0.1022 -3.2476  1.3029
  174SAPS   C3819845   5.454   6.770   4.350  0.1371 -0.2686  0.5303
  174SAPS   H8X19846   5.454   6.880   4.362  0.9579 -0.1965 -0.0293
  174SAPS   H8Y19847   5.556   6.732   4.374 -0.3722 -1.7242  0.4763
  174SAPS   C3919848   5.357   6.726   4.459  0.7164 -0.1941 -0.7854
  174SAPS   H9X19849   5.357   6.615   4.468  2.4129 -0.0322  2.1305
  174SAPS   H9Y19850   5.254   6.755   4.427  0.5207 -1.5565 -1.4764
  174SAPS  C31019851   5.393   6.796   4.590  0.9085 -0.4100 -0.2781
  174SAPS  H10X19852   5.301   6.810   4.651  2.1158  0.6170  1.4327
  174SAPS  H10Y19853   5.425   6.902   4.579  0.1150  0.2144  2.4957
  174SAPS  C31119854   5.495   6.718   4.667 -0.3610  0.8751  0.3875
  174SAPS  H11X19855   5.589   6.706   4.609  0.8297 -0.2770  2.4570
  174SAPS  H11Y19856   5.462   6.613   4.684  0.6831  0.6036  0.7730
  174SAPS  C31219857   5.541   6.779   4.793 -0.2550  0.0224 -0.4445
  174SAPS  H12X19858   5.566   6.886   4.779 -1.2420  0.5225  1.2617
  174SAPS  H12Y19859   5.628   6.743   4.852 -0.5296  0.9288  0.5537
  174SAPS  C31319860   5.433   6.776   4.902  0.1803  0.3543 -0.4963
  174SAPS  H13X19861   5.440   6.682   4.960 -0.5521  0.5000 -0.1618
  174SAPS  H13Y19862   5.336   6.788   4.848  0.0995 -0.5196 -0.5651
  174SAPS  C31419863   5.457   6.890   5.003  0.5485 -0.0030  0.2593
  174SAPS  H14X19864   5.451   6.991   4.957 -0.7851  1.0698  2.5903
  174SAPS  H14Y19865   5.559   6.881   5.045  0.5690 -0.2215  0.1655
  174SAPS  C31519866   5.357   6.890   5.126  0.2080 -0.0011  0.5035
  174SAPS  H15X19867   5.358   6.789   5.172  1.6411  0.7568  2.2736
  174SAPS  H15Y19868   5.256   6.906   5.083 -0.5331  0.7822  2.4169
  174SAPS  C31619869   5.394   7.001   5.225 -0.2554  0.2702 -0.2444
  174SAPS  H16X19870   5.404   7.104   5.182 -1.2695  1.2468  1.7504
  174SAPS  H16Y19871   5.488   6.972   5.277  0.1989  1.4552 -0.3781
  174SAPS  C31719872   5.283   7.016   5.331  0.0691  0.8643 -0.0475
  174SAPS  H17X19873   5.300   6.926   5.394 -1.2959 -0.8626 -2.0153
  174SAPS  H17Y19874   5.183   7.018   5.284 -0.1355 -1.8632  0.1234
  174SAPS  C31819875   5.286   7.154   5.405  0.1275  0.1509 -0.0570
  174SAPS  H18X19876   5.381   7.173   5.459  0.2938  3.3468 -1.2688
  174SAPS  H18Y19877   5.202   7.162   5.477  1.2676  0.2544  1.3130
  174SAPS  H18Z19878   5.286   7.240   5.335  1.4513 -1.1352 -1.7352
  175SAPS     N19879   1.741   4.966   2.477 -0.0314  0.0316 -0.3858
  175SAPS   HN119880   1.775   4.966   2.575  2.5488  0.4700 -1.1968
  175SAPS   HN219881   1.768   4.877   2.431  0.6730  0.9620 -1.8278
  175SAPS   HN319882   1.798   5.049   2.449 -1.8771  2.0971  1.5141
  175SAPS   C1219883   1.598   4.989   2.459  0.1395  0.1922 -0.4808
  175SAPS  H12A19884   1.576   4.984   2.353  2.6648 -0.2533 -1.0518
  175SAPS   C1319885   1.511   4.893   2.547  0.2992 -0.1383 -0.2230
  175SAPS  O13A19886   1.567   4.797   2.613  0.0665 -0.1825 -0.3947
  175SAPS  O13B19887   1.381   4.901   2.541 -0.1474  0.0309 -0.3457
  175SAPS   C1119888   1.561   5.132   2.509  0.1634  0.0775 -0.4903
  175SAPS  H11A19889   1.569   5.134   2.620 -0.5606 -0.0614 -0.4296
  175SAPS  H11B19890   1.455   5.150   2.483  0.1520  1.6044  0.4945
  175SAPS     P19891   1.668   5.371   2.534  0.3299  0.2377 -0.0830
  175SAPS   O1319892   1.798   5.426   2.481 -0.2072  0.1138 -0.2131
  175SAPS   O1419893   1.547   5.453   2.511  0.0313  0.2921  0.2560
  175SAPS   O1219894   1.646   5.237   2.453  0.6566  0.1748 -0.2420
  175SAPS   O1119895   1.675   5.323   2.687 -0.1682 -0.2377  0.5573
  175SAPS    C119896   1.759   5.411   2.776 -0.0664 -0.0016  1.1577
  175SAPS    HA19897   1.809   5.354   2.857  2.0433 -0.7866 -0.6000
  175SAPS    HB19898   1.843   5.457   2.720 -0.8072  2.0273  1.6508
  175SAPS    C219899   1.669   5.523   2.834 -0.8859 -0.7903  0.1516
  175SAPS    HS19900   1.595   5.475   2.901 -0.2229 -2.6957 -0.4103
  175SAPS   O2119901   1.615   5.598   2.726  0.1390 -0.1246 -0.3014
  175SAPS   C2119902   1.503   5.660   2.761  0.2122 -0.0796 -0.5317
  175SAPS   O2219903   1.436   5.640   2.862  0.1201  0.1856  0.0592
  175SAPS   C2219904   1.456   5.759   2.647 -0.2162 -0.4476  0.1314
  175SAPS   H2R19905   1.544   5.826   2.634  0.6692 -1.5996 -0.0054
  175SAPS   H2S19906   1.435   5.695   2.559  0.0125  0.4870 -0.6175
  175SAPS    C319907   1.765   5.608   2.924 -0.2742 -0.0658 -0.0925
  175SAPS    HX19908   1.714   5.683   2.988  1.7648  0.5252  0.9458
  175SAPS    HY19909   1.839   5.655   2.855 -0.2127 -1.2350 -0.8567
  175SAPS   O3119910   1.849   5.523   3.009  0.3825 -0.6878 -0.0607
  175SAPS   C3119911   1.797   5.496   3.131  1.0605  0.0668  0.0570
  175SAPS   O3219912   1.684   5.529   3.168 -0.6602 -1.0590  0.1706
  175SAPS   C3219913   1.891   5.424   3.219 -0.3468 -0.8498  0.7629
  175SAPS   H2X19914   1.987   5.479   3.232 -0.3293 -1.3335  3.0345
  175SAPS   H2Y19915   1.932   5.330   3.176  2.6881 -0.0016  1.5203
  175SAPS   C2319916   1.326   5.841   2.675 -0.1905  0.4050  0.2747
  175SAPS   H3R19917   1.237   5.777   2.661  0.0136  0.0195  0.7451
  175SAPS   H3S19918   1.332   5.909   2.586  0.5698 -2.2362 -1.8254
  175SAPS   C2419919   1.316   5.912   2.811  0.2026 -0.5972  0.1924
  175SAPS   H4R19920   1.280   5.843   2.891 -1.0575  1.3915  1.4153
  175SAPS   H4S19921   1.231   5.983   2.802  0.0072 -0.5380  2.0796
  175SAPS   C2519922   1.444   5.980   2.853 -0.8946 -0.2442  0.9045
  175SAPS   H5R19923   1.478   6.042   2.769 -1.1756  0.9519  1.6596
  175SAPS   C2619924   1.499   6.001   2.972  0.1955  0.5661  0.1743
  175SAPS   H6R19925   1.594   6.057   2.966  0.7174 -0.3454 -0.2900
  175SAPS   C2719926   1.435   5.957   3.098  0.2118  0.8907  0.5341
  175SAPS   H7R19927   1.325   5.948   3.088  0.2864 -0.8494  0.9636
  175SAPS   H7S19928   1.445   6.037   3.174 -1.9952  0.1910  1.6320
  175SAPS   C2819929   1.493   5.830   3.155 -0.3237  0.1587 -0.1543
  175SAPS   H8R19930   1.515   5.763   3.071  2.3760  0.8320 -0.0811
  175SAPS   C2919931   1.501   5.788   3.284  0.0777 -0.4954  0.3517
  175SAPS   H9R19932   1.558   5.699   3.315  1.8482  1.1801  2.2594
  175SAPS  C21019933   1.452   5.861   3.406  0.0033 -0.2886  0.1992
  175SAPS  H10R19934   1.371   5.933   3.385 -0.6953 -1.2337 -0.4207
  175SAPS  H10S19935   1.541   5.916   3.443  0.4975 -1.8618  1.5022
  175SAPS  C21119936   1.402   5.768   3.515  0.4342 -0.1729  0.1792
  175SAPS  H11R19937   1.352   5.680   3.472 -0.5067  0.2892  0.3121
  175SAPS  C21219938   1.429   5.779   3.651 -0.0934  0.4267  0.6592
  175SAPS  H12R19939   1.378   5.707   3.717  3.0968 -1.3789  1.3769
  175SAPS  C21319940   1.510   5.890   3.717 -0.7058 -0.5331 -0.0592
  175SAPS  H13R19941   1.475   5.986   3.674 -0.0283 -0.3640 -0.2342
  175SAPS  H13S19942   1.617   5.877   3.691 -0.3052  0.7360  0.8783
  175SAPS  C21419943   1.485   5.897   3.864  0.2376 -1.2063  0.4058
  175SAPS  H14R19944   1.392   5.855   3.907 -0.3190  0.4705  0.9178
  175SAPS  C21519945   1.570   5.960   3.947 -0.5634 -0.3707 -0.5430
  175SAPS  H15R19946   1.527   5.973   4.048 -0.0605 -0.0537 -0.3683
  175SAPS  C21619947   1.704   6.029   3.929 -0.3199 -0.0548  0.1396
  175SAPS  H16R19948   1.705   6.119   3.993 -3.1686 -0.1735  0.4804
  175SAPS  H16S19949   1.722   6.058   3.823  1.5953  0.1100  0.4734
  175SAPS  C21719950   1.813   5.934   3.979  0.1689 -0.5784 -0.2352
  175SAPS  H17R19951   1.905   5.978   3.936 -1.4004  2.5899 -0.6916
  175SAPS  H17S19952   1.794   5.833   3.937 -0.5323 -0.1572 -0.9621
  175SAPS  C21819953   1.830   5.931   4.135  0.3653  0.2609  0.6860
  175SAPS  H18R19954   1.732   5.898   4.174  0.3490  0.8802  1.1777
  175SAPS  H18S19955   1.857   6.034   4.167 -1.6164  0.8216  0.6693
  175SAPS  C21919956   1.928   5.822   4.181 -1.1923  0.2354 -0.8645
  175SAPS  H19R19957   2.028   5.828   4.133 -1.7271 -0.7233 -2.1633
  175SAPS  H19S19958   1.892   5.719   4.157 -1.4158  0.4418 -1.4181
  175SAPS  C22019959   1.962   5.838   4.327 -0.5579 -0.2194  0.1400
  175SAPS  H20R19960   2.063   5.796   4.349  0.8259  2.6233 -0.2606
  175SAPS  H20S19961   1.896   5.794   4.404  0.3671  1.0979  1.7521
  175SAPS  H20T19962   1.975   5.947   4.346 -1.9805  0.2948 -1.5729
  175SAPS   C3319963   1.832   5.386   3.350  0.5101  0.4610 -0.3217
  175SAPS   H3X19964   1.762   5.300   3.339  1.6103 -0.9111  2.3284
  175SAPS   H3Y19965   1.779   5.464   3.409  0.4508 -1.0288  1.7403
  175SAPS   C3419966   1.938   5.340   3.444 -0.4475 -0.7770  0.1939
  175SAPS   H4X19967   1.990   5.427   3.489 -2.9252  0.0071  1.7464
  175SAPS   H4Y19968   2.015   5.281   3.389 -2.1463 -1.0392 -1.9921
  175SAPS   C3519969   1.897   5.259   3.558  0.8827  0.1937 -0.1102
  175SAPS   H5X19970   1.867   5.158   3.522  0.7466  0.3409 -0.4143
  175SAPS   H5Y19971   1.802   5.296   3.602 -0.2392 -0.3637 -1.9462
  175SAPS   C3619972   2.006   5.240   3.657  0.3818 -0.1298 -0.2043
  175SAPS   H6X19973   2.021   5.336   3.711  0.2493 -0.7373  0.9519
  175SAPS   H6Y19974   2.095   5.213   3.597  0.2525  0.5708 -0.7231
  175SAPS   C3719975   1.978   5.125   3.750 -0.3989  0.1651 -0.4664
  175SAPS   H7X19976   2.061   5.125   3.823 -2.2593 -0.6233  1.7883
  175SAPS   H7Y19977   1.983   5.024   3.704  1.5724 -0.3800  0.8100
  175SAPS   C3819978   1.848   5.129   3.837 -0.0594 -0.6997 -0.2962
  175SAPS   H8X19979   1.844   5.048   3.912 -1.9752 -1.2077 -0.8849
  175SAPS   H8Y19980   1.764   5.122   3.764 -1.3680  0.1214  1.0953
  175SAPS   C3919981   1.816   5.268   3.910 -0.4118  0.5586 -0.4197
  175SAPS   H9X19982   1.705   5.263   3.919 -0.3390  0.2343  0.3462
  175SAPS   H9Y19983   1.834   5.347   3.833 -1.7970  1.4062  0.0770
  175SAPS  C31019984   1.880   5.311   4.038 -0.2250 -0.3288 -0.4996
  175SAPS  H10X19985   1.867   5.223   4.104 -0.6351  1.5318  2.1050
  175SAPS  H10Y19986   1.823   5.392   4.089  1.0282 -1.0705  2.2745
  175SAPS  C31119987   2.029   5.348   4.040  0.0281 -0.2374 -0.2309
  175SAPS  H11X19988   2.052   5.441   3.983  0.6873 -0.8936 -1.0619
  175SAPS  H11Y19989   2.088   5.264   3.998 -1.0831 -0.2826 -1.7700
  175SAPS  C31219990   2.079   5.368   4.188 -1.0156 -0.3549  0.0258
  175SAPS  H12X19991   2.044   5.287   4.255 -1.5487  0.4862  0.7970
  175SAPS  H12Y19992   2.049   5.467   4.228  1.4062  0.3860  0.1348
  175SAPS  C31319993   2.237   5.372   4.193 -0.6166  0.5700  0.2274
  175SAPS  H13X19994   2.279   5.473   4.171  0.3361  0.1188 -0.0889
  175SAPS  H13Y19995   2.275   5.299   4.119 -1.0301  0.9364 -0.3541
  175SAPS  C31419996   2.298   5.327   4.326  0.0111 -0.6693  0.8077
  175SAPS  H14X19997   2.409   5.329   4.319 -0.0154  2.3127 -0.6835
  175SAPS  H14Y19998   2.265   5.227   4.360  1.3984 -1.7246 -0.7746
  175SAPS  C31519999   2.267   5.429   4.444  0.7423  0.4089  0.5282
  175SAPS  H15X20000   2.158   5.437   4.426  0.8119  0.0727 -0.0886
  175SAPS  H15Y20001   2.311   5.527   4.414  0.5287  0.1345 -0.7482
  175SAPS  C31620002   2.306   5.385   4.584 -0.4140  0.1784  0.4699
  175SAPS  H16X20003   2.417   5.384   4.592 -0.4933 -1.2637  1.7123
  175SAPS  H16Y20004   2.261   5.286   4.607 -0.4330 -0.3474 -1.6186
  175SAPS  C31720005   2.256   5.484   4.684 -0.4768 -0.0182  0.1729
  175SAPS  H17X20006   2.145   5.490   4.674 -0.4938 -1.3243 -0.7243
  175SAPS  H17Y20007   2.291   5.586   4.659  0.2224 -0.3151 -0.0697
  175SAPS  C31820008   2.285   5.452   4.829  0.3105 -0.3005 -0.4170
  175SAPS  H18X20009   2.208   5.503   4.891  1.4511  1.8243 -0.6412
  175SAPS  H18Y20010   2.384   5.492   4.863  0.9743 -0.4929 -2.0284
  175SAPS  H18Z20011   2.284   5.342   4.845  0.7243 -0.3028 -0.3847
  176SAPS     N20012   0.372   2.333   3.062  0.0795 -0.3302 -0.5414
  176SAPS   HN120013   0.337   2.279   2.981  0.1412 -1.3280  0.0894
  176SAPS   HN220014   0.474   2.346   3.050  0.0366  1.8377  0.8462
  176SAPS   HN320015   0.351   2.288   3.153 -0.1453 -1.0091 -0.9259
  176SAPS   C1220016   0.298   2.458   3.069  0.0941 -0.9778  0.0202
  176SAPS  H12A20017   0.304   2.498   2.969 -2.0835 -1.6163 -0.4082
  176SAPS   C1320018   0.152   2.450   3.101  0.5482  0.4713  0.2345
  176SAPS  O13A20019   0.093   2.337   3.104  0.2444 -0.2799 -0.4983
  176SAPS  O13B20020   0.088   2.557   3.096  0.3607  0.2218 -1.0293
  176SAPS   C1120021   0.372   2.558   3.163  0.2496 -0.4150  0.2474
  176SAPS  H11A20022   0.358   2.505   3.259 -0.2993  0.4426  0.6510
  176SAPS  H11B20023   0.305   2.641   3.192  0.2746 -0.5999  0.8345
  176SAPS     P20024   0.525   2.750   3.069 -0.2241  0.3079  0.2746
  176SAPS   O1320025   0.670   2.780   3.031 -0.1543  0.3562 -0.1582
  176SAPS   O1420026   0.432   2.778   2.956 -0.3144 -0.0973 -0.2710
  176SAPS   O1220027   0.507   2.598   3.123  0.3603 -0.3480 -0.7535
  176SAPS   O1120028   0.469   2.838   3.182  0.3005  0.2675 -0.2399
  176SAPS    C120029   0.549   2.887   3.293  0.0501  0.1579 -0.0443
  176SAPS    HA20030   0.650   2.841   3.302 -0.4740 -0.7879  1.1814
  176SAPS    HB20031   0.561   2.997   3.279 -1.1380  0.5820  1.8690
  176SAPS    C220032   0.470   2.887   3.429 -0.7903 -0.3869  0.8468
  176SAPS    HS20033   0.526   2.944   3.507 -2.0823  0.1300  1.4321
  176SAPS   O2120034   0.453   2.756   3.486  0.2625 -0.4442  0.2250
  176SAPS   C2120035   0.558   2.714   3.547 -0.6646  0.4310  0.0154
  176SAPS   O2220036   0.669   2.765   3.563  0.8361 -0.3645  0.5908
  176SAPS   C2220037   0.519   2.573   3.601 -0.1329 -0.1131 -0.0152
  176SAPS   H2R20038   0.410   2.563   3.619 -0.1214 -1.3734 -0.5689
  176SAPS   H2S20039   0.544   2.507   3.515  2.8571  0.3405  0.3856
  176SAPS    C320040   0.334   2.958   3.421 -0.0727 -0.3806  0.7644
  176SAPS    HX20041   0.265   2.917   3.343 -0.8513  0.0350  1.2239
  176SAPS    HY20042   0.351   3.064   3.394  1.0551 -0.6528  0.3742
  176SAPS   O3120043   0.267   2.966   3.551 -0.4069  0.1201  0.2957
  176SAPS   C3120044   0.186   2.867   3.585 -0.3831  0.4222 -0.0393
  176SAPS   O3220045   0.148   2.772   3.518  0.1407  0.2262 -0.1928
  176SAPS   C3220046   0.147   2.888   3.732 -0.1114  0.5153 -0.5845
  176SAPS   H2X20047   0.037   2.900   3.739 -0.3485 -1.5620 -0.1712
  176SAPS   H2Y20048   0.197   2.982   3.766 -1.4917  1.4604 -1.0516
  176SAPS   C2320049   0.591   2.535   3.726  0.4397 -0.0027  0.3167
  176SAPS   H3R20050   0.591   2.617   3.801 -1.0783  3.4632 -3.1318
  176SAPS   H3S20051   0.697   2.515   3.699  0.8215  0.1297  1.6588
  176SAPS   C2420052   0.538   2.405   3.781 -0.0135 -0.0278 -0.1586
  176SAPS   H4R20053   0.622   2.354   3.832  2.6509 -0.4948 -4.5067
  176SAPS   H4S20054   0.526   2.326   3.704  1.2154 -1.9653  1.5326
  176SAPS   C2520055   0.420   2.411   3.870 -0.2560  0.4172  1.1416
  176SAPS   H5R20056   0.332   2.442   3.812  0.2328  0.7982  0.5889
  176SAPS   C2620057   0.432   2.429   4.004 -0.2054  0.1470  0.5602
  176SAPS   H6R20058   0.337   2.434   4.059 -0.3536  0.8778  0.2529
  176SAPS   C2720059   0.551   2.422   4.089 -0.4068 -0.2377  0.5200
  176SAPS   H7R20060   0.645   2.461   4.043 -0.8029  1.9971  1.4685
  176SAPS   H7S20061   0.572   2.314   4.105 -0.1239 -0.8421 -3.0304
  176SAPS   C2820062   0.545   2.487   4.222  0.3493 -0.1150 -0.2258
  176SAPS   H8R20063   0.455   2.548   4.234 -1.0032 -1.7100 -1.6495
  176SAPS   C2920064   0.638   2.456   4.320 -0.4955  0.6438 -0.7324
  176SAPS   H9R20065   0.623   2.506   4.417  0.6797 -1.2421  0.4774
  176SAPS  C21020066   0.754   2.360   4.306  0.1724  0.3320 -0.3393
  176SAPS  H10R20067   0.815   2.408   4.227  1.7201 -1.5596 -0.3776
  176SAPS  H10S20068   0.726   2.258   4.273 -3.2885  0.1934  2.4677
  176SAPS  C21120069   0.848   2.352   4.425  0.0352 -0.6197 -0.1625
  176SAPS  H11R20070   0.910   2.443   4.420 -1.8217  0.6841 -0.5880
  176SAPS  C21220071   0.848   2.264   4.527  0.1587 -0.2362 -0.2315
  176SAPS  H12R20072   0.938   2.268   4.590  0.3597  0.4236 -0.5516
  176SAPS  C21320073   0.778   2.131   4.530 -0.5427 -0.0782  0.1244
  176SAPS  H13R20074   0.847   2.047   4.551  0.6679  0.8672  0.0805
  176SAPS  H13S20075   0.729   2.115   4.432 -0.1853 -0.1647 -0.0422
  176SAPS  C21420076   0.667   2.135   4.633  0.0053 -0.9798 -0.4811
  176SAPS  H14R20077   0.568   2.170   4.601 -0.7792  1.3101  3.7182
  176SAPS  C21520078   0.670   2.075   4.749 -0.5135 -0.3315 -0.6969
  176SAPS  H15R20079   0.579   2.088   4.809 -0.5304 -1.2780 -0.5122
  176SAPS  C21620080   0.785   1.999   4.810  0.0439  0.0661  0.0298
  176SAPS  H16R20081   0.874   2.007   4.743 -2.1817 -1.0191 -3.3293
  176SAPS  H16S20082   0.768   1.890   4.826  1.7407 -0.4959 -1.5540
  176SAPS  C21720083   0.834   2.038   4.956  0.2280  0.3985  0.3043
  176SAPS  H17R20084   0.921   1.977   4.988 -0.0756 -1.5219 -2.3012
  176SAPS  H17S20085   0.749   2.016   5.024 -0.1265 -1.4409 -0.6769
  176SAPS  C21820086   0.896   2.179   4.967 -0.0871 -0.1623  0.1556
  176SAPS  H18R20087   0.826   2.264   4.977  0.1206 -0.1613  1.7864
  176SAPS  H18S20088   0.954   2.203   4.875 -1.2591 -1.6777 -1.0336
  176SAPS  C21920089   0.981   2.193   5.099  0.9034 -0.3050  0.1011
  176SAPS  H19R20090   1.024   2.295   5.091 -0.6802  0.5442  1.8490
  176SAPS  H19S20091   1.069   2.125   5.111  0.2061 -0.9549  1.8303
  176SAPS  C22020092   0.900   2.180   5.234 -0.7483 -0.6444  0.3641
  176SAPS  H20R20093   0.879   2.071   5.245 -0.9610 -0.5382  1.0897
  176SAPS  H20S20094   0.801   2.229   5.241 -0.4839 -0.1291  0.5775
  176SAPS  H20T20095   0.961   2.216   5.320 -1.1509  0.3188  0.2610
  176SAPS   C3320096   0.201   2.780   3.826  0.5368 -0.1242  0.0498
  176SAPS   H3X20097   0.312   2.775   3.821  0.8034  3.0309  0.7961
  176SAPS   H3Y20098   0.169   2.680   3.790 -1.3714  0.4041  0.1696
  176SAPS   C3420099   0.163   2.826   3.972  0.8972  1.4333  0.6398
  176SAPS   H4X20100   0.052   2.831   3.977  0.9225  0.9173  2.0685
  176SAPS   H4Y20101   0.215   2.924   3.979  0.9812  1.5856 -1.4819
  176SAPS   C3520102   0.219   2.734   4.081  0.6591  0.2171 -0.0182
  176SAPS   H5X20103   0.330   2.732   4.071  0.6984  0.3425  0.4045
  176SAPS   H5Y20104   0.182   2.629   4.076  0.9789  0.1279 -0.6498
  176SAPS   C3620105   0.203   2.789   4.224 -0.0925  0.5994 -0.2850
  176SAPS   H6X20106   0.093   2.793   4.237 -0.2732 -0.1120 -1.4338
  176SAPS   H6Y20107   0.252   2.888   4.235 -1.7966  1.2736  2.0133
  176SAPS   C3720108   0.251   2.690   4.336  0.2199  0.0254 -0.1506
  176SAPS   H7X20109   0.362   2.683   4.338  0.2297 -1.2553 -2.4732
  176SAPS   H7Y20110   0.200   2.592   4.325  0.5191 -0.0074 -1.3147
  176SAPS   C3820111   0.205   2.754   4.468 -0.1993  0.6448 -0.6398
  176SAPS   H8X20112   0.097   2.779   4.462 -0.0141  1.5334 -0.3562
  176SAPS   H8Y20113   0.261   2.847   4.492  2.5862 -0.8012 -1.0668
  176SAPS   C3920114   0.236   2.650   4.579  0.0907 -0.0119  0.4971
  176SAPS   H9X20115   0.345   2.653   4.597 -0.2813  1.8597  3.0366
  176SAPS   H9Y20116   0.203   2.548   4.548 -0.0758 -0.8374  3.1197
  176SAPS  C31020117   0.166   2.693   4.705 -0.1748  0.3816  0.5900
  176SAPS  H10X20118   0.060   2.707   4.674  0.4294  2.5626 -0.7101
  176SAPS  H10Y20119   0.198   2.797   4.728  2.7477  0.5174 -3.1687
  176SAPS  C31120120   0.179   2.588   4.813  0.2636 -0.3493  0.1984
  176SAPS  H11X20121   0.145   2.490   4.774 -0.7285 -0.7087  1.8732
  176SAPS  H11Y20122   0.121   2.620   4.903 -0.0790  1.9364 -0.7626
  176SAPS  C31220123   0.321   2.553   4.865  0.2090  0.0720  0.2052
  176SAPS  H12X20124   0.383   2.523   4.778 -1.1591 -1.4107 -0.3173
  176SAPS  H12Y20125   0.313   2.459   4.925 -0.3060 -0.4015 -0.5882
  176SAPS  C31320126   0.377   2.664   4.951 -0.0852  0.5400 -0.3429
  176SAPS  H13X20127   0.315   2.685   5.040  1.3014 -1.3083  1.1349
  176SAPS  H13Y20128   0.400   2.758   4.895  1.3864  1.3752  1.5214
  176SAPS  C31420129   0.516   2.619   5.011 -0.1674  0.1029 -0.0734
  176SAPS  H14X20130   0.572   2.708   5.046 -1.5267  0.4161  1.4188
  176SAPS  H14Y20131   0.580   2.565   4.937  0.3015 -1.0834  1.1436
  176SAPS  C31520132   0.494   2.534   5.147 -0.5092  0.1327 -0.0722
  176SAPS  H15X20133   0.409   2.468   5.120  0.9377 -0.3244 -4.2569
  176SAPS  H15Y20134   0.448   2.601   5.224  0.5576 -2.0084  2.5804
  176SAPS  C31620135   0.617   2.460   5.198  0.1461  0.0320  0.7161
  176SAPS  H16X20136   0.715   2.498   5.161  1.3149 -1.4713  2.1357
  176SAPS  H16Y20137   0.607   2.356   5.160  1.6580  0.3318 -0.6487
  176SAPS  C31720138   0.616   2.460   5.350 -0.5191 -0.1444  0.7916
  176SAPS  H17X20139   0.596   2.560   5.395  1.8686  0.8927 -0.2534
  176SAPS  H17Y20140   0.717   2.438   5.390  0.8438  1.9427 -1.2395
  176SAPS  C31820141   0.511   2.364   5.414  0.4432 -0.2011 -0.2143
  176SAPS  H18X20142   0.486   2.386   5.520 -0.7004 -0.3462 -0.4415
  176SAPS  H18Y20143   0.542   2.258   5.401 -0.5188 -0.4044 -0.9501
  176SAPS  H18Z20144   0.414   2.378   5.361  0.3516 -1.6248 -0.4576
  177SAPS     N20145   3.527   2.764   3.256  0.4097 -0.6183  0.0697
  177SAPS   HN120146   3.554   2.864   3.244 -0.2597 -0.5016 -0.4740
  177SAPS   HN220147   3.435   2.744   3.212 -0.0671  2.6317 -0.6565
  177SAPS   HN320148   3.526   2.741   3.358  2.5312  2.5411  0.9444
  177SAPS   C1220149   3.640   2.690   3.189 -0.2120  0.0258 -0.3013
  177SAPS  H12A20150   3.652   2.739   3.094  0.9693 -1.2086 -0.8183
  177SAPS   C1320151   3.769   2.695   3.264 -0.5402 -0.0352  0.0583
  177SAPS  O13A20152   3.776   2.738   3.383 -0.3448 -0.1411  0.4225
  177SAPS  O13B20153   3.863   2.626   3.214  0.8017 -0.3372 -0.0899
  177SAPS   C1120154   3.582   2.539   3.174 -0.4649 -0.1439  0.1419
  177SAPS  H11A20155   3.586   2.496   3.276  1.0444  2.5959  1.3514
  177SAPS  H11B20156   3.655   2.491   3.105  3.1360  1.1061  2.7553
  177SAPS     P20157   3.376   2.403   3.096 -0.5837 -0.4494  0.0112
  177SAPS   O1320158   3.236   2.420   3.139 -0.0759  0.1292 -1.0443
  177SAPS   O1420159   3.401   2.356   2.960  0.4066 -0.1697  0.1595
  177SAPS   O1220160   3.453   2.543   3.116 -0.2925  0.3700 -0.1432
  177SAPS   O1120161   3.456   2.305   3.187 -0.2966 -0.3153  0.1349
  177SAPS    C120162   3.407   2.173   3.229 -0.0932 -0.3111 -0.2769
  177SAPS    HA20163   3.329   2.127   3.165 -0.3307  1.8209 -1.6088
  177SAPS    HB20164   3.486   2.099   3.255 -1.7360 -1.7883  0.7283
  177SAPS    C220165   3.336   2.182   3.369 -0.1619 -0.3963  0.7171
  177SAPS    HS20166   3.250   2.251   3.362 -1.2129 -1.8398 -2.2759
  177SAPS   O2120167   3.439   2.224   3.458 -0.4964  0.0551  0.5707
  177SAPS   C2120168   3.398   2.261   3.580  0.5652  0.2562  0.3253
  177SAPS   O2220169   3.287   2.304   3.610  0.0017 -0.6231 -0.2580
  177SAPS   C2220170   3.508   2.235   3.677  0.7400  0.4954  0.3969
  177SAPS   H2R20171   3.589   2.179   3.627 -1.5663 -0.8276 -2.1432
  177SAPS   H2S20172   3.535   2.340   3.700  0.0603  0.4890  1.3179
  177SAPS    C320173   3.281   2.047   3.409  0.2267  0.2827 -0.2430
  177SAPS    HX20174   3.362   1.975   3.433 -0.3591 -1.0314 -1.9782
  177SAPS    HY20175   3.243   1.985   3.324  1.0671 -2.3104  1.1539
  177SAPS   O3120176   3.190   2.050   3.523 -0.3663  0.0239  0.3097
  177SAPS   C3120177   3.061   2.086   3.498  0.0318 -0.4040  0.1316
  177SAPS   O3220178   3.009   2.106   3.392 -0.3274 -0.3020  0.4818
  177SAPS   C3220179   2.986   2.108   3.630 -0.1652 -0.0725  0.1760
  177SAPS   H2X20180   2.890   2.162   3.614 -0.6158 -0.7722  0.4360
  177SAPS   H2Y20181   3.051   2.175   3.690 -0.6808 -0.4994  1.2380
  177SAPS   C2320182   3.447   2.185   3.813  1.0312  0.6020  0.4560
  177SAPS   H3R20183   3.364   2.251   3.843  0.6784 -0.3101  1.5626
  177SAPS   H3S20184   3.513   2.195   3.901  0.1559  1.9723  0.9841
  177SAPS   C2420185   3.378   2.046   3.803  0.1491 -0.1656  0.0270
  177SAPS   H4R20186   3.301   2.043   3.723  1.5560  1.9566 -1.5108
  177SAPS   H4S20187   3.319   2.040   3.896  2.0207  1.4727  1.4156
  177SAPS   C2520188   3.482   1.932   3.788 -0.0491 -0.3224  0.1156
  177SAPS   H5R20189   3.492   1.883   3.690  0.0125 -1.8837  0.8811
  177SAPS   C2620190   3.569   1.888   3.889  0.3283  0.6471  0.3289
  177SAPS   H6R20191   3.638   1.804   3.870 -0.9451 -0.6656  1.2113
  177SAPS   C2720192   3.581   1.946   4.030 -0.3021 -0.5186 -0.4236
  177SAPS   H7R20193   3.617   2.051   4.020 -0.4773 -0.4670 -0.5231
  177SAPS   H7S20194   3.655   1.892   4.093  0.1666  0.8938  0.3022
  177SAPS   C2820195   3.450   1.942   4.111 -0.5971  0.1863  0.5800
  177SAPS   H8R20196   3.371   1.885   4.059  0.6247 -0.7228 -0.3582
  177SAPS   C2920197   3.428   2.003   4.229  0.2897  0.3623  0.8199
  177SAPS   H9R20198   3.323   2.001   4.261  0.4701 -0.5087  1.3659
  177SAPS  C21020199   3.519   2.067   4.328 -0.0234 -0.0014  0.7752
  177SAPS  H10R20200   3.465   2.128   4.404  0.7347  1.2699  0.3418
  177SAPS  H10S20201   3.582   2.141   4.274 -1.3508  0.1129 -0.7065
  177SAPS  C21120202   3.599   1.959   4.400 -0.1032  0.0079 -0.0852
  177SAPS  H11R20203   3.669   1.905   4.334  0.4901  1.2485 -0.4849
  177SAPS  C21220204   3.595   1.931   4.535 -0.2149  0.4501  0.8800
  177SAPS  H12R20205   3.652   1.847   4.578 -0.5983 -0.2065  0.1486
  177SAPS  C21320206   3.496   1.993   4.630 -0.5762 -0.1926 -0.0782
  177SAPS  H13R20207   3.487   2.100   4.601 -1.9950 -0.2060  0.2452
  177SAPS  H13S20208   3.550   1.996   4.727 -0.3968 -0.2335 -0.1763
  177SAPS  C21420209   3.357   1.937   4.639 -0.2808  0.3658 -0.6978
  177SAPS  H14R20210   3.310   1.894   4.550 -0.2208 -1.8860  0.2808
  177SAPS  C21520211   3.289   1.924   4.759 -0.0890  0.6992  0.1928
  177SAPS  H15R20212   3.185   1.889   4.747  0.0875  0.0579  0.4740
  177SAPS  C21620213   3.340   1.982   4.892 -0.0991  0.6827 -0.7304
  177SAPS  H16R20214   3.269   2.062   4.924 -0.3245  0.4909 -0.7437
  177SAPS  H16S20215   3.435   2.039   4.882  1.0053 -0.9800 -0.0955
  177SAPS  C21720216   3.364   1.871   5.002  0.1143  0.4757  0.2468
  177SAPS  H17R20217   3.420   1.787   4.955  0.1239 -0.6320  2.1736
  177SAPS  H17S20218   3.272   1.817   5.032  0.3258  0.6235  1.1799
  177SAPS  C21820219   3.456   1.912   5.123 -0.0725  0.1652  0.0529
  177SAPS  H18R20220   3.474   1.815   5.175  0.8108  0.4519  0.2888
  177SAPS  H18S20221   3.397   1.971   5.196  0.9412  1.7481 -0.3483
  177SAPS  C21920222   3.590   1.975   5.091 -0.1309 -0.2861 -0.4805
  177SAPS  H19R20223   3.585   2.083   5.064 -0.7228  0.1084  1.1048
  177SAPS  H19S20224   3.643   1.925   5.007  1.3100  0.0664  0.1917
  177SAPS  C22020225   3.684   1.979   5.216  0.3070  0.3776  0.0831
  177SAPS  H20R20226   3.629   1.993   5.311 -1.5869 -3.4382 -0.2695
  177SAPS  H20S20227   3.775   2.041   5.201  1.4618 -1.0747  0.8448
  177SAPS  H20T20228   3.721   1.875   5.223  0.3665  0.2022 -2.0164
  177SAPS   C3320229   2.972   1.977   3.710 -0.4045 -0.3023 -0.6349
  177SAPS   H3X20230   3.073   1.934   3.730  0.6899  1.7585 -1.3965
  177SAPS   H3Y20231   2.916   1.901   3.652  1.0705 -0.9985 -1.1943
  177SAPS   C3420232   2.923   2.001   3.855 -0.7792  0.1171  0.0847
  177SAPS   H4X20233   2.829   2.052   3.825 -1.4693 -0.8578  0.5296
  177SAPS   H4Y20234   2.984   2.078   3.906  0.5966 -0.1893 -1.0369
  177SAPS   C3520235   2.890   1.878   3.940 -0.4130 -0.5506  0.3400
  177SAPS   H5X20236   2.960   1.792   3.947 -1.4852 -1.3582  1.7651
  177SAPS   H5Y20237   2.795   1.839   3.897  0.2440 -1.6930 -0.1260
  177SAPS   C3620238   2.852   1.923   4.074 -0.5217 -0.0304 -0.5714
  177SAPS   H6X20239   2.794   1.843   4.124  3.6822 -1.4899  2.6094
  177SAPS   H6Y20240   2.793   2.017   4.073 -1.7101 -0.4276  4.7633
  177SAPS   C3720241   2.972   1.944   4.166  0.5556 -0.0083  0.5482
  177SAPS   H7X20242   3.028   2.032   4.128  0.7857 -0.8464 -1.1753
  177SAPS   H7Y20243   3.040   1.856   4.163  0.0152 -0.4078 -0.4621
  177SAPS   C3820244   2.938   1.952   4.318  0.0213  0.1249  0.6385
  177SAPS   H8X20245   2.858   2.027   4.336  0.8692  1.5849 -1.3757
  177SAPS   H8Y20246   3.024   1.986   4.378 -1.3443  0.4653  2.4930
  177SAPS   C3920247   2.915   1.808   4.373  0.5345 -0.1348  0.1164
  177SAPS   H9X20248   3.007   1.746   4.370  0.5283 -0.2392  1.4122
  177SAPS   H9Y20249   2.850   1.756   4.299 -2.3705 -0.7234  2.8850
  177SAPS  C31020250   2.838   1.788   4.506  0.1943 -0.0934  0.8438
  177SAPS  H10X20251   2.813   1.680   4.515  1.5584 -0.3582  1.7171
  177SAPS  H10Y20252   2.749   1.854   4.500 -1.5146 -2.1691  1.8274
  177SAPS  C31120253   2.922   1.816   4.639  0.5174  0.4323 -0.2216
  177SAPS  H11X20254   2.967   1.916   4.626  0.0601  0.8538  1.1861
  177SAPS  H11Y20255   3.006   1.743   4.645 -0.8197 -1.1129  0.9553
  177SAPS  C31220256   2.839   1.820   4.768  0.3386 -0.1327  0.6750
  177SAPS  H12X20257   2.753   1.888   4.747  0.2189 -0.3279  0.5290
  177SAPS  H12Y20258   2.885   1.871   4.856 -1.7485 -0.1973  1.8634
  177SAPS  C31320259   2.793   1.683   4.822  0.2422 -0.1254  0.1741
  177SAPS  H13X20260   2.740   1.622   4.746  1.7940  0.4099 -1.3994
  177SAPS  H13Y20261   2.730   1.706   4.911 -0.5286 -1.0408 -0.1200
  177SAPS  C31420262   2.898   1.591   4.877 -0.5731 -0.1013 -0.1322
  177SAPS  H14X20263   2.977   1.568   4.802 -0.7214  2.0448 -0.9940
  177SAPS  H14Y20264   2.856   1.496   4.916 -0.4241  0.0983  0.5237
  177SAPS  C31520265   2.969   1.642   5.007  0.5161 -0.2963  0.1259
  177SAPS  H15X20266   2.894   1.654   5.088 -1.6249 -2.5612 -1.4101
  177SAPS  H15Y20267   3.007   1.745   4.988 -0.7994  0.0211 -0.9512
  177SAPS  C31620268   3.074   1.546   5.050 -0.6411  0.4375 -0.1325
  177SAPS  H16X20269   3.169   1.585   5.007 -1.6254  0.1158 -2.7863
  177SAPS  H16Y20270   3.061   1.446   5.004  0.6862  1.3296 -2.6706
  177SAPS  C31720271   3.080   1.514   5.199 -0.2203  0.9385 -0.5961
  177SAPS  H17X20272   3.032   1.593   5.262 -0.3524  0.4068 -0.0203
  177SAPS  H17Y20273   3.188   1.517   5.225 -0.1716 -2.1825 -0.0921
  177SAPS  C31820274   3.023   1.378   5.247 -0.3549 -0.9935 -0.0442
  177SAPS  H18X20275   3.056   1.297   5.179 -0.3219 -0.9152 -0.1225
  177SAPS  H18Y20276   2.913   1.395   5.242 -0.5249 -2.2265 -0.9490
  177SAPS  H18Z20277   3.063   1.355   5.348 -0.4549 -1.1647 -0.0429
  178SAPS     N20278   1.199   2.678   2.954 -0.5379 -0.5185  0.0729
  178SAPS   HN120279   1.224   2.778   2.937  0.1762 -0.4171  1.4821
  178SAPS   HN220280   1.096   2.675   2.953 -0.8086  2.3180 -4.2626
  178SAPS   HN320281   1.230   2.665   3.053 -2.4420  0.0347  0.7739
  178SAPS   C1220282   1.234   2.571   2.859  0.6294 -0.3771 -0.1658
  178SAPS  H12A20283   1.179   2.589   2.767  1.3739 -0.7218 -0.6878
  178SAPS   C1320284   1.381   2.543   2.812  0.3589  0.6604  0.3871
  178SAPS  O13A20285   1.464   2.626   2.850 -0.5053  0.5082 -0.4578
  178SAPS  O13B20286   1.402   2.470   2.712  0.5441 -0.2109  0.0966
  178SAPS   C1120287   1.186   2.442   2.931  0.9588  0.2856  0.2062
  178SAPS  H11A20288   1.243   2.439   3.026  0.0900  0.3468  0.7403
  178SAPS  H11B20289   1.205   2.359   2.859 -0.0592 -0.5008  0.8078
  178SAPS     P20290   0.954   2.340   3.033  0.0385  0.1240  0.4379
  178SAPS   O1320291   0.843   2.429   3.079 -0.5691  0.6614 -0.3343
  178SAPS   O1420292   0.922   2.227   2.942  0.3253  0.0385  0.0528
  178SAPS   O1220293   1.051   2.444   2.961  0.3345  0.7667  0.4450
  178SAPS   O1120294   1.028   2.274   3.149 -0.0625  0.1720  0.2094
  178SAPS    C120295   1.077   2.346   3.261 -0.8676  0.1673 -0.4299
  178SAPS    HA20296   1.185   2.371   3.250 -0.9412  0.6220 -0.1571
  178SAPS    HB20297   1.021   2.440   3.275  0.5664  0.7074  2.4705
  178SAPS    C220298   1.030   2.262   3.387  0.2743  0.4826 -0.1836
  178SAPS    HS20299   0.923   2.239   3.365  0.7374  0.1465 -2.3431
  178SAPS   O2120300   1.048   2.354   3.496  0.3516 -0.5332  0.2963
  178SAPS   C2120301   0.959   2.348   3.583 -0.3146 -0.1409 -0.3865
  178SAPS   O2220302   0.859   2.279   3.594  0.2562  0.0845 -0.3215
  178SAPS   C2220303   0.995   2.457   3.693  0.4370 -0.0159 -0.5422
  178SAPS   H2R20304   1.097   2.497   3.673  0.1579  0.0680 -1.8922
  178SAPS   H2S20305   0.918   2.536   3.683  0.2021 -0.2034 -0.2002
  178SAPS    C320306   1.101   2.124   3.409  0.6030  0.1099 -0.0574
  178SAPS    HX20307   1.211   2.135   3.411  0.4684  1.7264 -0.3152
  178SAPS    HY20308   1.097   2.056   3.321  1.2920 -1.5139  1.1200
  178SAPS   O3120309   1.056   2.054   3.537 -0.3320 -0.4625 -0.0445
  178SAPS   C3120310   0.956   1.976   3.517 -0.0817 -0.0264 -0.7350
  178SAPS   O3220311   0.884   1.972   3.417 -0.1106 -0.4587 -0.6876
  178SAPS   C3220312   0.933   1.879   3.642  0.8210  0.0336  0.5022
  178SAPS   H2X20313   1.009   1.798   3.638  1.2380  0.2238  2.7997
  178SAPS   H2Y20314   0.837   1.829   3.617  0.8826  0.7655 -1.2782
  178SAPS   C2320315   0.971   2.391   3.831 -0.5486 -0.6872 -0.0164
  178SAPS   H3R20316   1.038   2.302   3.832  0.3156 -0.0624 -0.8348
  178SAPS   H3S20317   0.867   2.352   3.835 -0.8626  0.2465  1.6068
  178SAPS   C2420318   1.002   2.474   3.960 -0.2543 -0.3078  0.4044
  178SAPS   H4R20319   0.967   2.405   4.039 -2.0635 -1.2980 -1.1805
  178SAPS   H4S20320   0.936   2.564   3.966  0.7197  0.3250  2.7600
  178SAPS   C2520321   1.151   2.504   3.957 -0.0147 -0.8008 -0.7405
  178SAPS   H5R20322   1.203   2.510   3.861 -2.6975 -1.0884 -2.3175
  178SAPS   C2620323   1.231   2.501   4.069 -0.8907  0.2922  0.2053
  178SAPS   H6R20324   1.337   2.521   4.047 -1.6322  1.4643 -2.8942
  178SAPS   C2720325   1.200   2.471   4.212  0.1639  0.3456  0.9546
  178SAPS   H7R20326   1.150   2.372   4.218  2.3494 -0.8552  0.6940
  178SAPS   H7S20327   1.126   2.545   4.247 -1.0463  0.3683 -1.4398
  178SAPS   C2820328   1.331   2.452   4.290  0.6970 -0.0121  0.1505
  178SAPS   H8R20329   1.428   2.440   4.239  2.3882  1.3869  2.8001
  178SAPS   C2920330   1.337   2.440   4.422  0.0367  0.1370 -0.2174
  178SAPS   H9R20331   1.437   2.424   4.466 -0.4007  0.9796  1.1411
  178SAPS  C21020332   1.219   2.455   4.518  0.0173  0.8102 -0.5297
  178SAPS  H10R20333   1.129   2.420   4.464  0.2610 -0.4410 -0.1507
  178SAPS  H10S20334   1.195   2.563   4.528 -1.2222  0.4756  0.3276
  178SAPS  C21120335   1.222   2.378   4.649 -0.1832  0.1349 -0.4776
  178SAPS  H11R20336   1.187   2.442   4.732 -1.8028 -1.7156  0.3499
  178SAPS  C21220337   1.264   2.253   4.670  0.3602 -0.3220  0.5480
  178SAPS  H12R20338   1.261   2.200   4.766  1.9336 -1.1377  0.1784
  178SAPS  C21320339   1.295   2.149   4.564 -0.0684 -0.0927  0.4673
  178SAPS  H13R20340   1.382   2.180   4.502 -1.1045  1.4325 -0.2862
  178SAPS  H13S20341   1.211   2.154   4.492  0.4562 -0.4067 -0.1761
  178SAPS  C21420342   1.305   2.009   4.622  0.3906  0.5933 -0.0844
  178SAPS  H14R20343   1.209   1.956   4.616  0.5613 -0.0873  2.4042
  178SAPS  C21520344   1.411   1.946   4.675 -0.1133 -0.3149  0.5873
  178SAPS  H15R20345   1.402   1.842   4.708 -0.8836 -0.0026  1.3999
  178SAPS  C21620346   1.545   2.011   4.696 -0.5485  0.0180 -0.4062
  178SAPS  H16R20347   1.532   2.115   4.658 -2.9439  0.0453  0.3247
  178SAPS  H16S20348   1.629   1.964   4.641 -0.4503  1.8531 -1.9292
  178SAPS  C21720349   1.597   2.020   4.843 -0.1340 -0.3025  0.3244
  178SAPS  H17R20350   1.517   2.062   4.908 -0.7535  0.3215 -0.8120
  178SAPS  H17S20351   1.682   2.092   4.851 -0.7725  0.3785  1.2547
  178SAPS  C21820352   1.652   1.892   4.901  0.0021 -0.1227  0.3634
  178SAPS  H18R20353   1.693   1.840   4.811 -1.0120  1.7860 -1.2820
  178SAPS  H18S20354   1.569   1.823   4.929  1.1524 -0.7136  2.4829
  178SAPS  C21920355   1.734   1.906   5.024 -0.3002  0.8059 -0.2988
  178SAPS  H19R20356   1.696   1.980   5.097  2.2927  1.5913  0.3689
  178SAPS  H19S20357   1.838   1.938   5.001 -0.0381 -0.2028 -0.5564
  178SAPS  C22020358   1.758   1.770   5.099 -0.0836 -0.4852  0.0632
  178SAPS  H20R20359   1.798   1.785   5.201  2.5362 -0.8056 -0.8328
  178SAPS  H20S20360   1.825   1.700   5.044  0.0190  1.8471 -3.0576
  178SAPS  H20T20361   1.663   1.711   5.099 -1.3677  1.4678  1.1371
  178SAPS   C3320362   0.939   1.952   3.784 -0.3694  0.9847  0.8106
  178SAPS   H3X20363   0.857   2.027   3.796 -1.6466 -0.3706  0.9294
  178SAPS   H3Y20364   1.031   2.014   3.791 -0.4891  1.0173  2.5968
  178SAPS   C3420365   0.947   1.843   3.896 -0.0446  0.0348 -0.4356
  178SAPS   H4X20366   1.035   1.781   3.867 -0.4173  0.0443 -1.5931
  178SAPS   H4Y20367   0.856   1.780   3.893  0.2566 -0.3735 -1.2702
  178SAPS   C3520368   0.975   1.897   4.035  0.3428  0.2031  0.6015
  178SAPS   H5X20369   0.910   1.981   4.068  0.0434 -0.1891  1.0301
  178SAPS   H5Y20370   1.080   1.934   4.046  0.2697  1.2908 -1.7386
  178SAPS   C3620371   0.969   1.782   4.145  0.0155  0.1598  0.3412
  178SAPS   H6X20372   1.045   1.705   4.121 -0.1350 -0.3771  1.5034
  178SAPS   H6Y20373   0.869   1.736   4.130  0.5478 -1.7701  2.1808
  178SAPS   C3720374   0.984   1.824   4.288  0.5325 -0.6590 -0.2807
  178SAPS   H7X20375   0.900   1.894   4.308 -0.8615 -2.6202  1.1672
  178SAPS   H7Y20376   1.080   1.878   4.300  0.2555 -0.0502 -0.7342
  178SAPS   C3820377   0.979   1.701   4.374 -0.6409 -0.7301  0.1100
  178SAPS   H8X20378   1.071   1.642   4.352  0.1272  0.4162  0.1723
  178SAPS   H8Y20379   0.889   1.643   4.345 -0.1432 -1.7172  0.5000
  178SAPS   C3920380   0.963   1.732   4.520 -0.1462 -0.2740 -0.4757
  178SAPS   H9X20381   0.889   1.814   4.533  0.0850 -0.1976  0.4657
  178SAPS   H9Y20382   1.056   1.780   4.557  0.4844 -2.1635  0.5479
  178SAPS  C31020383   0.940   1.613   4.609 -0.3545 -0.0406 -0.7345
  178SAPS  H10X20384   0.996   1.524   4.573 -0.0734 -0.4386  0.6142
  178SAPS  H10Y20385   0.834   1.582   4.606  0.1286 -1.8395 -0.2876
  178SAPS  C31120386   0.983   1.622   4.755 -0.1119 -0.0697  0.1342
  178SAPS  H11X20387   0.922   1.550   4.813  0.6023 -0.2439  0.6917
  178SAPS  H11Y20388   0.961   1.728   4.780  1.9601  0.3671  0.3274
  178SAPS  C31220389   1.132   1.601   4.767  0.1175 -0.0170 -0.7333
  178SAPS  H12X20390   1.185   1.694   4.737 -0.0673  1.3421  2.6689
  178SAPS  H12Y20391   1.184   1.528   4.701 -0.1842  0.1138 -1.1187
  178SAPS  C31320392   1.163   1.574   4.921  0.9373 -1.0024  0.3833
  178SAPS  H13X20393   1.091   1.501   4.964  0.5627 -0.2873  0.9939
  178SAPS  H13Y20394   1.132   1.669   4.969 -2.7505 -1.6940 -0.3800
  178SAPS  C31420395   1.304   1.537   4.967 -0.1003 -0.7005  0.3936
  178SAPS  H14X20396   1.366   1.623   4.936  0.1345 -0.1223  2.3179
  178SAPS  H14Y20397   1.333   1.446   4.910 -1.2559  0.7420 -2.7113
  178SAPS  C31520398   1.307   1.497   5.117 -0.7628 -0.0870  1.1106
  178SAPS  H15X20399   1.407   1.451   5.134 -0.8659 -1.8039 -2.2241
  178SAPS  H15Y20400   1.239   1.410   5.131  3.3123 -4.1876 -1.5957
  178SAPS  C31620401   1.272   1.612   5.212 -0.7350 -0.3963  0.2779
  178SAPS  H16X20402   1.279   1.586   5.320  0.6133  1.4750  0.7048
  178SAPS  H16Y20403   1.169   1.647   5.189 -1.1087 -1.4027  0.3840
  178SAPS  C31720404   1.373   1.731   5.193  0.5669 -0.4368  0.1335
  178SAPS  H17X20405   1.349   1.769   5.091  0.3439  0.9568  0.6935
  178SAPS  H17Y20406   1.479   1.697   5.199  0.3849 -0.7287  2.5394
  178SAPS  C31820407   1.352   1.852   5.291 -0.4391 -0.7521  0.0336
  178SAPS  H18X20408   1.432   1.925   5.266 -2.2913  0.8281 -1.6228
  178SAPS  H18Y20409   1.357   1.806   5.392  0.6796 -0.6961  0.0121
  178SAPS  H18Z20410   1.252   1.893   5.266  0.0245  0.5289  0.2441
  179SAPS     N20411   5.357   5.940   3.090 -0.3863 -0.0663 -0.3603
  179SAPS   HN120412   5.459   5.960   3.089  1.0267 -5.4525  1.4747
  179SAPS   HN220413   5.326   5.943   2.990 -0.3466  2.4045 -0.3434
  179SAPS   HN320414   5.308   6.016   3.141  3.1516  0.9010  1.8792
  179SAPS   C1220415   5.327   5.805   3.143  0.2590  0.0073 -0.3880
  179SAPS  H12A20416   5.220   5.805   3.157  0.2458  3.7963  0.5752
  179SAPS   C1320417   5.370   5.695   3.042 -0.3322 -0.3425 -0.7045
  179SAPS  O13A20418   5.435   5.715   2.937 -1.2667 -0.0781 -0.3838
  179SAPS  O13B20419   5.333   5.577   3.078 -0.1521  0.1831  0.0091
  179SAPS   C1120420   5.410   5.798   3.280  1.1456 -0.7568 -0.3546
  179SAPS  H11A20421   5.382   5.706   3.335  0.8657  0.0402  0.8632
  179SAPS  H11B20422   5.385   5.888   3.340  0.5023 -0.5507 -0.9097
  179SAPS     P20423   5.640   5.915   3.299 -0.0158 -0.4059 -0.0264
  179SAPS   O1320424   5.781   5.907   3.264 -0.0005  0.3959 -0.8174
  179SAPS   O1420425   5.572   6.037   3.251  0.1234  0.0549 -0.8486
  179SAPS   O1220426   5.550   5.783   3.261 -0.0225  0.4627  0.6492
  179SAPS   O1120427   5.629   5.911   3.457  0.2018 -0.2153  0.1274
  179SAPS    C120428   5.643   5.780   3.520  0.5117  0.1361 -0.7926
  179SAPS    HA20429   5.550   5.719   3.521  1.4619 -1.3634  0.3138
  179SAPS    HB20430   5.723   5.717   3.477  1.1601 -2.2433  3.3389
  179SAPS    C220431   5.689   5.792   3.669 -0.1460  0.5286 -0.2418
  179SAPS    HS20432   5.688   5.690   3.714 -1.1408 -0.4519 -2.3247
  179SAPS   O2120433   5.605   5.892   3.735 -0.6613 -0.4195 -0.6829
  179SAPS   C2120434   5.487   5.847   3.772 -0.2206 -0.2183 -0.3680
  179SAPS   O2220435   5.439   5.738   3.753 -0.1362 -0.0673 -0.1484
  179SAPS   C2220436   5.412   5.960   3.838 -0.2086 -0.4581 -0.8673
  179SAPS   H2R20437   5.430   6.054   3.781 -4.3776 -0.3179 -2.2765
  179SAPS   H2S20438   5.303   5.941   3.830  0.0876 -1.9837 -1.5592
  179SAPS    C320439   5.841   5.831   3.662 -0.0986  0.6003 -0.2661
  179SAPS    HX20440   5.858   5.914   3.591  0.6412 -0.6752 -1.6426
  179SAPS    HY20441   5.890   5.737   3.626 -2.6607 -0.9275 -0.0170
  179SAPS   O3120442   5.884   5.855   3.794 -0.9379  1.1499 -0.8209
  179SAPS   C3120443   6.004   5.901   3.808 -0.4984 -0.0479  0.4580
  179SAPS   O3220444   6.074   5.920   3.710  0.2003 -1.3077  0.1903
  179SAPS   C3220445   6.044   5.924   3.957 -0.0859 -0.0206 -0.4167
  179SAPS   H2X20446   6.018   5.829   4.010 -1.4935  1.3976  1.5755
  179SAPS   H2Y20447   5.984   6.009   3.995 -0.5272 -1.1883  1.6690
  179SAPS   C2320448   5.467   5.966   3.982  0.0459 -0.2025  0.2605
  179SAPS   H3R20449   5.435   6.063   4.027  2.6087  0.3761  0.9988
  179SAPS   H3S20450   5.578   5.965   3.985  0.0571  0.3693  0.2256
  179SAPS   C2420451   5.425   5.853   4.084 -1.1905  0.6483 -0.4358
  179SAPS   H4R20452   5.474   5.758   4.053 -3.1819 -1.1668  1.6834
  179SAPS   H4S20453   5.315   5.845   4.071 -1.3172 -0.3279  1.1399
  179SAPS   C2520454   5.454   5.900   4.226 -0.5178 -0.2899  0.5391
  179SAPS   H5R20455   5.376   5.957   4.279  0.4829  1.9189 -0.2607
  179SAPS   C2620456   5.555   5.870   4.295 -0.0691 -0.4024 -0.7039
  179SAPS   H6R20457   5.561   5.913   4.396  0.2962 -0.9982 -0.4621
  179SAPS   C2720458   5.662   5.769   4.262  0.6474  0.4094 -0.8886
  179SAPS   H7R20459   5.620   5.696   4.189 -0.5255  1.1130 -0.9508
  179SAPS   H7S20460   5.683   5.714   4.355 -0.8731  1.4058  0.0902
  179SAPS   C2820461   5.786   5.826   4.210 -0.6223  0.0855 -0.3882
  179SAPS   H8R20462   5.793   5.837   4.101  0.6207  1.2256 -0.2264
  179SAPS   C2920463   5.898   5.857   4.286 -0.1284  0.5883  0.4709
  179SAPS   H9R20464   5.972   5.920   4.235 -2.1104  1.9978 -0.8376
  179SAPS  C21020465   5.893   5.851   4.438  0.0029  0.0137 -0.2568
  179SAPS  H10R20466   5.918   5.747   4.469 -0.2658 -0.5730 -1.9215
  179SAPS  H10S20467   5.792   5.883   4.470  0.3974  0.6599  0.3694
  179SAPS  C21120468   5.995   5.946   4.499 -0.3979 -0.4446  0.3376
  179SAPS  H11R20469   6.030   6.034   4.445 -0.6171 -0.4418  0.2004
  179SAPS  C21220470   6.041   5.933   4.623  0.6100 -0.9038 -0.2656
  179SAPS  H12R20471   6.107   6.013   4.659 -0.5761  1.1020 -2.2917
  179SAPS  C21320472   5.998   5.837   4.733 -0.3045  0.4343  0.5555
  179SAPS  H13R20473   5.896   5.795   4.720 -0.4735  0.8694  0.4679
  179SAPS  H13S20474   5.990   5.894   4.828 -0.7877  0.2099  0.6547
  179SAPS  C21420475   6.094   5.722   4.749 -0.0466 -0.3696  0.0496
  179SAPS  H14R20476   6.166   5.704   4.668  2.1872  1.4367  1.5136
  179SAPS  C21520477   6.098   5.638   4.852  0.7652  0.1161  0.6171
  179SAPS  H15R20478   6.173   5.558   4.853 -0.0187 -0.6629  2.4347
  179SAPS  C21620479   6.015   5.651   4.980 -0.1022  0.0102  0.0787
  179SAPS  H16R20480   6.000   5.757   5.011  1.9561  0.9686 -1.8758
  179SAPS  H16S20481   6.074   5.608   5.064 -0.0066 -0.6714 -0.3369
  179SAPS  C21720482   5.872   5.590   4.992 -0.0501  1.4818  0.1745
  179SAPS  H17R20483   5.895   5.484   4.969 -2.1582  1.2513 -1.1252
  179SAPS  H17S20484   5.807   5.628   4.910 -1.2794 -0.2114  0.3167
  179SAPS  C21820485   5.806   5.599   5.120  0.7665  0.0462 -0.1769
  179SAPS  H18R20486   5.864   5.547   5.199  1.5982  0.6388 -0.3915
  179SAPS  H18S20487   5.705   5.552   5.116  0.5272  0.4494  0.7497
  179SAPS  C21920488   5.809   5.729   5.192 -0.5211 -0.5620 -0.4422
  179SAPS  H19R20489   5.771   5.814   5.132 -0.5256  1.6173  2.4469
  179SAPS  H19S20490   5.915   5.744   5.220 -0.5248 -1.5038  0.1277
  179SAPS  C22020491   5.715   5.726   5.315  0.0826 -0.5373  0.1879
  179SAPS  H20R20492   5.749   5.639   5.374  0.8949  0.3334  1.0414
  179SAPS  H20S20493   5.613   5.712   5.273  0.7876 -1.9161 -1.1375
  179SAPS  H20T20494   5.713   5.818   5.377 -0.4104 -1.6275  1.8424
  179SAPS   C3320495   6.194   5.966   3.962 -0.3818  0.2515 -0.3851
  179SAPS   H3X20496   6.205   6.051   3.891 -2.1899  0.4088 -0.5199
  179SAPS   H3Y20497   6.256   5.887   3.913  0.2673  0.5320 -0.0318
  179SAPS   C3420498   6.234   6.001   4.102 -0.1235 -0.3757 -0.3742
  179SAPS   H4X20499   6.162   6.075   4.144 -1.5396 -0.0527 -3.1250
  179SAPS   H4Y20500   6.328   6.061   4.104 -0.8143  0.7198  0.3815
  179SAPS   C3520501   6.262   5.878   4.183  0.0504 -0.6695 -0.8230
  179SAPS   H5X20502   6.326   5.803   4.132 -0.1904 -3.0347  2.0769
  179SAPS   H5Y20503   6.169   5.823   4.207  0.0681 -0.8692 -1.2052
  179SAPS   C3620504   6.333   5.911   4.315 -0.0857  0.0523  0.5364
  179SAPS   H6X20505   6.262   5.980   4.364 -0.6900  0.1826 -0.4908
  179SAPS   H6Y20506   6.430   5.958   4.288  0.7525 -2.6361 -1.6015
  179SAPS   C3720507   6.361   5.787   4.402 -0.3885 -0.0609 -0.3591
  179SAPS   H7X20508   6.431   5.712   4.360 -1.5572 -1.7309  0.5901
  179SAPS   H7Y20509   6.261   5.741   4.407 -0.7595  0.7661  0.0859
  179SAPS   C3820510   6.426   5.826   4.539  0.2598  0.2176  0.5423
  179SAPS   H8X20511   6.363   5.899   4.595  0.9511  1.0108  0.3031
  179SAPS   H8Y20512   6.523   5.869   4.506  1.2008 -3.5135 -2.1048
  179SAPS   C3920513   6.447   5.709   4.629  0.1790  0.2696 -0.5550
  179SAPS   H9X20514   6.518   5.640   4.578  0.6937  1.2177 -1.1424
  179SAPS   H9Y20515   6.355   5.647   4.639  0.4149 -0.0794 -0.5258
  179SAPS  C31020516   6.500   5.751   4.766 -0.4049 -0.2237 -0.3147
  179SAPS  H10X20517   6.433   5.834   4.799  2.1230  2.8875 -2.3922
  179SAPS  H10Y20518   6.598   5.797   4.743 -0.2772  0.0318  0.6836
  179SAPS  C31120519   6.508   5.639   4.866  0.6092 -0.2168 -0.7618
  179SAPS  H11X20520   6.570   5.557   4.825 -0.4169 -0.9763 -0.8262
  179SAPS  H11Y20521   6.401   5.611   4.880  0.7008  0.1911  1.0461
  179SAPS  C31220522   6.570   5.673   5.005 -0.3655 -0.4009 -0.3279
  179SAPS  H12X20523   6.569   5.581   5.067  0.1873 -0.3508 -0.2404
  179SAPS  H12Y20524   6.504   5.749   5.050 -1.3229 -2.3074  1.6587
  179SAPS  C31320525   6.713   5.735   4.998  0.1401 -0.1413 -0.2871
  179SAPS  H13X20526   6.719   5.810   4.916  0.5785  1.5414  1.2276
  179SAPS  H13Y20527   6.791   5.663   4.964 -0.5308 -0.3219 -1.5450
  179SAPS  C31420528   6.755   5.782   5.140  0.1178  0.0391 -0.4058
  179SAPS  H14X20529   6.855   5.827   5.119  0.1322  0.4125  0.4390
  179SAPS  H14Y20530   6.764   5.692   5.205  2.1211  0.7029  0.3247
  179SAPS  C31520531   6.671   5.902   5.202  0.0384  0.1506 -0.4936
  179SAPS  H15X20532   6.565   5.874   5.224 -0.0460  0.6640 -0.2459
  179SAPS  H15Y20533   6.662   5.997   5.145  0.9643  1.3320  1.2368
  179SAPS  C31620534   6.737   5.934   5.336  0.1014  0.6058 -0.0379
  179SAPS  H16X20535   6.837   5.979   5.317  0.0533  0.7231 -0.0137
  179SAPS  H16Y20536   6.752   5.836   5.387 -0.9217  1.3965  1.8943
  179SAPS  C31720537   6.675   6.048   5.420  0.5778 -0.4893  0.2802
  179SAPS  H17X20538   6.695   6.135   5.354  0.9582 -0.9396 -0.2125
  179SAPS  H17Y20539   6.718   6.050   5.522 -0.4835  0.8367  0.7311
  179SAPS  C31820540   6.526   6.027   5.425 -0.5183 -0.0753 -0.6427
  179SAPS  H18X20541   6.509   5.919   5.442  0.8292 -0.5978 -2.3425
  179SAPS  H18Y20542   6.483   6.073   5.333  2.3660  0.2650 -1.9519
  179SAPS  H18Z20543   6.466   6.079   5.503  0.5640  1.3096 -0.7005
  180SAPS     N20544   2.193   5.114   2.710  0.0792  0.0092 -0.0726
  180SAPS   HN120545   2.140   5.153   2.629  0.1558  1.4201  0.5161
  180SAPS   HN220546   2.144   5.159   2.790 -0.0957  0.4766 -0.4333
  180SAPS   HN320547   2.290   5.154   2.714 -0.1278  0.6715 -1.1434
  180SAPS   C1220548   2.188   4.971   2.712  0.0664 -0.0020  0.6538
  180SAPS  H12A20549   2.094   4.939   2.755  0.0183 -0.8530 -0.0579
  180SAPS   C1320550   2.215   4.924   2.565 -0.3275 -0.0082 -0.0848
  180SAPS  O13A20551   2.199   5.006   2.472  0.0084 -0.2606 -0.4831
  180SAPS  O13B20552   2.269   4.805   2.546  0.4891 -0.4461 -0.3330
  180SAPS   C1120553   2.295   4.921   2.808  0.1644 -0.2587  1.0794
  180SAPS  H11A20554   2.395   4.935   2.761 -1.2098  2.0520 -1.4641
  180SAPS  H11B20555   2.283   4.811   2.817 -0.4319 -0.3084 -0.0603
  180SAPS     P20556   2.393   4.971   3.043  0.2435  0.1910  0.0423
  180SAPS   O1320557   2.332   4.961   3.175  0.1326  0.7757 -0.1727
  180SAPS   O1420558   2.478   4.862   3.005 -0.1790  0.1971 -0.2137
  180SAPS   O1220559   2.277   4.985   2.938  0.2469 -0.4699  0.0879
  180SAPS   O1120560   2.468   5.109   3.026 -1.1814 -0.2090  0.0707
  180SAPS    C120561   2.573   5.146   3.126 -0.2968  0.3586 -0.7043
  180SAPS    HA20562   2.611   5.066   3.193  1.4905 -0.0857 -2.1693
  180SAPS    HB20563   2.670   5.171   3.078 -0.1243  0.2639 -0.4089
  180SAPS    C220564   2.530   5.276   3.212  0.4051  0.7468 -0.4740
  180SAPS    HS20565   2.620   5.307   3.269  0.3789 -0.8501  0.5127
  180SAPS   O2120566   2.421   5.240   3.307  0.3190  0.3436  0.2288
  180SAPS   C2120567   2.457   5.180   3.420 -0.7859 -0.5879 -0.3947
  180SAPS   O2220568   2.570   5.164   3.461 -0.1099 -0.1060  0.0511
  180SAPS   C2220569   2.337   5.142   3.497 -0.1780 -0.1544  0.0359
  180SAPS   H2R20570   2.278   5.230   3.529  0.1897  0.7340 -1.6430
  180SAPS   H2S20571   2.275   5.072   3.437  0.6277 -0.5813 -0.3272
  180SAPS    C320572   2.475   5.387   3.125  0.5534 -1.2365  0.1856
  180SAPS    HX20573   2.395   5.350   3.058  0.6193  1.6529 -1.6693
  180SAPS    HY20574   2.555   5.425   3.058 -0.5703 -0.2444 -0.6218
  180SAPS   O3120575   2.424   5.502   3.201 -0.9046  0.2799  0.1024
  180SAPS   C3120576   2.299   5.486   3.241  0.3351 -0.3647  0.3880
  180SAPS   O3220577   2.223   5.401   3.206 -0.2805 -0.1022 -0.6449
  180SAPS   C3220578   2.262   5.605   3.326  0.3539  0.5268  0.2502
  180SAPS   H2X20579   2.151   5.598   3.333  0.0156  1.3024 -2.9280
  180SAPS   H2Y20580   2.258   5.702   3.272 -3.5129  0.7803  0.6954
  180SAPS   C2320581   2.383   5.077   3.625 -0.4339  0.2185 -0.1485
  180SAPS   H3R20582   2.476   5.019   3.610  0.7022  1.8278  0.3849
  180SAPS   H3S20583   2.303   5.012   3.668  2.7124 -1.9650  3.0239
  180SAPS   C2420584   2.441   5.173   3.734  0.0986  0.2721  0.1069
  180SAPS   H4R20585   2.368   5.255   3.747 -1.4576 -0.8976 -0.9276
  180SAPS   H4S20586   2.534   5.219   3.694  0.5131 -1.0737 -0.5596
  180SAPS   C2520587   2.456   5.111   3.872 -0.1757 -0.2380 -0.8040
  180SAPS   H5R20588   2.371   5.052   3.911 -1.9029  2.7949  0.3094
  180SAPS   C2620589   2.551   5.138   3.971  0.2136 -0.1157  0.1189
  180SAPS   H6R20590   2.532   5.094   4.070  0.4299  2.4723  1.3861
  180SAPS   C2720591   2.679   5.213   3.947  0.0228 -0.1705 -0.4986
  180SAPS   H7R20592   2.679   5.305   4.009  2.3890 -0.3460 -0.1601
  180SAPS   H7S20593   2.691   5.234   3.839 -0.0265  0.6301 -0.3526
  180SAPS   C2820594   2.793   5.135   3.996 -0.1662 -0.7454 -0.1222
  180SAPS   H8R20595   2.817   5.055   3.924 -0.6996  0.8742 -2.1988
  180SAPS   C2920596   2.855   5.127   4.115 -0.6883  0.1304 -0.8125
  180SAPS   H9R20597   2.925   5.043   4.126 -2.6820 -1.5272 -0.0451
  180SAPS  C21020598   2.822   5.205   4.242 -0.1073 -0.4068  0.4841
  180SAPS  H10R20599   2.761   5.139   4.307  0.7732 -2.9291 -1.1010
  180SAPS  H10S20600   2.751   5.285   4.215 -0.4435 -1.4388 -2.0052
  180SAPS  C21120601   2.934   5.266   4.317  0.2627  0.3056 -0.2446
  180SAPS  H11R20602   3.036   5.272   4.277  0.0024  2.1269 -0.7254
  180SAPS  C21220603   2.920   5.304   4.445  0.0429 -0.1218 -0.3111
  180SAPS  H12R20604   3.012   5.341   4.493 -0.1740 -3.1819  2.8102
  180SAPS  C21320605   2.793   5.318   4.529 -1.2425 -0.3872  0.2143
  180SAPS  H13R20606   2.804   5.288   4.635  1.3374  0.9803  0.3996
  180SAPS  H13S20607   2.717   5.248   4.486  0.7955 -2.3872 -0.3381
  180SAPS  C21420608   2.727   5.447   4.512  0.9573 -0.3118 -0.3831
  180SAPS  H14R20609   2.657   5.446   4.427 -1.6689  1.8294  1.5911
  180SAPS  C21520610   2.741   5.559   4.590 -0.2028 -0.0835 -0.1063
  180SAPS  H15R20611   2.693   5.657   4.579 -0.5471 -0.0047  1.7731
  180SAPS  C21620612   2.836   5.571   4.710  0.4908 -0.2943 -0.2170
  180SAPS  H16R20613   2.904   5.657   4.694 -1.6597  1.1324 -2.3331
  180SAPS  H16S20614   2.896   5.479   4.725 -0.7746 -0.8603  1.8622
  180SAPS  C21720615   2.780   5.618   4.852 -0.2193 -0.0722  0.1623
  180SAPS  H17R20616   2.738   5.721   4.849 -0.5878 -0.2391 -0.4434
  180SAPS  H17S20617   2.869   5.632   4.917 -1.1814 -1.0597  1.7482
  180SAPS  C21820618   2.690   5.512   4.918  0.2287  0.1988  0.0516
  180SAPS  H18R20619   2.746   5.416   4.912  0.6273  0.4834 -1.0919
  180SAPS  H18S20620   2.595   5.515   4.861 -0.4722 -2.0071  0.9865
  180SAPS  C21920621   2.645   5.556   5.053  0.2029 -0.9380 -0.3823
  180SAPS  H19R20622   2.566   5.482   5.081  1.2913 -1.6158  1.0483
  180SAPS  H19S20623   2.592   5.653   5.054  3.5272  1.0242 -0.6227
  180SAPS  C22020624   2.749   5.568   5.166 -0.2917  0.3930  0.3061
  180SAPS  H20R20625   2.841   5.618   5.128 -0.1248 -0.5397 -0.5566
  180SAPS  H20S20626   2.700   5.626   5.248 -0.3657 -1.2071  1.4232
  180SAPS  H20T20627   2.781   5.472   5.211  1.4486  0.7652 -0.0688
  180SAPS   C3320628   2.328   5.616   3.467 -0.2278 -0.6943  0.2021
  180SAPS   H3X20629   2.290   5.713   3.508 -0.1776 -1.7693  2.9907
  180SAPS   H3Y20630   2.438   5.626   3.467 -0.2788  0.5413  2.2068
  180SAPS   C3420631   2.296   5.510   3.563 -0.0080  0.4872  0.3984
  180SAPS   H4X20632   2.373   5.429   3.557  0.3524  0.8636 -0.1106
  180SAPS   H4Y20633   2.203   5.451   3.548  0.0872 -0.5942  3.2404
  180SAPS   C3520634   2.305   5.566   3.706  0.3456 -0.0714 -0.1588
  180SAPS   H5X20635   2.246   5.502   3.775  1.0718 -2.4353 -1.5906
  180SAPS   H5Y20636   2.259   5.667   3.706 -2.3221 -1.1914  1.2510
  180SAPS   C3620637   2.447   5.560   3.770  0.0350 -0.1604 -0.5424
  180SAPS   H6X20638   2.512   5.631   3.715 -0.1314  1.5308  1.3387
  180SAPS   H6Y20639   2.491   5.459   3.755 -1.5792 -0.7471 -1.6893
  180SAPS   C3720640   2.449   5.604   3.917 -0.4360 -0.4706  0.7696
  180SAPS   H7X20641   2.381   5.532   3.967  0.9311 -2.2971  0.0840
  180SAPS   H7Y20642   2.395   5.700   3.932 -0.7460 -0.1706 -1.7151
  180SAPS   C3820643   2.585   5.603   3.989 -0.1363  0.0422 -0.0509
  180SAPS   H8X20644   2.652   5.688   3.960 -2.4996  1.7913 -0.7264
  180SAPS   H8Y20645   2.638   5.508   3.969 -0.4220 -0.1767  0.2377
  180SAPS   C3920646   2.568   5.604   4.141  0.4730 -0.1071 -0.4962
  180SAPS   H9X20647   2.671   5.591   4.181  1.0980  0.8080 -1.7522
  180SAPS   H9Y20648   2.505   5.519   4.178  0.1630  0.1949 -0.3161
  180SAPS  C31020649   2.511   5.736   4.192  0.1574  1.0365  0.0003
  180SAPS  H10X20650   2.411   5.747   4.143  1.5478 -1.1981 -3.7687
  180SAPS  H10Y20651   2.569   5.819   4.146  1.2844 -0.7042 -1.8729
  180SAPS  C31120652   2.506   5.744   4.352  0.0026  0.3525  0.3801
  180SAPS  H11X20653   2.603   5.713   4.396  0.0862 -0.4592 -0.3555
  180SAPS  H11Y20654   2.439   5.667   4.397 -1.1579  1.1822  0.1137
  180SAPS  C31220655   2.474   5.885   4.409  0.2189 -0.2666 -0.0492
  180SAPS  H12X20656   2.366   5.909   4.403  0.4770  0.7786 -0.6360
  180SAPS  H12Y20657   2.531   5.962   4.353 -1.7546  1.7869  0.6087
  180SAPS  C31320658   2.521   5.893   4.557 -0.4974 -0.5889  0.3759
  180SAPS  H13X20659   2.626   5.862   4.578 -1.1080 -1.0138  3.1541
  180SAPS  H13Y20660   2.465   5.822   4.621 -0.0285 -0.5902  0.7886
  180SAPS  C31420661   2.494   6.031   4.623 -0.2516 -0.4746 -0.4793
  180SAPS  H14X20662   2.383   6.036   4.630 -0.4118 -0.8714 -2.2434
  180SAPS  H14Y20663   2.532   6.117   4.564 -0.6550 -0.9708 -1.5007
  180SAPS  C31520664   2.556   6.042   4.767 -0.2576  0.1646 -0.1199
  180SAPS  H15X20665   2.665   6.056   4.747 -0.3365 -0.1348 -0.7785
  180SAPS  H15Y20666   2.546   5.947   4.822  4.1930 -0.6981 -0.4029
  180SAPS  C31620667   2.495   6.164   4.840 -0.3119  0.1282  0.0118
  180SAPS  H16X20668   2.388   6.146   4.864 -0.2236 -0.3782  0.0260
  180SAPS  H16Y20669   2.513   6.254   4.777  0.2202 -1.2429 -1.9115
  180SAPS  C31720670   2.569   6.191   4.974 -0.2229 -0.0554  0.0292
  180SAPS  H17X20671   2.544   6.292   5.013  0.5941 -0.0585  0.5904
  180SAPS  H17Y20672   2.676   6.199   4.946 -0.6176  1.3528 -1.1937
  180SAPS  C31820673   2.550   6.085   5.087  0.1291  0.2378 -0.2433
  180SAPS  H18X20674   2.452   6.078   5.138  0.4993  0.3140  0.4953
  180SAPS  H18Y20675   2.630   6.087   5.165  1.0143 -2.2691 -0.9877
  180SAPS  H18Z20676   2.565   5.984   5.043 -0.5792 -0.1411  0.3706
  181POPC     N20677   2.588   0.796   7.553  0.0836  0.2857  0.7270
  181POPC   C1220678   2.575   0.945   7.585  0.4293  0.1227  0.3085
  181POPC  H12A20679   2.667   1.002   7.583 -0.7092  2.0452 -0.2571
  181POPC  H12B20680   2.544   0.950   7.689  0.2001  1.9297  0.1876
  181POPC   C1320681   2.455   0.729   7.560  0.6553  0.0428 -0.1170
  181POPC  H13A20682   2.390   0.779   7.490  2.4168  1.1040 -1.0677
  181POPC  H13B20683   2.458   0.623   7.539 -0.4067  0.1622 -0.9935
  181POPC  H13C20684   2.411   0.747   7.657 -0.0982  2.5095 -0.8423
  181POPC   C1420685   2.629   0.773   7.412  0.2486  0.4528  0.1433
  181POPC  H14A20686   2.727   0.810   7.386 -0.1054  1.1651 -0.1883
  181POPC  H14B20687   2.633   0.665   7.405 -1.0247  0.3905  0.1861
  181POPC  H14C20688   2.553   0.808   7.344  0.0520  0.6394  0.4556
  181POPC   C1520689   2.674   0.719   7.649  0.0082 -0.0148  0.3146
  181POPC  H15A20690   2.624   0.733   7.743 -0.6100 -1.5676  0.2524
  181POPC  H15B20691   2.770   0.758   7.679  0.0619 -1.0027  1.5217
  181POPC  H15C20692   2.671   0.611   7.637  0.0465 -0.0375  0.5108
  181POPC   C1120693   2.467   1.025   7.505 -0.5122 -0.6454  0.1663
  181POPC  H11A20694   2.371   0.969   7.507 -0.2446 -1.3027 -2.2493
  181POPC  H11B20695   2.507   1.030   7.401 -3.6481 -0.4035 -1.1387
  181POPC     P20696   2.566   1.261   7.530  0.2367  0.3398  0.3328
  181POPC   O1320697   2.688   1.192   7.586  0.2936  0.1015  0.5773
  181POPC   O1420698   2.525   1.391   7.575 -0.0562  0.6773 -0.3822
  181POPC   O1220699   2.447   1.160   7.550  0.9476 -0.3727  0.2774
  181POPC   O1120700   2.589   1.268   7.369  1.2843  0.5185 -0.8388
  181POPC    C120701   2.491   1.338   7.290 -0.2926 -0.1328 -0.2332
  181POPC    HA20702   2.491   1.445   7.321  1.9382  0.0318 -0.6232
  181POPC    HB20703   2.394   1.289   7.312 -0.6691  0.8881  0.4530
  181POPC    C220704   2.534   1.341   7.139  0.5002 -0.3222  0.0531
  181POPC    HS20705   2.547   1.237   7.101 -0.6129 -0.4899  0.1088
  181POPC   O2120706   2.649   1.422   7.127 -0.2105  1.0318 -0.2227
  181POPC   C2120707   2.733   1.374   7.036 -0.5769 -0.0885  0.0611
  181POPC   O2220708   2.712   1.284   6.958 -0.4076 -0.4330 -0.3306
  181POPC   C2220709   2.866   1.456   7.054 -0.6110  0.0463 -0.1603
  181POPC   H2R20710   2.918   1.414   7.144  0.0228 -1.1178 -1.0330
  181POPC   H2S20711   2.844   1.562   7.079  0.6057 -0.1596  2.0843
  181POPC    C320712   2.418   1.403   7.054  0.0909  0.1044  0.4489
  181POPC    HX20713   2.386   1.500   7.097 -2.2424  0.8279 -2.5732
  181POPC    HY20714   2.324   1.345   7.068  0.1770  0.4708  3.1070
  181POPC   O3120715   2.458   1.415   6.915  0.4916 -0.0019  0.2286
  181POPC   C3120716   2.449   1.296   6.847  0.6072 -0.4505 -0.0937
  181POPC   O3220717   2.408   1.187   6.889  0.4199 -0.3488  0.8418
  181POPC   C3220718   2.506   1.319   6.708  0.1792  0.1339  0.5667
  181POPC   H2X20719   2.595   1.254   6.695  0.6212  0.9287 -0.5184
  181POPC   H2Y20720   2.535   1.425   6.690 -2.7540  0.7039 -1.3892
  181POPC   C2320721   2.969   1.457   6.935 -0.1444 -0.1676  0.2138
  181POPC   H3R20722   3.041   1.372   6.938 -0.7988 -0.9615 -2.9316
  181POPC   H3S20723   3.031   1.548   6.950  0.1913 -0.6243  1.9238
  181POPC   C2420724   2.897   1.485   6.810  0.5494 -0.5899  0.4406
  181POPC   H4R20725   2.817   1.562   6.817  0.6558 -0.2805 -1.2235
  181POPC   H4S20726   2.836   1.402   6.769 -0.3390  0.3581 -0.2147
  181POPC   C2520727   2.984   1.526   6.687 -0.4524  0.0560  0.2917
  181POPC   H5R20728   3.061   1.446   6.687  0.6404  1.0821  0.3725
  181POPC   H5S20729   3.029   1.627   6.692  2.1258 -0.7685 -2.6814
  181POPC   C2620730   2.904   1.523   6.556  0.0777  0.8425  0.3446
  181POPC   H6R20731   2.814   1.589   6.564 -0.6939 -0.2254  0.6093
  181POPC   H6S20732   2.863   1.420   6.554  1.5122  0.1565  2.4365
  181POPC   C2720733   2.981   1.564   6.427 -1.1309  0.9589 -0.0919
  181POPC   H7R20734   3.055   1.484   6.405  1.1761  2.0153  3.0705
  181POPC   H7S20735   3.038   1.657   6.449 -1.2725  0.3988  3.0266
  181POPC   C2820736   2.892   1.579   6.313  0.0164 -0.0765 -0.7781
  181POPC   H8R20737   2.810   1.642   6.354 -0.5459 -2.2107  1.6048
  181POPC   H8S20738   2.854   1.487   6.265 -2.4461  0.7601 -0.5804
  181POPC   C2920739   2.964   1.671   6.215  0.1148  0.4256 -0.6698
  181POPC   H9120740   3.046   1.731   6.257  0.5521 -0.5971 -0.0205
  181POPC  C21020741   2.931   1.686   6.085 -0.3985  0.4847 -0.9636
  181POPC  H10120742   3.005   1.745   6.030 -1.2774  1.6723 -0.8973
  181POPC  C21120743   2.823   1.615   6.004 -0.2188 -0.6112  0.4778
  181POPC  H11R20744   2.776   1.691   5.938  0.7768 -0.9970 -0.7143
  181POPC  H11S20745   2.745   1.568   6.069 -1.7552  0.7496 -0.3074
  181POPC  C21220746   2.877   1.504   5.915 -0.2714 -0.2641  0.2569
  181POPC  H12R20747   2.791   1.454   5.866  0.7714 -0.4867 -1.3990
  181POPC  H12S20748   2.931   1.427   5.975 -0.0815 -0.9461 -0.7585
  181POPC  C21320749   2.966   1.557   5.798  0.0204  1.4071  0.0427
  181POPC  H13R20750   3.033   1.478   5.758  1.8114  1.7820  2.1151
  181POPC  H13S20751   3.036   1.631   5.840 -0.3107  1.8930 -0.2511
  181POPC  C21420752   2.904   1.620   5.677  0.0839 -0.5651  0.5345
  181POPC  H14R20753   2.846   1.708   5.712  1.8523  1.9814 -2.3854
  181POPC  H14S20754   2.833   1.555   5.622 -0.5228  0.0249  0.6068
  181POPC  C21520755   3.009   1.668   5.577 -0.4477 -0.2037 -0.5017
  181POPC  H15R20756   2.960   1.713   5.488 -0.1139 -1.3105 -1.2628
  181POPC  H15S20757   3.057   1.574   5.542 -1.2238 -1.6992  2.1382
  181POPC  C21620758   3.111   1.768   5.629 -0.0720 -0.2714 -0.4921
  181POPC  H16R20759   3.166   1.728   5.716 -0.1760  0.0221 -0.2922
  181POPC  H16S20760   3.054   1.855   5.667  2.6728  0.5689  2.0365
  181POPC  C21720761   3.210   1.814   5.524  0.2132  0.0426 -0.5984
  181POPC  H17R20762   3.143   1.860   5.448  1.2381  3.8490  0.6208
  181POPC  H17S20763   3.260   1.728   5.475  0.5071 -0.4545  0.5436
  181POPC  C21820764   3.314   1.917   5.556  0.6293  0.4910 -0.2338
  181POPC  H18R20765   3.352   1.960   5.461 -1.2178 -0.0633 -1.2645
  181POPC  H18S20766   3.393   1.871   5.619  0.7159  2.4918  1.2226
  181POPC  H18T20767   3.270   2.004   5.609 -1.3468  0.4348 -1.6697
  181POPC   C3320768   2.413   1.280   6.591  0.1875 -1.0407 -1.0733
  181POPC   H3X20769   2.320   1.340   6.578 -1.0489 -2.7305 -0.4966
  181POPC   H3Y20770   2.389   1.172   6.603 -0.2277 -0.7370  1.3822
  181POPC   C3420771   2.484   1.291   6.451  0.8811  0.2135 -0.0851
  181POPC   H4X20772   2.405   1.246   6.388  1.1965  0.2191 -0.4875
  181POPC   H4Y20773   2.582   1.239   6.450 -0.1124 -1.7879 -2.3263
  181POPC   C3520774   2.510   1.435   6.405  0.4351  0.1156  0.0110
  181POPC   H5X20775   2.567   1.479   6.489  0.0917 -0.3936  0.5108
  181POPC   H5Y20776   2.406   1.476   6.403 -0.5319 -2.1822  0.7805
  181POPC   C3620777   2.579   1.461   6.267  0.3599  0.0505 -0.3863
  181POPC   H6X20778   2.663   1.389   6.258 -0.4597 -1.2025  1.4172
  181POPC   H6Y20779   2.593   1.571   6.258  0.3509 -0.0539 -1.9919
  181POPC   C3720780   2.466   1.438   6.155  0.0906 -0.0879  0.1715
  181POPC   H7X20781   2.378   1.501   6.177  1.7622  2.0748  1.0707
  181POPC   H7Y20782   2.442   1.329   6.162  1.1021 -0.3976 -0.8236
  181POPC   C3820783   2.503   1.482   6.009 -0.2044 -0.9571  0.2555
  181POPC   H8X20784   2.596   1.427   5.984  1.8385  2.2819  0.1754
  181POPC   H8Y20785   2.527   1.591   6.012  0.9102 -1.0306 -2.5756
  181POPC   C3920786   2.396   1.448   5.905  0.1022  0.5490  0.0912
  181POPC   H9X20787   2.310   1.517   5.914 -0.5733 -0.0535 -1.4664
  181POPC   H9Y20788   2.373   1.341   5.924  2.4141 -0.0466 -0.0702
  181POPC  C31020789   2.457   1.473   5.758 -0.4658 -0.6404 -0.4038
  181POPC  H10X20790   2.539   1.401   5.739 -0.0724 -0.0749 -0.9202
  181POPC  H10Y20791   2.507   1.572   5.750 -1.7859 -0.0032 -1.2271
  181POPC  C31120792   2.349   1.477   5.646  1.1224  0.1437 -0.1660
  181POPC  H11X20793   2.260   1.538   5.673  1.1670 -0.3347  1.1415
  181POPC  H11Y20794   2.311   1.376   5.621 -1.1548  1.3675 -2.0538
  181POPC  C31220795   2.413   1.531   5.521  0.5951  0.0437  0.2910
  181POPC  H12X20796   2.511   1.479   5.509  0.2057 -1.4360  2.8627
  181POPC  H12Y20797   2.428   1.641   5.524  1.0446  0.1553 -2.8337
  181POPC  C31320798   2.323   1.520   5.398  0.5591  0.8155 -0.2146
  181POPC  H13X20799   2.223   1.566   5.411  0.5267  0.9747 -0.9856
  181POPC  H13Y20800   2.293   1.414   5.384 -2.2608  1.5997 -0.6431
  181POPC  C31420801   2.400   1.559   5.260  0.4747 -0.7846 -0.7208
  181POPC  H14X20802   2.419   1.668   5.257 -1.2136 -0.4633 -0.5782
  181POPC  H14Y20803   2.322   1.547   5.182 -0.3380 -1.0769  0.1107
  181POPC  C31520804   2.527   1.482   5.229 -0.1289  1.0183 -0.0706
  181POPC  H15X20805   2.504   1.374   5.241  0.3603  0.9872  0.6165
  181POPC  H15Y20806   2.610   1.500   5.301  0.6388 -0.1078 -0.6351
  181POPC  C31620807   2.576   1.506   5.092 -0.1452 -0.5680 -0.0375
  181POPC  H16X20808   2.575   1.615   5.075  2.5291  0.0506  3.0079
  181POPC  H16Y20809   2.513   1.464   5.010  2.0946 -0.9282 -1.6634
  181POPC  H16Z20810   2.675   1.465   5.062  0.5574  0.8413  0.3066
  182POPC     N20811   0.149   0.807   7.180 -0.6766  0.0400  0.3890
  182POPC   C1220812   0.077   0.696   7.267  0.1608 -0.0800  0.4773
  182POPC  H12A20813  -0.025   0.725   7.288  0.4733  0.2083  1.6650
  182POPC  H12B20814   0.135   0.698   7.358  1.7620  0.8356 -0.5261
  182POPC   C1320815   0.131   0.944   7.238  0.1718  0.4333 -0.4661
  182POPC  H13A20816   0.200   1.018   7.202  0.7612  0.7573  1.2426
  182POPC  H13B20817   0.034   0.987   7.216  0.6654  2.1215  0.4894
  182POPC  H13C20818   0.136   0.939   7.346 -0.3477  0.2400 -0.4440
  182POPC   C1420819   0.299   0.780   7.200  0.4675  1.0300 -0.9097
  182POPC  H14A20820   0.325   0.800   7.303  0.7474 -0.7493 -0.6130
  182POPC  H14B20821   0.317   0.679   7.168 -2.1336  0.2371 -0.0419
  182POPC  H14C20822   0.358   0.837   7.130  1.6812  1.3376  0.3108
  182POPC   C1520823   0.106   0.791   7.037  0.2376 -0.8378  0.5726
  182POPC  H15A20824  -0.000   0.793   7.020  0.4704  0.5208 -0.9110
  182POPC  H15B20825   0.143   0.696   7.001  3.6303  0.8186 -0.7260
  182POPC  H15C20826   0.151   0.861   6.968  0.7763 -2.0276 -0.3210
  182POPC   C1120827   0.087   0.548   7.225  0.1117  0.0333 -0.5629
  182POPC  H11A20828   0.046   0.492   7.312 -0.0331 -0.4836 -0.9590
  182POPC  H11B20829   0.193   0.516   7.234  0.0143  0.0921  1.0315
  182POPC     P20830   0.050   0.385   7.033 -0.0369  0.1905  0.3888
  182POPC   O1320831   0.059   0.275   7.130  0.0858 -0.3538 -0.2958
  182POPC   O1420832   0.171   0.397   6.942 -0.0828  0.2627  0.3296
  182POPC   O1220833   0.034   0.523   7.098 -0.4703 -0.1427  0.2128
  182POPC   O1120834  -0.071   0.361   6.942  0.1957 -0.1967  0.8718
  182POPC    C120835  -0.132   0.464   6.870  0.4864  0.0728  0.2682
  182POPC    HA20836  -0.184   0.412   6.786  1.7249 -0.1308 -0.4047
  182POPC    HB20837  -0.059   0.532   6.820  1.7760 -1.7901 -0.5402
  182POPC    C220838  -0.235   0.540   6.952 -0.2145 -0.0317  0.2549
  182POPC    HS20839  -0.177   0.602   7.024  0.8939 -0.5752 -0.1514
  182POPC   O2120840  -0.329   0.444   7.016 -0.1267 -0.4595  0.4087
  182POPC   C2120841  -0.357   0.486   7.144  0.4532  0.0344  0.6567
  182POPC   O2220842  -0.311   0.584   7.197  0.6158  0.1547 -0.1243
  182POPC   C2220843  -0.457   0.390   7.205 -0.2109 -0.8268  0.4951
  182POPC   H2R20844  -0.499   0.445   7.292 -2.2986 -1.0891 -0.2909
  182POPC   H2S20845  -0.388   0.305   7.223  2.0580 -0.6888 -5.3975
  182POPC    C320846  -0.324   0.629   6.862 -0.2005 -0.6835 -0.1732
  182POPC    HX20847  -0.256   0.701   6.811  1.9978 -0.3946  2.8911
  182POPC    HY20848  -0.382   0.679   6.942  1.3026  0.1863  0.4050
  182POPC   O3120849  -0.399   0.565   6.762 -0.2879  0.4144 -0.3416
  182POPC   C3120850  -0.533   0.557   6.793 -0.3666  0.2480  0.0533
  182POPC   O3220851  -0.584   0.613   6.885  0.3704  1.0493 -1.0502
  182POPC   C3220852  -0.605   0.473   6.695  0.6420 -0.1717  0.1718
  182POPC   H2X20853  -0.701   0.451   6.746 -0.2248  0.9710 -0.8914
  182POPC   H2Y20854  -0.541   0.385   6.672  1.0610  0.4842 -1.2942
  182POPC   C2320855  -0.583   0.353   7.115  0.3215  0.5796  0.2207
  182POPC   H3R20856  -0.548   0.335   7.011 -1.8836  0.7475 -0.5939
  182POPC   H3S20857  -0.648   0.441   7.100 -0.1336 -0.2986 -4.4575
  182POPC   C2420858  -0.675   0.238   7.163  0.5237  0.0409 -0.6822
  182POPC   H4R20859  -0.698   0.256   7.270  0.5400 -0.6495 -0.5605
  182POPC   H4S20860  -0.618   0.143   7.155 -0.1165 -0.4108 -0.0252
  182POPC   C2520861  -0.800   0.233   7.067 -0.5462 -0.3533 -0.1054
  182POPC   H5R20862  -0.849   0.137   7.095 -0.8254 -1.0547 -2.7932
  182POPC   H5S20863  -0.764   0.232   6.962  0.6327 -3.0573  0.2535
  182POPC   C2620864  -0.895   0.349   7.094  0.0134 -0.2663  0.1423
  182POPC   H6R20865  -0.852   0.445   7.057 -0.5331  0.0335  0.2808
  182POPC   H6S20866  -0.904   0.354   7.205  2.5481 -0.2800  0.4072
  182POPC   C2720867  -1.029   0.330   7.030  0.9729 -0.3169 -0.0335
  182POPC   H7R20868  -1.095   0.416   7.057  1.4184  0.6234 -1.7855
  182POPC   H7S20869  -1.087   0.240   7.059 -1.0268  1.4269  1.6983
  182POPC   C2820870  -1.016   0.327   6.875  0.6194  0.4051 -0.5604
  182POPC   H8R20871  -0.944   0.245   6.855  1.2451  0.1388  2.3051
  182POPC   H8S20872  -0.980   0.423   6.832  1.3365  0.0913 -0.6579
  182POPC   C2920873  -1.153   0.313   6.817  0.0326  0.6327 -0.2986
  182POPC   H9120874  -1.233   0.345   6.884  0.7818  1.3414  0.2724
  182POPC  C21020875  -1.183   0.294   6.686  0.7881 -0.6920 -0.5206
  182POPC  H10120876  -1.287   0.293   6.651  0.9012  1.6809 -1.1092
  182POPC  C21120877  -1.072   0.268   6.585 -0.0826  0.3440 -0.6108
  182POPC  H11R20878  -1.066   0.157   6.580 -1.4694  0.1520  1.0201
  182POPC  H11S20879  -0.971   0.304   6.615 -0.2260 -1.4454  2.5151
  182POPC  C21220880  -1.100   0.309   6.438  0.1541 -0.1698  0.1351
  182POPC  H12R20881  -1.125   0.417   6.444 -0.3373 -0.2755  0.0176
  182POPC  H12S20882  -1.179   0.248   6.390 -0.6505 -1.3379  2.7569
  182POPC  C21320883  -0.970   0.317   6.345  0.3137 -0.1965 -1.0074
  182POPC  H13R20884  -0.945   0.211   6.322 -0.9174 -1.1977  1.7780
  182POPC  H13S20885  -0.881   0.364   6.393  0.5188 -0.7623 -0.8155
  182POPC  C21420886  -0.995   0.377   6.209  0.4146 -0.7839 -0.0237
  182POPC  H14R20887  -1.099   0.350   6.179 -0.2410  3.5405 -2.6330
  182POPC  H14S20888  -0.927   0.331   6.135  1.0786 -1.8588  1.2210
  182POPC  C21520889  -0.988   0.528   6.194 -0.2587  0.0900 -0.4880
  182POPC  H15R20890  -0.881   0.557   6.199 -0.2901  0.6186 -2.2419
  182POPC  H15S20891  -1.035   0.588   6.276  0.3515  0.3899 -0.3534
  182POPC  C21620892  -1.042   0.578   6.055 -0.5018  0.2037 -0.2789
  182POPC  H16R20893  -1.031   0.688   6.050 -0.4909  0.1432 -3.0316
  182POPC  H16S20894  -1.151   0.555   6.056 -1.1187  2.7870  1.7107
  182POPC  C21720895  -0.973   0.522   5.930 -0.2309  0.0417  0.0037
  182POPC  H17R20896  -0.998   0.414   5.937  0.1987  0.0674  3.0954
  182POPC  H17S20897  -0.863   0.531   5.943 -0.4651  2.4434  0.8065
  182POPC  C21820898  -1.014   0.576   5.792 -0.2588 -0.4989  0.4283
  182POPC  H18R20899  -0.966   0.674   5.773  1.8516 -1.5447  0.0520
  182POPC  H18S20900  -1.124   0.591   5.789 -0.3344 -1.0389  0.4220
  182POPC  H18T20901  -0.966   0.516   5.712  2.0063  1.4866  0.1880
  182POPC   C3320902  -0.630   0.546   6.562  0.6274 -0.0172 -0.4735
  182POPC   H3X20903  -0.673   0.647   6.578 -0.4097  0.0314 -3.0678
  182POPC   H3Y20904  -0.715   0.506   6.502  0.4997  1.1392 -1.0979
  182POPC   C3420905  -0.508   0.562   6.467 -0.6590  0.3153 -0.1277
  182POPC   H4X20906  -0.442   0.474   6.455 -2.1522 -0.4855 -4.0154
  182POPC   H4Y20907  -0.450   0.648   6.508 -1.0519  0.1379  0.8175
  182POPC   C3520908  -0.549   0.606   6.324 -0.6490 -0.3480 -0.3458
  182POPC   H5X20909  -0.464   0.649   6.267 -0.5625 -1.1875 -0.8685
  182POPC   H5Y20910  -0.628   0.684   6.327 -0.5330 -0.2488  0.3806
  182POPC   C3620911  -0.590   0.476   6.247 -0.3078 -0.1426  0.4139
  182POPC   H6X20912  -0.697   0.455   6.269  0.1792 -1.2997  1.8279
  182POPC   H6Y20913  -0.535   0.389   6.290 -1.4584 -1.4098 -0.5707
  182POPC   C3720914  -0.579   0.492   6.096 -0.3841  0.4513  0.0498
  182POPC   H7X20915  -0.468   0.495   6.085 -0.5022  0.5311 -1.3278
  182POPC   H7Y20916  -0.620   0.587   6.055 -1.1188 -0.3333 -1.1033
  182POPC   C3820917  -0.630   0.369   6.015  0.4078  0.5204 -0.2039
  182POPC   H8X20918  -0.735   0.353   6.046  0.3322  0.5605 -0.4417
  182POPC   H8Y20919  -0.567   0.281   6.038 -1.8938 -1.4627 -1.0593
  182POPC   C3920920  -0.628   0.387   5.862  0.0646  0.0953  0.1314
  182POPC   H9X20921  -0.523   0.411   5.837  0.0522  1.6684  1.3879
  182POPC   H9Y20922  -0.704   0.463   5.832 -1.5550 -1.7054 -0.5553
  182POPC  C31020923  -0.666   0.255   5.785 -0.3327  0.0234 -0.3223
  182POPC  H10X20924  -0.761   0.216   5.828 -1.6747  1.7390 -1.5408
  182POPC  H10Y20925  -0.587   0.178   5.796 -0.6804 -0.2397  0.3771
  182POPC  C31120926  -0.682   0.291   5.641 -0.5423 -0.4988  0.4536
  182POPC  H11X20927  -0.586   0.338   5.611 -0.8305  0.1226  0.4813
  182POPC  H11Y20928  -0.763   0.363   5.617  0.5167  0.2180 -1.1751
  182POPC  C31220929  -0.702   0.160   5.559  0.2146 -0.1569 -0.8087
  182POPC  H12X20930  -0.790   0.111   5.607  2.1636 -0.6189  2.6291
  182POPC  H12Y20931  -0.628   0.087   5.598  0.3497  0.2144 -0.3586
  182POPC  C31320932  -0.693   0.191   5.411  0.0964  0.3074  0.7828
  182POPC  H13X20933  -0.585   0.193   5.388 -0.1963  2.0429 -0.6766
  182POPC  H13Y20934  -0.749   0.282   5.382 -1.2124 -1.3458 -2.4143
  182POPC  C31420935  -0.758   0.080   5.319  0.1146 -0.1795 -0.1752
  182POPC  H14X20936  -0.863   0.084   5.354  0.6476 -3.3934  2.2676
  182POPC  H14Y20937  -0.721  -0.018   5.354 -0.6225 -0.1910  0.6115
  182POPC  C31520938  -0.739   0.098   5.166 -0.3433  0.0220  0.2579
  182POPC  H15X20939  -0.632   0.103   5.135 -0.3825 -1.3619 -0.1750
  182POPC  H15Y20940  -0.780   0.200   5.152 -2.8958 -1.1369 -1.4597
  182POPC  C31620941  -0.813   0.003   5.076  0.2469  0.7086 -0.2279
  182POPC  H16X20942  -0.923   0.001   5.093  0.0698  0.2398 -1.3706
  182POPC  H16Y20943  -0.782  -0.102   5.099  0.3820  1.0100  1.0476
  182POPC  H16Z20944  -0.801   0.022   4.968 -0.1765 -0.8362 -0.5794
  183POPC     N20945   1.946   0.952   7.945  0.3393 -0.0860 -0.2016
  183POPC   C1220946   2.089   0.924   7.892 -0.3146  0.5706  0.6966
  183POPC  H12A20947   2.129   0.838   7.944  0.4831  1.5957  1.8236
  183POPC  H12B20948   2.154   1.007   7.914 -2.1309  2.0641  0.6737
  183POPC   C1320949   1.888   1.072   7.872  0.1292 -0.3233 -0.5493
  183POPC  H13A20950   1.906   1.161   7.930  0.5223  0.1439 -1.3781
  183POPC  H13B20951   1.938   1.084   7.777  0.1917 -0.5492 -0.5448
  183POPC  H13C20952   1.783   1.065   7.844  0.2963  1.6677 -1.8984
  183POPC   C1420953   1.854   0.836   7.919  0.1759  0.1200 -0.7408
  183POPC  H14A20954   1.895   0.748   7.966  0.4923 -0.0309 -1.2989
  183POPC  H14B20955   1.752   0.848   7.954  1.4634 -0.7968  3.9903
  183POPC  H14C20956   1.848   0.827   7.812 -2.6933 -0.4031 -0.6307
  183POPC   C1520957   1.954   0.972   8.092 -0.1982 -0.5998 -0.7184
  183POPC  H15A20958   2.016   0.902   8.146  0.2083  0.7999  0.7102
  183POPC  H15B20959   1.857   0.983   8.138  0.2769 -0.0895  0.1851
  183POPC  H15C20960   2.006   1.063   8.117 -1.1750  0.1934 -1.4518
  183POPC   C1120961   2.099   0.894   7.739 -0.2464  0.0322 -0.6770
  183POPC  H11A20962   2.027   0.812   7.723 -0.4957  0.3706 -1.3518
  183POPC  H11B20963   2.196   0.842   7.722  0.8201  0.1257  3.7986
  183POPC     P20964   2.025   0.975   7.512 -0.1496  0.0254  0.0284
  183POPC   O1320965   1.879   0.958   7.499 -0.1647  0.2521  0.1893
  183POPC   O1420966   2.111   0.868   7.455 -0.1058  0.0397 -0.2818
  183POPC   O1220967   2.070   1.005   7.653  0.0406 -0.6002 -0.2563
  183POPC   O1120968   2.068   1.116   7.452 -0.3323 -0.1231  0.1784
  183POPC    C120969   1.978   1.227   7.462 -0.1382 -0.7696 -0.0613
  183POPC    HA20970   1.965   1.271   7.563 -2.8255  1.6332 -1.3138
  183POPC    HB20971   1.872   1.200   7.443 -0.4053 -0.4317  0.8938
  183POPC    C220972   2.007   1.358   7.384 -0.3663 -0.2501  0.4288
  183POPC    HS20973   1.925   1.430   7.401 -0.6362 -0.3880 -0.2752
  183POPC   O2120974   2.020   1.326   7.244 -0.1478  0.2470  0.3445
  183POPC   C2120975   1.968   1.422   7.161  0.1321 -0.6130  0.1070
  183POPC   O2220976   1.911   1.522   7.202 -0.5452  0.1602  0.5598
  183POPC   C2220977   2.010   1.401   7.016  0.3387 -0.2448 -0.1197
  183POPC   H2R20978   1.933   1.331   6.977 -1.2008  0.5686  1.2970
  183POPC   H2S20979   2.108   1.349   7.018  1.2438  1.4056  0.3176
  183POPC    C320980   2.144   1.411   7.429  0.5476 -0.1194 -0.4887
  183POPC    HX20981   2.215   1.342   7.379 -0.0770 -0.7501 -0.5232
  183POPC    HY20982   2.163   1.396   7.538  0.6801  1.5078 -0.2629
  183POPC   O3120983   2.168   1.547   7.382  0.2388 -0.1886 -0.4535
  183POPC   C3120984   2.141   1.648   7.465 -0.3353 -0.9105 -0.1249
  183POPC   O3220985   2.087   1.650   7.572  0.0600  0.1352 -0.0125
  183POPC   C3220986   2.166   1.778   7.386 -0.7639  0.5128 -0.3078
  183POPC   H2X20987   2.266   1.777   7.336 -0.5884 -0.0956  0.0415
  183POPC   H2Y20988   2.149   1.866   7.452 -1.0666  1.5064 -1.6687
  183POPC   C2320989   2.018   1.536   6.938 -0.1278 -0.1957  1.1525
  183POPC   H3R20990   2.086   1.599   7.001 -0.7456  0.6969  0.9485
  183POPC   H3S20991   1.919   1.587   6.941 -0.0315  0.3295 -1.9818
  183POPC   C2420992   2.062   1.517   6.788 -0.4888  0.5321  0.0094
  183POPC   H4R20993   1.987   1.441   6.756  1.1667 -0.9500 -0.5785
  183POPC   H4S20994   2.164   1.473   6.800 -1.2394 -1.4794 -0.5192
  183POPC   C2520995   2.057   1.645   6.698 -0.0372 -0.0733  0.1727
  183POPC   H5R20996   2.112   1.728   6.747  0.0028 -1.2451  2.2270
  183POPC   H5S20997   1.954   1.685   6.683  0.2393  0.4992 -0.2326
  183POPC   C2620998   2.119   1.623   6.558  0.1629 -0.1528 -0.6097
  183POPC   H6R20999   2.060   1.546   6.504  2.6082 -1.1152 -2.0536
  183POPC   H6S21000   2.218   1.575   6.575  1.0654  1.3889 -1.2596
  183POPC   C2721001   2.145   1.753   6.484  0.8505 -0.0412  0.1818
  183POPC   H7R21002   2.218   1.807   6.549  0.4401  1.8400 -0.8497
  183POPC   H7S21003   2.051   1.810   6.467 -0.2212 -1.0318  2.2713
  183POPC   C2821004   2.213   1.729   6.344 -0.2758 -0.0684 -0.4123
  183POPC   H8R21005   2.135   1.699   6.271  1.2278 -0.3156 -1.9711
  183POPC   H8S21006   2.299   1.660   6.353  0.3765  0.6872 -0.7431
  183POPC   C2921007   2.257   1.870   6.307  0.6857  0.3376 -0.9116
  183POPC   H9121008   2.306   1.926   6.388  1.4244  0.0184 -1.1316
  183POPC  C21021009   2.238   1.931   6.188 -0.2018 -0.3246 -0.1958
  183POPC  H10121010   2.267   2.036   6.174  1.2605 -0.6073  0.5178
  183POPC  C21121011   2.181   1.873   6.063  0.6271  0.2779  0.2290
  183POPC  H11R21012   2.077   1.908   6.051  1.0993  1.4067 -0.7382
  183POPC  H11S21013   2.191   1.762   6.066 -1.5385  0.0043 -0.6552
  183POPC  C21221014   2.269   1.919   5.951 -0.4944  0.8644  0.0028
  183POPC  H12R21015   2.375   1.890   5.972 -0.8875  0.2461  1.2353
  183POPC  H12S21016   2.258   2.030   5.950 -2.6857  0.7061 -1.5680
  183POPC  C21321017   2.224   1.881   5.802 -0.1165 -0.0819  0.4872
  183POPC  H13R21018   2.116   1.903   5.785 -0.4393 -2.9137 -2.0143
  183POPC  H13S21019   2.228   1.770   5.788  0.1843 -0.1167  0.8324
  183POPC  C21421020   2.299   1.952   5.691 -0.4155  0.1069  0.9433
  183POPC  H14R21021   2.408   1.929   5.693 -0.3602  0.0957 -0.5883
  183POPC  H14S21022   2.292   2.061   5.711  1.3243  0.4979 -0.3093
  183POPC  C21521023   2.248   1.933   5.546  0.5927  0.1166 -0.0736
  183POPC  H15R21024   2.138   1.946   5.549  0.7010  2.0411 -2.2256
  183POPC  H15S21025   2.281   1.834   5.508  5.0119  1.7823 -1.1758
  183POPC  C21621026   2.318   2.036   5.453  0.1982  0.4965 -0.2219
  183POPC  H16R21027   2.424   2.004   5.447  0.0357 -0.1905  0.5083
  183POPC  H16S21028   2.318   2.135   5.503 -1.6943 -0.0233  0.9290
  183POPC  C21721029   2.244   2.059   5.316 -0.8004 -0.6476 -0.9988
  183POPC  H17R21030   2.306   2.128   5.256  1.6501 -0.7406  1.2575
  183POPC  H17S21031   2.152   2.117   5.339  0.9006  1.4817  0.9646
  183POPC  C21821032   2.210   1.936   5.227 -1.0444  0.0900 -1.3274
  183POPC  H18R21033   2.131   1.871   5.271  0.5148  0.5499  2.5873
  183POPC  H18S21034   2.300   1.871   5.221 -0.9163  0.2756 -1.4066
  183POPC  H18T21035   2.183   1.974   5.126  0.9244  3.0038 -0.8914
  183POPC   C3321036   2.063   1.797   7.277 -0.0776 -0.3530  0.8005
  183POPC   H3X21037   1.964   1.827   7.319 -2.3274 -1.0658 -3.4046
  183POPC   H3Y21038   2.055   1.706   7.213  0.6908 -1.1746  1.8373
  183POPC   C3421039   2.109   1.913   7.186 -0.7117  0.7981  0.8689
  183POPC   H4X21040   2.214   1.885   7.162 -0.3024 -0.4751  3.7145
  183POPC   H4Y21041   2.106   2.016   7.228  0.2385  1.0745  0.2828
  183POPC   C3521042   2.048   1.905   7.048 -0.0558 -0.0043 -0.5087
  183POPC   H5X21043   1.938   1.894   7.061  0.0534 -2.3673 -1.1030
  183POPC   H5Y21044   2.082   1.815   6.992  0.3580 -0.3733  0.3171
  183POPC   C3621045   2.074   2.037   6.965  1.0995 -0.6816  0.3561
  183POPC   H6X21046   2.182   2.059   6.978  0.9280  1.7804 -1.5820
  183POPC   H6Y21047   2.020   2.128   6.999  1.3875  1.3304 -3.8618
  183POPC   C3721048   2.043   2.021   6.819 -0.8976 -0.2609 -0.1594
  183POPC   H7X21049   1.935   1.997   6.803 -1.1887 -0.0272  1.2557
  183POPC   H7Y21050   2.093   1.937   6.768  2.1469  0.3092  1.6545
  183POPC   C3821051   2.070   2.148   6.739  0.1345 -0.1051  0.5410
  183POPC   H8X21052   2.180   2.161   6.752  0.2758  0.6264 -1.1121
  183POPC   H8Y21053   2.012   2.232   6.783  0.0423  0.1477 -0.0615
  183POPC   C3921054   2.042   2.129   6.588  0.8526  0.0357 -0.6018
  183POPC   H9X21055   1.935   2.104   6.574  1.2889 -1.2991 -1.7561
  183POPC   H9Y21056   2.079   2.030   6.555 -2.5715 -0.8375 -2.2803
  183POPC  C31021057   2.083   2.243   6.500  0.0940  0.3690  0.0811
  183POPC  H10X21058   2.183   2.279   6.532  0.2639 -1.1737  1.3993
  183POPC  H10Y21059   2.015   2.327   6.527  0.0501  0.4735 -0.3444
  183POPC  C31121060   2.094   2.214   6.346 -0.4339  0.0560 -0.1851
  183POPC  H11X21061   1.996   2.183   6.306 -0.8089 -0.8882  1.3653
  183POPC  H11Y21062   2.165   2.129   6.337  1.6227  1.3104  2.6001
  183POPC  C31221063   2.145   2.347   6.274  0.1514  0.3217 -0.4311
  183POPC  H12X21064   2.251   2.360   6.306  0.3950 -2.9171  0.4673
  183POPC  H12Y21065   2.082   2.431   6.311 -2.5190 -1.7447  0.0593
  183POPC  C31321066   2.130   2.336   6.124  0.9393 -0.0071 -0.7136
  183POPC  H13X21067   2.021   2.342   6.102  0.5197 -3.0782  0.0339
  183POPC  H13Y21068   2.166   2.233   6.103  0.8005 -0.6569  1.8908
  183POPC  C31421069   2.208   2.447   6.067  0.5629  0.0917 -0.8654
  183POPC  H14X21070   2.317   2.427   6.068  0.6873  0.7551 -1.0398
  183POPC  H14Y21071   2.172   2.542   6.112  0.3458  0.0531 -0.9555
  183POPC  C31521072   2.183   2.457   5.916  0.3798  0.2469 -0.5782
  183POPC  H15X21073   2.077   2.479   5.891  0.2662  0.8396  0.3624
  183POPC  H15Y21074   2.206   2.360   5.867 -1.7294 -0.7932  0.3321
  183POPC  C31621075   2.274   2.558   5.844 -0.2899  0.3323  0.6072
  183POPC  H16X21076   2.257   2.663   5.874 -0.9396  0.3588  0.1467
  183POPC  H16Y21077   2.265   2.553   5.734  0.4338 -3.0747  0.5782
  183POPC  H16Z21078   2.379   2.537   5.875  0.8154  3.3667 -0.7060
  184POPC     N21079   1.887   5.091   8.592 -0.3614  0.0087 -0.4180
  184POPC   C1221080   1.911   5.125   8.443  0.1287 -0.3093  0.1627
  184POPC  H12A21081   1.819   5.175   8.415  0.2935 -0.9362 -1.6139
  184POPC  H12B21082   1.894   5.040   8.377 -3.9570  1.5826 -1.6072
  184POPC   C1321083   2.009   5.017   8.651  0.1082  0.7778 -0.4720
  184POPC  H13A21084   2.018   5.014   8.758  0.8971 -0.8289 -0.5499
  184POPC  H13B21085   2.025   4.917   8.614 -2.5369  0.0959  0.0211
  184POPC  H13C21086   2.095   5.079   8.630 -0.8162  2.0805 -0.5297
  184POPC   C1421087   1.870   5.215   8.664  0.2909  0.2727 -0.0206
  184POPC  H14A21088   1.958   5.274   8.644  1.6569 -1.9267 -0.9346
  184POPC  H14B21089   1.784   5.265   8.621  0.6071  1.8828  1.1170
  184POPC  H14C21090   1.862   5.212   8.772 -0.6596  1.5073 -0.0386
  184POPC   C1521091   1.764   5.010   8.615 -0.1479  0.1497  0.0204
  184POPC  H15A21092   1.762   4.979   8.719  0.8931  1.4456  0.4540
  184POPC  H15B21093   1.767   4.912   8.570 -0.3575 -0.4460  1.2488
  184POPC  H15C21094   1.674   5.067   8.598 -0.5690 -1.2727 -3.0712
  184POPC   C1121095   2.030   5.205   8.383  0.0803 -0.1198 -0.7780
  184POPC  H11A21096   2.042   5.287   8.457  0.0716 -1.8504  1.2717
  184POPC  H11B21097   2.005   5.248   8.284 -0.2931  0.4948 -0.4204
  184POPC     P21098   2.168   5.018   8.269  0.3434  0.4653  0.3637
  184POPC   O1321099   2.051   5.003   8.182  0.8827  0.2187 -0.2260
  184POPC   O1421100   2.208   4.887   8.337 -0.1796 -0.8563  0.1287
  184POPC   O1221101   2.150   5.130   8.379 -0.3712 -0.0473  0.0457
  184POPC   O1121102   2.294   5.072   8.184 -0.7766 -0.5288  0.1370
  184POPC    C121103   2.310   5.212   8.152  0.5117  0.4893  0.2581
  184POPC    HA21104   2.395   5.259   8.205  1.6310  0.6525 -1.6065
  184POPC    HB21105   2.222   5.275   8.177  1.2099  1.4315  0.3702
  184POPC    C221106   2.330   5.235   8.002 -0.2116  0.0066  0.9353
  184POPC    HS21107   2.296   5.335   7.966 -0.2715 -0.0258  0.9016
  184POPC   O2121108   2.261   5.136   7.925 -0.3818  0.2509  0.1284
  184POPC   C2121109   2.122   5.149   7.921  0.1964 -0.0993 -0.0676
  184POPC   O2221110   2.060   5.246   7.963  0.0782  0.2254 -0.0089
  184POPC   C2221111   2.065   5.031   7.839  0.4098 -0.6506  0.3069
  184POPC   H2R21112   2.012   4.957   7.904 -0.4416  1.5338  2.2527
  184POPC   H2S21113   2.153   4.981   7.795  0.0729  0.3206 -1.5775
  184POPC    C321114   2.477   5.222   7.965 -0.0164  0.2020  0.0448
  184POPC    HX21115   2.510   5.121   7.997  2.7391  0.4434 -1.6664
  184POPC    HY21116   2.538   5.293   8.026  0.4803 -1.6966  1.8475
  184POPC   O3121117   2.495   5.231   7.822  0.1922 -0.1713  0.2865
  184POPC   C3121118   2.585   5.315   7.777  0.6809  0.1803  0.0598
  184POPC   O3221119   2.659   5.379   7.846  0.4715  0.5086 -0.1281
  184POPC   C3221120   2.582   5.321   7.619  0.2386  0.4955  0.4572
  184POPC   H2X21121   2.531   5.417   7.594  0.3640 -0.0255 -2.0643
  184POPC   H2Y21122   2.512   5.241   7.589  0.2690 -0.3895  2.6097
  184POPC   C2321123   1.981   5.070   7.721  0.7940  0.9806 -0.4185
  184POPC   H3R21124   1.898   5.133   7.759  2.1034  2.7796 -0.4256
  184POPC   H3S21125   1.929   4.987   7.669  0.6372  1.6197 -1.2916
  184POPC   C2421126   2.057   5.155   7.614  0.6507  0.8999 -0.8882
  184POPC   H4R21127   2.109   5.232   7.674 -0.3286 -0.1850  1.5007
  184POPC   H4S21128   1.994   5.202   7.536 -0.0586 -0.8394 -1.4344
  184POPC   C2521129   2.157   5.071   7.528  0.4029 -0.7241  0.3112
  184POPC   H5R21130   2.210   5.003   7.598  2.9654  3.6366  3.1446
  184POPC   H5S21131   2.233   5.143   7.490 -0.7023  1.4930  2.0305
  184POPC   C2621132   2.112   4.994   7.400  0.3617 -0.2185  0.1359
  184POPC   H6R21133   2.085   4.893   7.435  2.3711 -0.3274  1.5002
  184POPC   H6S21134   2.205   4.978   7.341 -0.0070  1.6765 -1.0597
  184POPC   C2721135   1.997   5.058   7.323 -0.0096 -0.5083  0.3952
  184POPC   H7R21136   2.031   5.158   7.288  2.8725 -1.1080  1.2026
  184POPC   H7S21137   1.912   5.075   7.393 -1.7862  0.3416 -1.8383
  184POPC   C2821138   1.933   4.979   7.197  0.0428 -0.0962 -0.2174
  184POPC   H8R21139   1.876   5.047   7.130  0.4761  0.4755 -0.0130
  184POPC   H8S21140   1.858   4.909   7.238  0.0790 -1.1889 -1.9250
  184POPC   C2921141   2.035   4.907   7.112  0.7364  0.1790  0.8932
  184POPC   H9121142   2.074   4.816   7.160  0.5093 -0.9662 -1.0258
  184POPC  C21021143   2.077   4.932   6.988 -0.0839 -0.4052 -0.5187
  184POPC  H10121144   2.153   4.859   6.956  1.5240  1.1979 -0.5691
  184POPC  C21121145   2.032   5.036   6.883 -0.3835 -0.7013 -0.3782
  184POPC  H11R21146   1.924   5.059   6.896 -0.4575 -0.1030 -1.8854
  184POPC  H11S21147   2.042   4.987   6.784 -2.6151  1.2589 -1.6754
  184POPC  C21221148   2.114   5.164   6.890  1.1507 -0.0316 -0.1061
  184POPC  H12R21149   2.219   5.148   6.857  0.7544  1.8224 -2.5402
  184POPC  H12S21150   2.101   5.214   6.988 -2.1401 -0.9535  0.0481
  184POPC  C21321151   2.065   5.265   6.791  0.3037 -0.1817  0.5479
  184POPC  H13R21152   2.115   5.365   6.797 -1.4084  0.8712 -1.3305
  184POPC  H13S21153   1.958   5.281   6.818 -0.4398 -0.8984 -1.7133
  184POPC  C21421154   2.061   5.219   6.640  0.5027 -0.0422 -0.1171
  184POPC  H14R21155   2.035   5.311   6.585  1.0614  0.9013  1.1456
  184POPC  H14S21156   1.983   5.141   6.622  1.4445 -1.0538  0.0534
  184POPC  C21521157   2.195   5.172   6.569  0.0966  0.1529 -0.2820
  184POPC  H15R21158   2.236   5.089   6.631 -1.7818 -1.3739 -0.9732
  184POPC  H15S21159   2.268   5.255   6.562  0.6299 -0.2488  0.3871
  184POPC  C21621160   2.166   5.141   6.421  0.4336 -0.7003  0.0632
  184POPC  H16R21161   2.090   5.212   6.381  1.2933  0.9100  1.1656
  184POPC  H16S21162   2.113   5.044   6.435 -0.8770  0.2388  2.1671
  184POPC  C21721163   2.289   5.139   6.331  0.0541  0.3476  0.4401
  184POPC  H17R21164   2.320   5.246   6.327 -0.4965  0.4828 -1.9131
  184POPC  H17S21165   2.263   5.107   6.228  0.2265  1.9162 -0.1156
  184POPC  C21821166   2.402   5.055   6.378 -0.1037 -0.0125  0.7196
  184POPC  H18R21167   2.483   5.085   6.308  0.4635 -0.6275  1.0984
  184POPC  H18S21168   2.368   4.952   6.351  0.7185 -0.1352  0.1217
  184POPC  H18T21169   2.431   5.076   6.484  1.5535 -0.9947  0.5073
  184POPC   C3321170   2.725   5.309   7.574 -0.3610 -0.4419  0.4365
  184POPC   H3X21171   2.773   5.216   7.612 -1.2001 -0.5696  1.2113
  184POPC   H3Y21172   2.782   5.395   7.616  0.4791 -1.1791  0.8442
  184POPC   C3421173   2.747   5.314   7.425  0.1082  0.0242 -0.2544
  184POPC   H4X21174   2.720   5.404   7.366  0.8266 -0.5143 -1.4131
  184POPC   H4Y21175   2.676   5.243   7.377  0.3369  0.2244 -0.8856
  184POPC   C3521176   2.894   5.261   7.389  0.4104  0.2795  0.4301
  184POPC   H5X21177   2.928   5.194   7.470 -0.0537  0.7026  0.9851
  184POPC   H5Y21178   2.962   5.348   7.387  0.3927  0.3140  1.1641
  184POPC   C3621179   2.901   5.182   7.256 -0.1769 -0.6155  0.6081
  184POPC   H6X21180   2.809   5.133   7.219 -0.1699 -0.3116  0.1796
  184POPC   H6Y21181   2.962   5.090   7.269  1.2094 -0.1552 -1.9264
  184POPC   C3721182   2.950   5.264   7.129  0.3497 -0.6220 -0.2577
  184POPC   H7X21183   2.889   5.354   7.108 -1.6440 -1.7809  0.2937
  184POPC   H7Y21184   2.944   5.195   7.042 -1.2429 -1.7865  0.7060
  184POPC   C3821185   3.096   5.302   7.135 -0.3397 -0.1218 -0.0529
  184POPC   H8X21186   3.152   5.208   7.152  0.0781 -0.3593 -2.4604
  184POPC   H8Y21187   3.120   5.378   7.212 -2.9059 -0.3497  1.0943
  184POPC   C3921188   3.141   5.352   6.997 -0.5036 -0.0622 -0.4010
  184POPC   H9X21189   3.241   5.399   7.009 -0.1768 -0.8330 -0.0542
  184POPC   H9Y21190   3.075   5.439   6.976  0.8230  1.8431  2.5694
  184POPC  C31021191   3.143   5.255   6.885 -0.0384  0.6014  0.2157
  184POPC  H10X21192   3.037   5.228   6.867  0.1321 -0.6905  1.0090
  184POPC  H10Y21193   3.196   5.160   6.909 -1.9669 -0.8345 -0.8826
  184POPC  C31121194   3.214   5.306   6.758  0.0815  0.4069 -0.3978
  184POPC  H11X21195   3.324   5.301   6.768  0.0353 -3.0553 -0.2845
  184POPC  H11Y21196   3.181   5.410   6.738 -0.3270 -0.0060 -2.0593
  184POPC  C31221197   3.170   5.214   6.645  0.1755 -0.6393  0.8132
  184POPC  H12X21198   3.061   5.209   6.664 -0.1096  2.8021  0.7531
  184POPC  H12Y21199   3.215   5.114   6.666 -0.0982 -0.5566  1.8307
  184POPC  C31321200   3.191   5.261   6.494 -0.2703 -0.1160 -0.8107
  184POPC  H13X21201   3.180   5.371   6.492  0.5690  0.0628  1.8690
  184POPC  H13Y21202   3.115   5.224   6.421  1.0032 -0.5899 -1.9451
  184POPC  C31421203   3.332   5.228   6.430  0.5529  0.4175  0.3512
  184POPC  H14X21204   3.341   5.282   6.334  0.7347 -4.0606 -2.4631
  184POPC  H14Y21205   3.333   5.117   6.417  1.0346  0.5754 -1.0413
  184POPC  C31521206   3.452   5.256   6.517 -0.4427  0.2042 -0.0314
  184POPC  H15X21207   3.446   5.187   6.605  1.0522 -0.2654 -0.2742
  184POPC  H15Y21208   3.444   5.357   6.563  0.4802  0.2141  0.1190
  184POPC  C31621209   3.585   5.236   6.441  0.0747 -0.6446  0.2142
  184POPC  H16X21210   3.673   5.266   6.503  1.4704  1.6720 -2.6153
  184POPC  H16Y21211   3.599   5.300   6.351 -0.2129 -0.0731  0.5723
  184POPC  H16Z21212   3.597   5.132   6.404  0.9445 -0.7354  0.7075
  185POPC     N21213   2.285   1.301   1.683 -0.5380 -0.5689 -0.4390
  185POPC   C1221214   2.415   1.241   1.610 -0.0065 -0.0092 -0.0975
  185POPC  H12A21215   2.406   1.262   1.505 -0.3626  0.0415 -0.0593
  185POPC  H12B21216   2.417   1.135   1.631 -1.0882 -0.0079  0.0780
  185POPC   C1321217   2.291   1.262   1.827  0.6256  0.1154 -0.2471
  185POPC  H13A21218   2.282   1.155   1.838  2.1458 -0.1205 -1.1484
  185POPC  H13B21219   2.385   1.295   1.869  0.5918 -0.2195  0.0955
  185POPC  H13C21220   2.203   1.309   1.869 -1.8170 -2.0185 -2.5625
  185POPC   C1421221   2.276   1.447   1.671  0.0700 -0.7122 -0.1722
  185POPC  H14A21222   2.184   1.488   1.710 -0.5215  1.0318 -3.0961
  185POPC  H14B21223   2.366   1.495   1.707 -0.2525 -0.0367 -0.2587
  185POPC  H14C21224   2.277   1.485   1.570 -1.8640  0.4848  0.2083
  185POPC   C1521225   2.172   1.241   1.617  1.0487 -0.2668 -0.1556
  185POPC  H15A21226   2.179   1.134   1.601  3.0734 -0.5046  1.8081
  185POPC  H15B21227   2.159   1.280   1.517 -0.3732 -0.6265 -0.1344
  185POPC  H15C21228   2.082   1.261   1.673  3.5551  1.6637  3.5776
  185POPC   C1121229   2.558   1.294   1.661  0.1580 -0.6797  0.4305
  185POPC  H11A21230   2.634   1.223   1.621  0.0939 -1.3027  1.3883
  185POPC  H11B21231   2.560   1.275   1.770  3.6424 -0.8166  0.4657
  185POPC     P21232   2.713   1.494   1.700  0.0116  0.1655 -0.6554
  185POPC   O1321233   2.658   1.610   1.774 -0.1862 -0.3806 -0.0193
  185POPC   O1421234   2.823   1.520   1.595  0.2522  0.1053  0.0002
  185POPC   O1221235   2.585   1.429   1.635  0.6714 -0.0039  0.2597
  185POPC   O1121236   2.760   1.385   1.795  0.0237 -0.0418  0.0041
  185POPC    C121237   2.892   1.391   1.856 -0.4328 -0.0166  0.1694
  185POPC    HA21238   2.951   1.474   1.810 -1.2140 -0.8187 -2.4253
  185POPC    HB21239   2.947   1.297   1.835 -1.5376 -0.8333  0.8620
  185POPC    C221240   2.883   1.402   2.013 -0.3281 -0.2719 -0.3852
  185POPC    HS21241   2.986   1.391   2.055  0.3951 -0.5737 -2.1356
  185POPC   O2121242   2.776   1.307   2.063 -0.1909  0.8938 -0.2972
  185POPC   C2121243   2.824   1.187   2.059  0.7516  0.0492  0.2291
  185POPC   O2221244   2.939   1.153   2.040 -0.7463  0.1742 -0.2244
  185POPC   C2221245   2.708   1.079   2.092  0.1930 -0.3740  0.2340
  185POPC   H2R21246   2.713   1.018   1.999 -2.4097  0.7785 -0.7715
  185POPC   H2S21247   2.612   1.136   2.094  1.6265  2.2088 -0.2109
  185POPC    C321248   2.833   1.539   2.055  0.5268  0.1909  0.0802
  185POPC    HX21249   2.723   1.544   2.041 -0.1341 -0.1458  3.9341
  185POPC    HY21250   2.887   1.615   1.995  2.9780 -1.5460 -0.0842
  185POPC   O3121251   2.868   1.562   2.189 -0.1234 -0.1038 -0.2901
  185POPC   C3121252   2.774   1.540   2.282  0.1268 -0.5193  0.2669
  185POPC   O3221253   2.663   1.495   2.249 -0.5295  0.0135  0.2728
  185POPC   C3221254   2.822   1.560   2.426 -0.1698  0.0519 -0.8338
  185POPC   H2X21255   2.794   1.665   2.452 -1.2026 -0.4622  0.2283
  185POPC   H2Y21256   2.932   1.546   2.432 -0.3882 -1.6636 -0.4423
  185POPC   C2321257   2.736   0.995   2.214 -0.5624 -0.1538 -0.0147
  185POPC   H3R21258   2.807   0.915   2.187 -1.2565 -0.4337 -1.0800
  185POPC   H3S21259   2.640   0.944   2.236 -0.0806 -1.8533 -1.5844
  185POPC   C2421260   2.777   1.077   2.334 -0.4730  0.1861  0.3164
  185POPC   H4R21261   2.712   1.166   2.345  1.4235  1.9246 -1.5064
  185POPC   H4S21262   2.878   1.115   2.309  1.6473 -2.3697  3.9741
  185POPC   C2521263   2.781   1.000   2.468 -0.5171  0.6588 -0.2782
  185POPC   H5R21264   2.677   0.974   2.496 -0.3628  0.6402  0.2883
  185POPC   H5S21265   2.822   1.068   2.546  0.9625 -0.9358  0.4028
  185POPC   C2621266   2.879   0.882   2.457 -0.3524 -0.0723 -0.0479
  185POPC   H6R21267   2.972   0.934   2.424 -1.2604  1.4363 -0.3164
  185POPC   H6S21268   2.842   0.814   2.377 -0.1738 -0.2262 -0.0010
  185POPC   C2721269   2.905   0.806   2.578 -0.2869  0.1811  0.1721
  185POPC   H7R21270   2.977   0.868   2.635 -0.2343  2.3854 -2.0996
  185POPC   H7S21271   2.963   0.713   2.558 -2.5009 -1.1699 -0.2363
  185POPC   C2821272   2.778   0.760   2.652 -0.3767 -1.2171 -0.0943
  185POPC   H8R21273   2.734   0.857   2.682  2.6860  0.5728 -0.8983
  185POPC   H8S21274   2.806   0.722   2.752  1.9806  0.9435  0.1918
  185POPC   C2921275   2.687   0.666   2.576  0.1520  0.2210 -0.3932
  185POPC   H9121276   2.605   0.710   2.517 -0.0278 -1.1872 -1.2536
  185POPC  C21021277   2.677   0.530   2.584  0.0646 -0.3354  0.6083
  185POPC  H10121278   2.598   0.469   2.537  0.3414 -0.2054 -0.0343
  185POPC  C21121279   2.772   0.444   2.665 -0.2908  0.4203 -0.4690
  185POPC  H11R21280   2.722   0.408   2.757 -3.9559  1.1025 -2.0560
  185POPC  H11S21281   2.864   0.498   2.699 -1.1376 -0.2126  3.2594
  185POPC  C21221282   2.802   0.314   2.590  0.4259 -0.3078  0.7787
  185POPC  H12R21283   2.806   0.332   2.481  3.1535 -0.7676  0.7414
  185POPC  H12S21284   2.726   0.235   2.609 -0.4037 -0.5025 -2.6395
  185POPC  C21321285   2.940   0.258   2.630  0.4967  0.9607 -0.0940
  185POPC  H13R21286   2.948   0.243   2.739  2.6578 -0.8635 -0.4238
  185POPC  H13S21287   3.012   0.335   2.594  0.8299  0.5276 -0.3578
  185POPC  C21421288   2.976   0.125   2.566  0.6335 -0.0229  1.3240
  185POPC  H14R21289   2.905   0.044   2.595  0.8507 -1.2391 -1.2819
  185POPC  H14S21290   3.076   0.087   2.598  0.2986 -1.1607  1.0829
  185POPC  C21521291   2.969   0.134   2.406 -0.3100  0.0674  0.0079
  185POPC  H15R21292   2.865   0.151   2.372 -0.8794 -0.5904  1.3569
  185POPC  H15S21293   2.996   0.035   2.364 -1.6018 -0.6493  0.8181
  185POPC  C21621294   3.057   0.250   2.346 -0.4011 -0.9897  0.0410
  185POPC  H16R21295   3.159   0.213   2.368  0.1430  0.3512 -0.0893
  185POPC  H16S21296   3.036   0.355   2.378  1.4410 -0.9035  1.1205
  185POPC  C21721297   3.039   0.261   2.191 -0.2983  0.0449  0.0600
  185POPC  H17R21298   2.934   0.285   2.166  0.3801  1.3279 -1.8507
  185POPC  H17S21299   3.055   0.160   2.147 -0.5109  0.5188 -1.1627
  185POPC  C21821300   3.134   0.354   2.123  0.0020 -0.1087 -0.0652
  185POPC  H18R21301   3.133   0.453   2.173  0.4923 -1.3436  2.5873
  185POPC  H18S21302   3.106   0.368   2.016 -0.7613  1.2111  0.2926
  185POPC  H18T21303   3.239   0.319   2.133  0.4613  0.6441 -1.8698
  185POPC   C3321304   2.751   1.469   2.525  0.5630  0.1559  0.4969
  185POPC   H3X21305   2.706   1.387   2.465  0.7200  1.1896 -1.0905
  185POPC   H3Y21306   2.665   1.513   2.579 -0.0338  1.0867 -1.1362
  185POPC   C3421307   2.842   1.399   2.623 -0.7881 -0.2561  0.6104
  185POPC   H4X21308   2.918   1.471   2.658 -0.1713 -0.4808 -0.2173
  185POPC   H4Y21309   2.898   1.316   2.574 -0.4185  0.3634 -0.0261
  185POPC   C3521310   2.763   1.336   2.737 -0.0423 -0.5424 -0.1972
  185POPC   H5X21311   2.664   1.299   2.704 -1.7514  0.3230  3.4083
  185POPC   H5Y21312   2.727   1.417   2.804 -1.2283  0.4022 -1.8994
  185POPC   C3621313   2.830   1.235   2.834  0.4192 -0.0629  0.2824
  185POPC   H6X21314   2.880   1.268   2.928 -0.0326 -0.7370  0.7672
  185POPC   H6Y21315   2.910   1.188   2.773  0.2899 -1.1364  0.9202
  185POPC   C3721316   2.728   1.123   2.881  0.6677 -0.1109 -0.2608
  185POPC   H7X21317   2.678   1.064   2.801  0.8521 -2.0321  0.9605
  185POPC   H7Y21318   2.642   1.173   2.930  0.6367 -0.2001 -0.2236
  185POPC   C3821319   2.792   1.015   2.981  0.4941 -0.2372  0.3724
  185POPC   H8X21320   2.843   1.076   3.059 -0.0847  2.4164 -1.2170
  185POPC   H8Y21321   2.857   0.951   2.917 -0.7298 -0.5716 -0.5685
  185POPC   C3921322   2.686   0.920   3.043  0.2661  0.1051  0.1718
  185POPC   H9X21323   2.647   0.869   2.952 -2.0836  2.1470 -0.0773
  185POPC   H9Y21324   2.599   0.975   3.085 -0.1126 -1.4404  1.5277
  185POPC  C31021325   2.726   0.827   3.160 -0.4433  0.6767  0.9988
  185POPC  H10X21326   2.634   0.792   3.212 -1.2664  2.9508  1.2014
  185POPC  H10Y21327   2.779   0.887   3.238  1.7668  0.3372 -0.1610
  185POPC  C31121328   2.816   0.706   3.119  0.1914  0.3249  0.5934
  185POPC  H11X21329   2.911   0.740   3.071 -0.9614  1.5992 -0.8956
  185POPC  H11Y21330   2.752   0.651   3.048  1.3779  2.1848 -2.0666
  185POPC  C31221331   2.864   0.634   3.237  0.5566  0.2575 -0.2411
  185POPC  H12X21332   2.778   0.578   3.280 -0.2460  1.3211 -0.4529
  185POPC  H12Y21333   2.890   0.717   3.305  2.8943  0.0137 -0.7548
  185POPC  C31321334   2.985   0.548   3.223 -0.0081 -0.2624 -0.5080
  185POPC  H13X21335   3.028   0.529   3.324 -1.9929  1.0044  0.6463
  185POPC  H13Y21336   3.065   0.604   3.170  0.4167  0.4688  0.8709
  185POPC  C31421337   2.947   0.415   3.147  0.0105  0.2462 -0.3817
  185POPC  H14X21338   2.904   0.450   3.051  0.8189  0.5123 -0.6523
  185POPC  H14Y21339   2.863   0.361   3.196 -0.9884  0.1275 -2.1420
  185POPC  C31521340   3.060   0.312   3.123 -0.2093 -0.2250  0.6652
  185POPC  H15X21341   3.016   0.218   3.084 -1.1140  0.6533 -0.4989
  185POPC  H15Y21342   3.108   0.293   3.222 -0.3762 -1.7696  0.4781
  185POPC  C31621343   3.158   0.354   3.009  0.6663 -0.4024 -0.2196
  185POPC  H16X21344   3.227   0.270   2.988  0.0731 -0.5705 -1.6025
  185POPC  H16Y21345   3.225   0.440   3.028  0.1940 -0.4124  1.7136
  185POPC  H16Z21346   3.099   0.387   2.920  0.1743 -1.2344 -0.2111
  186POPC     N21347   2.503   3.756   3.632  0.7977 -0.0674 -0.1684
  186POPC   C1221348   2.477   3.735   3.781 -1.0042 -1.0862  0.3948
  186POPC  H12A21349   2.374   3.769   3.780 -0.4813  0.5906  0.7384
  186POPC  H12B21350   2.542   3.801   3.837 -1.5422 -2.1923  2.4295
  186POPC   C1321351   2.518   3.903   3.597  0.5804 -0.6765  0.0709
  186POPC  H13A21352   2.608   3.934   3.648  0.5962 -0.3998 -0.1251
  186POPC  H13B21353   2.534   3.912   3.491 -1.4036  0.0954 -0.2068
  186POPC  H13C21354   2.435   3.962   3.631  0.1232 -1.3858  0.2156
  186POPC   C1421355   2.634   3.694   3.583 -0.7203 -0.4572 -0.1266
  186POPC  H14A21356   2.638   3.691   3.475  0.5432 -1.8107 -0.0730
  186POPC  H14B21357   2.728   3.735   3.616 -0.5858 -1.4885  0.8551
  186POPC  H14C21358   2.635   3.590   3.614  0.4731 -0.0012  1.4656
  186POPC   C1521359   2.397   3.696   3.552  0.8321  0.4182 -0.3763
  186POPC  H15A21360   2.419   3.704   3.447 -4.8573 -1.7371 -2.1503
  186POPC  H15B21361   2.305   3.750   3.571  1.8218  1.7340  0.9691
  186POPC  H15C21362   2.375   3.601   3.598  3.5799  0.9351  2.3272
  186POPC   C1121363   2.468   3.597   3.845  0.1790 -0.5512  0.3879
  186POPC  H11A21364   2.476   3.610   3.955  1.4416  0.5394  0.1913
  186POPC  H11B21365   2.550   3.532   3.808  0.6258 -0.5194  1.2890
  186POPC     P21366   2.215   3.550   3.879  0.1389 -0.5858  0.3375
  186POPC   O1321367   2.137   3.428   3.839  0.3331  0.3232 -0.1958
  186POPC   O1421368   2.160   3.680   3.834  0.0734 -0.5463 -0.2976
  186POPC   O1221369   2.348   3.532   3.805  0.3114  0.4596 -0.1560
  186POPC   O1121370   2.253   3.550   4.033 -0.1270 -0.7247 -0.1502
  186POPC    C121371   2.285   3.426   4.094 -0.3337 -0.0893  0.5221
  186POPC    HA21372   2.356   3.449   4.176  0.7650  0.2026 -0.4868
  186POPC    HB21373   2.331   3.360   4.018 -3.1529 -0.3096 -1.1172
  186POPC    C221374   2.169   3.364   4.154  0.6909 -0.4588 -0.4919
  186POPC    HS21375   2.081   3.360   4.086 -0.8331 -2.1664  1.4670
  186POPC   O2121376   2.143   3.446   4.276 -0.2560 -0.2256  0.0923
  186POPC   C2121377   2.016   3.481   4.301  0.3713 -0.3297  0.2102
  186POPC   O2221378   1.919   3.465   4.225  0.1702 -0.8878 -0.7886
  186POPC   C2221379   2.003   3.560   4.431 -0.9128 -0.1533 -0.2421
  186POPC   H2R21380   2.024   3.664   4.399 -0.2735 -1.2262 -3.6865
  186POPC   H2S21381   2.081   3.537   4.507  1.1863  2.1600 -1.5395
  186POPC    C321382   2.196   3.220   4.198 -0.6581 -0.8980 -0.1831
  186POPC    HX21383   2.267   3.235   4.282 -0.1687  0.0382 -0.7533
  186POPC    HY21384   2.246   3.166   4.115  0.2511  1.3520 -1.1789
  186POPC   O3121385   2.075   3.150   4.245 -0.3220  0.2654  0.1951
  186POPC   C3121386   1.999   3.096   4.149 -0.0965  0.5547 -0.0655
  186POPC   O3221387   2.038   3.069   4.037  0.2330  0.2545  0.6496
  186POPC   C3221388   1.865   3.068   4.203 -0.1802 -0.5529 -0.0731
  186POPC   H2X21389   1.866   2.958   4.221  0.6497 -0.6246 -0.4817
  186POPC   H2Y21390   1.791   3.094   4.126  0.6591  2.2900 -0.0332
  186POPC   C2321391   1.869   3.536   4.494 -0.6706  0.2318 -0.0155
  186POPC   H3R21392   1.832   3.432   4.480  0.9309 -0.4762  0.8601
  186POPC   H3S21393   1.806   3.606   4.434 -0.3507  1.1840  0.7413
  186POPC   C2421394   1.855   3.582   4.646 -0.8043 -0.5846  0.1827
  186POPC   H4R21395   1.888   3.687   4.664  1.2505 -0.8595 -1.5747
  186POPC   H4S21396   1.929   3.524   4.706  0.1203 -0.5684 -0.9124
  186POPC   C2521397   1.711   3.563   4.686  0.8647  0.2862 -0.1139
  186POPC   H5R21398   1.661   3.488   4.621  2.7610 -0.8209 -0.3962
  186POPC   H5S21399   1.645   3.652   4.680 -0.1159 -0.4768 -1.1047
  186POPC   C2621400   1.697   3.518   4.836 -0.9652  0.0226 -0.3665
  186POPC   H6R21401   1.747   3.424   4.867  1.7272  0.9208 -1.6703
  186POPC   H6S21402   1.587   3.508   4.849 -0.8110  0.4185  1.6631
  186POPC   C2721403   1.758   3.633   4.926  0.3281  1.3894  0.1588
  186POPC   H7R21404   1.703   3.723   4.892  2.3760  2.0275 -1.6816
  186POPC   H7S21405   1.866   3.655   4.914  0.3931  0.7421 -0.5591
  186POPC   C2821406   1.731   3.608   5.069 -0.4188 -0.5295  0.7032
  186POPC   H8R21407   1.624   3.593   5.096 -0.4194 -0.3752  0.7824
  186POPC   H8S21408   1.779   3.691   5.125  0.9027 -0.6015 -0.2866
  186POPC   C2921409   1.797   3.481   5.121 -0.4049  1.0077  0.3692
  186POPC   H9121410   1.738   3.389   5.122  0.7891  0.2156  1.6417
  186POPC  C21021411   1.919   3.468   5.173  0.3686  0.1658 -0.2301
  186POPC  H10121412   1.954   3.370   5.208 -0.5842  0.1677  0.7835
  186POPC  C21121413   2.028   3.575   5.188  0.4164 -0.5135 -0.1298
  186POPC  H11R21414   1.983   3.669   5.150  1.3162  0.7337  1.7513
  186POPC  H11S21415   2.117   3.542   5.132 -0.3526 -1.2718 -0.9439
  186POPC  C21221416   2.064   3.617   5.330 -0.1004 -0.2395  0.0069
  186POPC  H12R21417   1.984   3.677   5.378  2.1398 -0.3157  4.2086
  186POPC  H12S21418   2.153   3.684   5.329 -0.1251 -0.1627  1.6950
  186POPC  C21321419   2.102   3.497   5.413 -0.2765  0.4368 -0.1789
  186POPC  H13R21420   2.153   3.424   5.346  0.7327 -0.9620  1.9884
  186POPC  H13S21421   2.009   3.443   5.442 -0.2493  0.4464 -0.0735
  186POPC  C21421422   2.195   3.522   5.533 -0.0922 -1.0408 -0.0980
  186POPC  H14R21423   2.144   3.595   5.598  0.8308 -0.5806  0.1171
  186POPC  H14S21424   2.277   3.583   5.491 -0.8154  0.3341  0.4439
  186POPC  C21521425   2.236   3.395   5.597  0.2947  1.4946 -0.8033
  186POPC  H15R21426   2.247   3.312   5.524 -1.3393  1.8984 -1.5529
  186POPC  H15S21427   2.155   3.370   5.668  1.2115 -0.8381 -0.4870
  186POPC  C21621428   2.372   3.403   5.669  0.0071 -0.8732 -0.2244
  186POPC  H16R21429   2.366   3.477   5.751  0.3698  0.3839 -1.3026
  186POPC  H16S21430   2.451   3.441   5.600  2.0836 -2.3303  1.2315
  186POPC  C21721431   2.425   3.280   5.725  0.0340 -0.5654  0.1080
  186POPC  H17R21432   2.459   3.207   5.648 -0.6945 -0.7163 -0.0801
  186POPC  H17S21433   2.339   3.238   5.781 -0.2125  0.0022  0.1646
  186POPC  C21821434   2.551   3.316   5.812  0.4589 -0.4282  0.3460
  186POPC  H18R21435   2.610   3.224   5.832  0.3322 -0.6626 -0.3168
  186POPC  H18S21436   2.607   3.395   5.756  0.7454  0.3641  1.7048
  186POPC  H18T21437   2.522   3.365   5.907 -1.8842 -1.1840  0.0700
  186POPC   C3321438   1.833   3.137   4.339 -0.3266 -0.0074  0.0482
  186POPC   H3X21439   1.824   3.247   4.332  1.2339  0.1411 -0.0285
  186POPC   H3Y21440   1.921   3.113   4.403  1.1617  1.8254 -1.2001
  186POPC   C3421441   1.709   3.073   4.401  0.5712 -0.4111  0.2677
  186POPC   H4X21442   1.695   2.964   4.383 -0.0215 -0.2708 -0.1885
  186POPC   H4Y21443   1.623   3.102   4.336  0.5650 -1.8013 -0.3945
  186POPC   C3521444   1.670   3.112   4.541  0.1404 -0.0700 -0.0493
  186POPC   H5X21445   1.559   3.112   4.550  0.0498 -0.1895 -0.9833
  186POPC   H5Y21446   1.712   3.213   4.560  0.3276 -0.3212  0.8844
  186POPC   C3621447   1.726   3.028   4.648 -0.2379  0.7821 -0.7490
  186POPC   H6X21448   1.835   3.030   4.626  0.1193  1.8980  0.9587
  186POPC   H6Y21449   1.699   2.921   4.640  3.2051 -0.2498 -0.0263
  186POPC   C3721450   1.707   3.080   4.792  0.8942 -0.9704 -0.0861
  186POPC   H7X21451   1.601   3.091   4.823  0.9272 -0.7433 -0.0536
  186POPC   H7Y21452   1.748   3.183   4.788 -0.7916 -0.2673 -0.0301
  186POPC   C3821453   1.768   3.002   4.904 -0.7793 -0.2862  0.3306
  186POPC   H8X21454   1.878   2.988   4.904 -1.0020 -2.4090  1.1752
  186POPC   H8Y21455   1.734   2.897   4.892  0.4528 -0.9416  2.1336
  186POPC   C3921456   1.714   3.029   5.047 -0.0749  0.2064  0.3252
  186POPC   H9X21457   1.608   2.997   5.055 -0.6106  1.8162 -0.0454
  186POPC   H9Y21458   1.717   3.139   5.054 -1.3758  0.1760  1.9053
  186POPC  C31021459   1.819   2.966   5.143 -1.2099  0.2002 -1.2685
  186POPC  H10X21460   1.923   2.965   5.104  0.1703 -1.3352  2.0789
  186POPC  H10Y21461   1.794   2.860   5.168 -0.6399  0.7699  2.3572
  186POPC  C31121462   1.814   3.046   5.281  0.2156  0.1213 -0.0195
  186POPC  H11X21463   1.854   3.147   5.259  2.5763 -0.6321  0.4977
  186POPC  H11Y21464   1.881   3.002   5.358 -0.4717 -0.6564  0.1425
  186POPC  C31221465   1.677   3.055   5.348  0.3091  0.3564 -0.0458
  186POPC  H12X21466   1.607   3.103   5.276 -0.1737  2.4809  1.7227
  186POPC  H12Y21467   1.677   3.122   5.437  0.1859 -0.8516  0.8920
  186POPC  C31321468   1.619   2.913   5.376  0.9315 -0.4503 -0.2243
  186POPC  H13X21469   1.685   2.862   5.449  2.5106  1.5788 -0.1380
  186POPC  H13Y21470   1.622   2.860   5.278  0.0179  1.4835 -1.3553
  186POPC  C31421471   1.485   2.908   5.454 -0.1412 -0.0916  0.9747
  186POPC  H14X21472   1.396   2.937   5.393  2.0893  1.3058 -1.8500
  186POPC  H14Y21473   1.497   2.987   5.532 -1.1602  1.9239 -0.7898
  186POPC  C31521474   1.454   2.778   5.533  0.2818 -0.2014  0.0572
  186POPC  H15X21475   1.346   2.776   5.557  0.0536 -0.7390 -0.9931
  186POPC  H15Y21476   1.515   2.776   5.626  0.7324  0.4005 -0.2152
  186POPC  C31621477   1.482   2.645   5.446 -0.1887 -0.4540 -1.1341
  186POPC  H16X21478   1.432   2.560   5.496  1.4511 -0.4267  0.7196
  186POPC  H16Y21479   1.590   2.626   5.426  0.0329 -1.1372  0.5044
  186POPC  H16Z21480   1.443   2.661   5.344  2.4210 -0.0709 -2.1437
  187POPC     N21481   6.115   4.405   2.816  0.8251 -0.5257 -0.0514
  187POPC   C1221482   6.114   4.447   2.955  0.0152  0.0905 -0.5355
  187POPC  H12A21483   6.029   4.509   2.980  2.3335  2.3325  2.6138
  187POPC  H12B21484   6.203   4.503   2.981 -0.3269  0.4101 -0.0371
  187POPC   C1321485   6.235   4.326   2.779 -0.0500 -0.4025 -0.5950
  187POPC  H13A21486   6.252   4.254   2.859  1.2903  1.6756  1.1047
  187POPC  H13B21487   6.225   4.289   2.678  1.6282  0.5744 -1.1489
  187POPC  H13C21488   6.318   4.394   2.773 -0.7875  0.5988  0.1003
  187POPC   C1421489   5.992   4.326   2.781 -0.5726 -0.3773  0.7559
  187POPC  H14A21490   6.018   4.253   2.706  0.5203 -1.3115  2.0036
  187POPC  H14B21491   5.931   4.294   2.864 -0.9150  0.6482  0.9141
  187POPC  H14C21492   5.934   4.390   2.716  0.1064  0.2905  0.7874
  187POPC   C1521493   6.119   4.535   2.738 -0.4438  0.0811  0.4302
  187POPC  H15A21494   6.039   4.602   2.766 -1.9412 -1.0953 -0.7933
  187POPC  H15B21495   6.119   4.519   2.631 -1.5891 -1.1833  0.5875
  187POPC  H15C21496   6.212   4.582   2.765 -0.9696  0.5684  1.4658
  187POPC   C1121497   6.110   4.332   3.063  0.2298 -0.1134  0.0425
  187POPC  H11A21498   6.028   4.265   3.030  1.2198 -2.0275  1.3044
  187POPC  H11B21499   6.074   4.379   3.157 -0.6886 -0.7829  0.0377
  187POPC     P21500   6.363   4.348   3.149  0.5023  0.0913  0.0576
  187POPC   O1321501   6.391   4.473   3.079  0.1759 -0.0611  0.1440
  187POPC   O1421502   6.465   4.242   3.157  0.0876 -0.1688  0.0158
  187POPC   O1221503   6.240   4.275   3.080  0.1112 -0.1552 -0.3555
  187POPC   O1121504   6.296   4.380   3.293  0.0193 -0.5768  0.0540
  187POPC    C121505   6.243   4.268   3.375  0.4016  0.2585 -0.8026
  187POPC    HA21506   6.283   4.170   3.340 -1.1366 -1.5437  2.1346
  187POPC    HB21507   6.132   4.266   3.379  0.4234 -0.3457 -0.5325
  187POPC    C221508   6.293   4.268   3.525 -0.5136 -0.3027 -0.0167
  187POPC    HS21509   6.248   4.176   3.570  0.8765 -0.9955  0.0039
  187POPC   O2121510   6.260   4.396   3.587 -0.1117 -0.5384  0.1505
  187POPC   C2121511   6.203   4.382   3.704 -0.4487 -0.2603 -0.1506
  187POPC   O2221512   6.136   4.291   3.744  0.1835  0.0585  0.0597
  187POPC   C2221513   6.220   4.515   3.769 -0.0414 -0.2529  0.4031
  187POPC   H2R21514   6.124   4.564   3.793  1.6187  2.7314  1.5589
  187POPC   H2S21515   6.269   4.582   3.694  0.7492 -0.7566  0.4504
  187POPC    C321516   6.441   4.253   3.519 -0.2337  0.0981  0.2456
  187POPC    HX21517   6.490   4.339   3.469  1.1546 -0.8368 -0.0718
  187POPC    HY21518   6.461   4.158   3.465 -1.9649 -1.0742  1.5478
  187POPC   O3121519   6.496   4.243   3.652  0.2028  0.1460  0.3912
  187POPC   C3121520   6.633   4.230   3.652  0.4716 -0.8440  0.5649
  187POPC   O3221521   6.694   4.225   3.545  0.4944  0.3665  0.2606
  187POPC   C3221522   6.674   4.195   3.792 -0.0914  0.5604 -0.2642
  187POPC   H2X21523   6.645   4.089   3.810  2.4953  0.0446  1.3166
  187POPC   H2Y21524   6.615   4.251   3.869  1.7572 -0.9104  2.3618
  187POPC   C2321525   6.300   4.504   3.900 -0.6086 -0.0506 -0.4459
  187POPC   H3R21526   6.325   4.596   3.957  1.7582 -2.4208  2.7002
  187POPC   H3S21527   6.401   4.461   3.881 -0.8592 -1.0955  0.4809
  187POPC   C2421528   6.239   4.425   4.019 -0.0723 -1.0930 -0.1056
  187POPC   H4R21529   6.318   4.374   4.078 -0.5217 -1.6942 -0.0146
  187POPC   H4S21530   6.171   4.344   3.986  1.2123 -3.1541  1.9942
  187POPC   C2521531   6.168   4.510   4.135 -0.2823 -0.8936  0.6871
  187POPC   H5R21532   6.067   4.544   4.103 -0.6156 -1.3755  1.1981
  187POPC   H5S21533   6.234   4.594   4.167 -1.6536  0.0501  1.1297
  187POPC   C2621534   6.143   4.426   4.262 -0.8519  0.5510 -0.4208
  187POPC   H6R21535   6.135   4.500   4.344  0.9755  0.1247  0.2009
  187POPC   H6S21536   6.228   4.358   4.286 -2.0985 -1.6152 -1.8124
  187POPC   C2721537   6.010   4.344   4.253 -0.0902 -0.1152 -0.7544
  187POPC   H7R21538   6.014   4.267   4.173  1.9034 -2.1819  1.1890
  187POPC   H7S21539   5.930   4.417   4.229  1.5545  1.3097 -2.1116
  187POPC   C2821540   5.985   4.270   4.384 -0.0484 -0.7963  0.6932
  187POPC   H8R21541   6.077   4.220   4.422  0.9231  0.3626 -0.0806
  187POPC   H8S21542   5.916   4.184   4.368  1.0317 -1.7585  1.0975
  187POPC   C2921543   5.932   4.351   4.495  0.8870  0.3240  0.9662
  187POPC   H9121544   5.857   4.428   4.472  0.2475 -0.4690  0.3061
  187POPC  C21021545   5.953   4.331   4.628  0.0281 -0.3341 -0.1593
  187POPC  H10121546   5.888   4.389   4.695 -0.7610  0.0021 -1.1836
  187POPC  C21121547   6.038   4.226   4.690  0.3372 -0.2546  0.1751
  187POPC  H11R21548   6.130   4.272   4.733  0.9537 -0.1548 -1.2031
  187POPC  H11S21549   6.071   4.148   4.618  0.8260  0.6568 -0.6118
  187POPC  C21221550   5.960   4.145   4.796 -0.3141  0.4602 -0.0985
  187POPC  H12R21551   6.028   4.064   4.828 -1.9356 -0.3290  1.5235
  187POPC  H12S21552   5.873   4.101   4.742 -1.5368 -0.4069  2.4577
  187POPC  C21321553   5.904   4.224   4.920 -0.4363 -0.1205  0.1278
  187POPC  H13R21554   5.846   4.153   4.982 -2.9195  2.3642  0.8172
  187POPC  H13S21555   5.837   4.304   4.884 -0.1099 -0.2162 -0.7332
  187POPC  C21421556   6.014   4.276   5.013 -0.1894 -0.3882  0.5358
  187POPC  H14R21557   6.065   4.359   4.962 -0.1066  0.3066  1.7056
  187POPC  H14S21558   6.082   4.196   5.049 -0.6058 -0.1977  1.8162
  187POPC  C21521559   5.953   4.359   5.131  0.1110  0.1831  0.7885
  187POPC  H15R21560   5.887   4.287   5.184 -0.3423 -0.4331 -0.5536
  187POPC  H15S21561   5.879   4.436   5.097  0.4635 -0.0250 -0.5304
  187POPC  C21621562   6.051   4.419   5.222 -0.0073  0.1741  0.1067
  187POPC  H16R21563   6.124   4.487   5.175 -0.1876 -0.7872 -1.6391
  187POPC  H16S21564   6.105   4.335   5.271 -1.1682 -0.4051  0.4275
  187POPC  C21721565   5.985   4.486   5.338 -0.4041 -0.5540 -0.6377
  187POPC  H17R21566   5.915   4.412   5.383 -0.6987 -0.0621 -0.2781
  187POPC  H17S21567   5.923   4.565   5.292 -0.9904  0.6347  1.9967
  187POPC  C21821568   6.087   4.545   5.435  0.4551 -0.5192 -0.5807
  187POPC  H18R21569   6.042   4.576   5.531  0.9905 -0.6058 -0.2954
  187POPC  H18S21570   6.144   4.636   5.404  0.9544 -0.0682  1.5145
  187POPC  H18T21571   6.159   4.467   5.469  0.2453  0.3563  2.1244
  187POPC   C3321572   6.822   4.200   3.817 -0.6784  0.4149  0.6808
  187POPC   H3X21573   6.869   4.300   3.813 -1.8132  1.0344  1.8381
  187POPC   H3Y21574   6.873   4.147   3.734 -0.7244 -0.5146  1.2313
  187POPC   C3421575   6.875   4.121   3.935 -0.5320 -0.4278 -0.3580
  187POPC   H4X21576   6.983   4.145   3.933 -1.1332  2.6099 -0.4605
  187POPC   H4Y21577   6.857   4.015   3.906 -1.3623  0.3293 -2.9578
  187POPC   C3521578   6.812   4.155   4.073 -0.1701 -0.2390 -0.4605
  187POPC   H5X21579   6.703   4.172   4.057 -0.3276 -0.7094  0.0893
  187POPC   H5Y21580   6.850   4.257   4.099 -1.4585 -0.2814  1.9429
  187POPC   C3621581   6.827   4.058   4.187 -0.1521 -0.2221  0.1701
  187POPC   H6X21582   6.932   4.028   4.170  0.6608  2.2824  0.2659
  187POPC   H6Y21583   6.765   3.967   4.176 -0.2798 -0.2726  1.1662
  187POPC   C3721584   6.810   4.123   4.326  0.1183 -0.1506 -0.3309
  187POPC   H7X21585   6.703   4.138   4.352 -0.0564 -1.3568 -0.2743
  187POPC   H7Y21586   6.863   4.220   4.338  0.5780 -0.3591 -0.6279
  187POPC   C3821587   6.852   4.030   4.440  0.0549 -0.2740 -0.1079
  187POPC   H8X21588   6.959   4.004   4.432  0.6355  0.9899  2.6609
  187POPC   H8Y21589   6.786   3.941   4.431 -0.1375 -0.2881  1.2096
  187POPC   C3921590   6.826   4.089   4.577  0.5707 -0.0052 -0.0347
  187POPC   H9X21591   6.716   4.106   4.583  0.1993 -2.1138 -0.0622
  187POPC   H9Y21592   6.890   4.179   4.590 -1.0740  1.4196 -1.2298
  187POPC  C31021593   6.843   3.988   4.684 -0.1024 -0.2305  0.6926
  187POPC  H10X21594   6.949   3.976   4.712  0.3735 -1.2286 -1.3391
  187POPC  H10Y21595   6.793   3.892   4.659 -0.2895 -0.1155  0.6217
  187POPC  C31121596   6.768   4.020   4.811  0.1948 -0.0065  0.0992
  187POPC  H11X21597   6.663   4.042   4.782  0.5829  2.0857  0.1001
  187POPC  H11Y21598   6.799   4.120   4.850 -1.1458  0.6769 -0.5335
  187POPC  C31221599   6.751   3.921   4.928 -0.6914  0.4456 -0.3192
  187POPC  H12X21600   6.689   3.840   4.885  0.5263 -1.1565  0.8461
  187POPC  H12Y21601   6.706   3.967   5.018  0.2548  0.0043  0.3843
  187POPC  C31321602   6.881   3.855   4.980  0.2433  0.3663 -0.3335
  187POPC  H13X21603   6.948   3.939   5.005  0.0191  0.3987  0.1821
  187POPC  H13Y21604   6.930   3.799   4.897  0.6096  0.0771  0.0712
  187POPC  C31421605   6.869   3.747   5.093 -0.7748  0.4694  0.6276
  187POPC  H14X21606   6.970   3.732   5.136 -0.9208  3.1966  2.1298
  187POPC  H14Y21607   6.833   3.651   5.050 -1.4541  0.4578  1.1941
  187POPC  C31521608   6.767   3.774   5.204  0.0456  0.0054 -1.0215
  187POPC  H15X21609   6.757   3.690   5.276  0.3353  0.2123 -0.7369
  187POPC  H15Y21610   6.668   3.788   5.156 -0.5878 -0.0498  0.2412
  187POPC  C31621611   6.809   3.890   5.291 -0.6545 -0.8437 -0.2668
  187POPC  H16X21612   6.731   3.918   5.364 -1.3404 -1.1693 -0.8681
  187POPC  H16Y21613   6.841   3.978   5.231  0.5418  1.0268  2.8706
  187POPC  H16Z21614   6.898   3.854   5.348  1.5220  1.2629 -2.1446
  188POPC     N21615   2.911   5.811   1.860  0.4119  0.2176  0.0032
  188POPC   C1221616   2.773   5.797   1.931 -0.6241  0.3156 -0.5368
  188POPC  H12A21617   2.793   5.762   2.031  2.9468 -0.0410 -1.2389
  188POPC  H12B21618   2.722   5.711   1.891 -0.8112 -1.1305  2.5542
  188POPC   C1321619   2.969   5.678   1.834  0.2929  0.2621  0.9984
  188POPC  H13A21620   3.060   5.689   1.778  0.6283 -1.6814  1.0869
  188POPC  H13B21621   3.005   5.638   1.927  2.6609 -0.2855 -0.0892
  188POPC  H13C21622   2.902   5.611   1.781  1.4497  0.4731 -0.8199
  188POPC   C1421623   2.891   5.875   1.726 -0.3432  0.2272  0.9575
  188POPC  H14A21624   2.856   5.977   1.728 -2.4593 -0.4573  0.6402
  188POPC  H14B21625   2.988   5.868   1.678  0.9583  4.8699  2.4052
  188POPC  H14C21626   2.828   5.811   1.667  1.1362 -1.3917  1.0396
  188POPC   C1521627   2.999   5.900   1.940 -0.9814 -0.0167 -0.2766
  188POPC  H15A21628   3.017   5.856   2.037 -1.8635  0.7705  0.2567
  188POPC  H15B21629   2.966   6.001   1.958 -0.1446 -0.0333  1.5784
  188POPC  H15C21630   3.098   5.904   1.896 -0.9054 -0.8156 -0.1867
  188POPC   C1121631   2.678   5.924   1.939  0.3147 -0.0749  0.3167
  188POPC  H11A21632   2.575   5.890   1.963 -0.3140  2.3027  1.3001
  188POPC  H11B21633   2.667   5.972   1.839  1.7428 -2.4840 -1.0897
  188POPC     P21634   2.719   5.974   2.191 -0.3480  0.1000 -0.1790
  188POPC   O1321635   2.847   6.012   2.256 -0.3384 -0.1005  0.0335
  188POPC   O1421636   2.676   5.836   2.200 -0.0908  0.2242 -0.3144
  188POPC   O1221637   2.721   6.017   2.038  0.4853 -0.5026 -0.2433
  188POPC   O1121638   2.604   6.063   2.255  0.0548  0.1010 -0.3865
  188POPC    C121639   2.484   6.086   2.185 -0.2207  0.6319 -0.9524
  188POPC    HA21640   2.408   6.081   2.266 -0.3441 -1.4754 -1.1374
  188POPC    HB21641   2.461   5.997   2.123 -0.0339  0.3867 -0.6705
  188POPC    C221642   2.459   6.219   2.104 -0.1373 -0.7170 -0.2959
  188POPC    HS21643   2.478   6.199   1.996 -1.0139 -0.2128 -0.5576
  188POPC   O2121644   2.550   6.320   2.144 -0.2602  0.0480 -0.1681
  188POPC   C2121645   2.540   6.434   2.073  1.0310 -0.1430  0.0809
  188POPC   O2221646   2.491   6.447   1.962  0.0632 -0.3453 -0.8716
  188POPC   C2221647   2.601   6.547   2.156 -0.1407  0.1312 -0.1587
  188POPC   H2R21648   2.655   6.616   2.087  1.6857  0.8944  1.9032
  188POPC   H2S21649   2.668   6.506   2.234  1.4302 -0.2161 -1.6129
  188POPC    C321650   2.308   6.270   2.115  0.0616  0.3579 -0.5577
  188POPC    HX21651   2.247   6.195   2.060  0.2776 -0.9296  0.8888
  188POPC    HY21652   2.287   6.371   2.074  1.6390  2.0845  2.5511
  188POPC   O3121653   2.262   6.275   2.257 -0.5069 -0.8382  0.1436
  188POPC   C3121654   2.133   6.311   2.271  0.5725  0.9638  0.5155
  188POPC   O3221655   2.055   6.336   2.179 -0.4307 -0.3571 -0.1193
  188POPC   C3221656   2.089   6.304   2.416  0.6824 -0.7183 -0.0798
  188POPC   H2X21657   2.179   6.309   2.482 -0.9735 -0.8648  2.3456
  188POPC   H2Y21658   2.030   6.213   2.439 -1.2111  0.4368 -0.2145
  188POPC   C2321659   2.493   6.632   2.224 -0.5860 -0.1075  0.2366
  188POPC   H3R21660   2.396   6.635   2.169 -0.7758  0.0975  0.5814
  188POPC   H3S21661   2.514   6.740   2.213 -0.2174 -0.0653  1.2674
  188POPC   C2421662   2.464   6.597   2.374 -0.4866  0.1635 -0.3455
  188POPC   H4R21663   2.560   6.619   2.425  0.4873 -4.1435  0.0237
  188POPC   H4S21664   2.451   6.487   2.384  0.9153  0.1221  1.6755
  188POPC   C2521665   2.351   6.670   2.444  0.4678  0.3798  0.2605
  188POPC   H5R21666   2.253   6.619   2.428  0.6926 -0.3780  1.1815
  188POPC   H5S21667   2.342   6.773   2.404 -1.3911 -0.7289 -2.4855
  188POPC   C2621668   2.374   6.667   2.594 -0.5154 -0.1922 -0.4179
  188POPC   H6R21669   2.480   6.694   2.616  0.0125 -2.3040 -0.1299
  188POPC   H6S21670   2.365   6.567   2.644  0.9623  1.1030  2.7383
  188POPC   C2721671   2.278   6.757   2.668 -0.2795 -0.4358  0.8339
  188POPC   H7R21672   2.181   6.713   2.640  0.4436 -1.2783 -0.4136
  188POPC   H7S21673   2.268   6.861   2.631 -2.2633 -0.3997  1.3608
  188POPC   C2821674   2.293   6.746   2.824 -0.0182 -0.0178  0.8895
  188POPC   H8R21675   2.267   6.640   2.843 -0.3699  0.4086  3.1948
  188POPC   H8S21676   2.217   6.811   2.873  0.9365  0.8454  1.2814
  188POPC   C2921677   2.434   6.775   2.861 -0.2385 -0.4585 -0.1479
  188POPC   H9121678   2.506   6.692   2.858  0.8985  0.5157 -2.9640
  188POPC  C21021679   2.481   6.897   2.896  0.6026 -0.5927 -0.2543
  188POPC  H10121680   2.588   6.911   2.915  0.5147 -1.9779  1.4416
  188POPC  C21121681   2.396   7.024   2.907  0.0613 -0.2808  0.0793
  188POPC  H11R21682   2.406   7.058   3.012  0.3780 -1.5401  0.4797
  188POPC  H11S21683   2.290   6.995   2.891  1.1303 -4.4510 -0.6945
  188POPC  C21221684   2.432   7.126   2.801  0.1818  0.1821  0.2682
  188POPC  H12R21685   2.386   7.100   2.704  0.1697 -0.4130  0.4310
  188POPC  H12S21686   2.543   7.129   2.789 -0.0101  0.9589 -1.6393
  188POPC  C21321687   2.381   7.267   2.841 -0.6222 -0.0757 -0.2783
  188POPC  H13R21688   2.449   7.314   2.915 -2.5828  1.9202  0.3916
  188POPC  H13S21689   2.277   7.257   2.881 -0.9107 -0.2105 -1.0465
  188POPC  C21421690   2.390   7.366   2.727 -0.7361 -0.0981 -0.2719
  188POPC  H14R21691   2.333   7.338   2.636 -1.2911 -2.0947  0.6304
  188POPC  H14S21692   2.498   7.364   2.699 -0.4306  1.3860  0.7394
  188POPC  C21521693   2.342   7.508   2.773  0.5121  0.3969 -0.1415
  188POPC  H15R21694   2.383   7.525   2.875 -1.7705  0.4950  0.8024
  188POPC  H15S21695   2.234   7.531   2.769  0.8607  2.6668  1.5226
  188POPC  C21621696   2.412   7.612   2.684  0.2978 -0.1127 -0.0091
  188POPC  H16R21697   2.520   7.587   2.684 -0.2300 -2.6723 -1.2250
  188POPC  H16S21698   2.407   7.711   2.734  0.2255 -0.0467 -0.1493
  188POPC  C21721699   2.366   7.622   2.535 -0.3806  0.2775 -0.8547
  188POPC  H17R21700   2.263   7.662   2.545 -0.3010  0.6704 -1.5306
  188POPC  H17S21701   2.362   7.522   2.486  1.3707 -0.6627  0.7961
  188POPC  C21821702   2.435   7.723   2.438  0.2922  0.5123 -0.8992
  188POPC  H18R21703   2.407   7.826   2.470 -1.5139 -0.2834  0.2367
  188POPC  H18S21704   2.392   7.728   2.336 -0.4699 -0.6495 -0.6436
  188POPC  H18T21705   2.545   7.706   2.442  0.1766 -0.0892  1.1481
  188POPC   C3321706   1.990   6.426   2.447 -0.6062  0.1372  0.8400
  188POPC   H3X21707   1.916   6.445   2.366 -0.2077  0.4978  0.5525
  188POPC   H3Y21708   2.043   6.524   2.449 -0.0763  0.0087 -2.3001
  188POPC   C3421709   1.915   6.407   2.584  0.5020  0.2181 -0.2770
  188POPC   H4X21710   1.851   6.317   2.577 -1.4006  1.2433  2.4698
  188POPC   H4Y21711   1.849   6.496   2.594  1.6853  0.9896  0.9693
  188POPC   C3521712   2.011   6.406   2.706 -0.8130  0.6241  0.6881
  188POPC   H5X21713   2.056   6.505   2.730  1.2940 -0.2851  0.7565
  188POPC   H5Y21714   2.091   6.330   2.697 -2.1396 -0.8763  1.0950
  188POPC   C3621715   1.933   6.355   2.829 -0.2576  0.6173 -0.4344
  188POPC   H6X21716   1.873   6.265   2.805 -1.8159  1.2156  1.0593
  188POPC   H6Y21717   1.864   6.433   2.866 -0.4896 -0.7557  2.2322
  188POPC   C3721718   2.018   6.318   2.950  1.0624 -0.3018 -0.0203
  188POPC   H7X21719   2.077   6.226   2.927  0.2223 -0.8700  0.0304
  188POPC   H7Y21720   1.940   6.289   3.023 -0.9046  0.4898 -1.7079
  188POPC   C3821721   2.106   6.430   2.999 -0.5579 -0.2585 -0.3120
  188POPC   H8X21722   2.041   6.513   3.034 -0.4663  0.1927 -1.1907
  188POPC   H8Y21723   2.167   6.461   2.911 -0.5492 -1.0841 -0.6048
  188POPC   C3921724   2.199   6.390   3.112  0.4876 -0.7296  0.4423
  188POPC   H9X21725   2.251   6.295   3.089 -1.1459 -2.2052  2.4678
  188POPC   H9Y21726   2.146   6.380   3.209 -0.5626  1.8172  0.2218
  188POPC  C31021727   2.319   6.496   3.112  0.5037 -0.0328 -0.2292
  188POPC  H10X21728   2.262   6.591   3.111  2.9866  1.5700  0.8145
  188POPC  H10Y21729   2.380   6.489   3.019  0.2485 -0.6199 -0.3571
  188POPC  C31121730   2.404   6.488   3.249  0.2329  0.0671 -0.4278
  188POPC  H11X21731   2.460   6.392   3.256  0.0615 -0.2270 -2.4239
  188POPC  H11Y21732   2.333   6.492   3.334  0.5660  1.7561 -0.1920
  188POPC  C31221733   2.495   6.610   3.264  0.4794  0.2512  0.5277
  188POPC  H12X21734   2.574   6.611   3.185  2.1886  1.5553  2.1752
  188POPC  H12Y21735   2.550   6.600   3.359 -0.1706  0.8310  0.9801
  188POPC  C31321736   2.431   6.746   3.254  0.0563 -0.1706  0.3427
  188POPC  H13X21737   2.344   6.750   3.322 -0.4519 -4.1178  0.1830
  188POPC  H13Y21738   2.388   6.766   3.153  0.1651  1.7806  0.6390
  188POPC  C31421739   2.532   6.857   3.274  0.0762  0.6542 -0.5788
  188POPC  H14X21740   2.501   6.947   3.217  0.7364  1.9133  0.9511
  188POPC  H14Y21741   2.629   6.830   3.228  0.6728 -1.4703  1.6941
  188POPC  C31521742   2.547   6.894   3.424  0.0474  0.0856 -0.0323
  188POPC  H15X21743   2.625   6.971   3.440 -0.0270 -0.0462  0.9811
  188POPC  H15Y21744   2.578   6.795   3.463  1.5549 -0.3999 -2.2807
  188POPC  C31621745   2.425   6.948   3.494 -1.0227 -0.1188  1.1768
  188POPC  H16X21746   2.451   7.011   3.582  0.5979  0.7278  0.1386
  188POPC  H16Y21747   2.368   6.863   3.537 -1.2440  0.0593  1.2394
  188POPC  H16Z21748   2.367   7.014   3.426  1.7032  0.0591 -1.1278
  189SAPI   C1221749   2.406   6.201   8.030 -0.7516 -0.6491  0.4067
  189SAPI    H221750   2.399   6.103   7.978  1.3697 -1.2125  1.1046
  189SAPI    O221751   2.336   6.302   7.956 -0.4049 -0.3511 -0.6804
  189SAPI   HO221752   2.368   6.296   7.866 -2.3247 -2.8047 -1.3243
  189SAPI   C1321753   2.356   6.202   8.173 -0.7772  0.4487  1.1137
  189SAPI    H321754   2.417   6.130   8.233  0.8280 -0.1284 -1.1063
  189SAPI    O321755   2.228   6.148   8.192 -0.1421  0.0844 -0.0755
  189SAPI   HO321756   2.210   6.158   8.286  0.6809  2.1657 -0.0914
  189SAPI   C1421757   2.367   6.339   8.227  0.2910 -1.3178 -0.0950
  189SAPI    H421758   2.298   6.401   8.167 -0.6873  1.3507  3.4154
  189SAPI    O421759   2.313   6.345   8.359 -0.9646  0.2847  0.0815
  189SAPI   HO421760   2.359   6.426   8.380  1.2159 -1.3325  1.9224
  189SAPI   C1521761   2.503   6.395   8.218  0.7143  0.6216 -0.3382
  189SAPI    H521762   2.556   6.338   8.297  1.2279 -0.2497 -1.2865
  189SAPI    O521763   2.515   6.536   8.246 -0.3728  0.3384 -0.0093
  189SAPI   HO521764   2.593   6.554   8.299 -0.8468 -0.8349  1.1586
  189SAPI   C1621765   2.596   6.356   8.097  0.1893 -0.7456 -0.2513
  189SAPI    H621766   2.576   6.443   8.031  1.1430  0.4848  1.0058
  189SAPI    O621767   2.734   6.365   8.130  0.1681  0.2331 -0.0286
  189SAPI   HO621768   2.760   6.277   8.156 -1.4559 -0.0894  0.5913
  189SAPI   C1121769   2.563   6.230   8.016 -0.3728 -0.6342  0.1323
  189SAPI    H121770   2.620   6.157   8.077  0.3914  0.2713  0.5257
  189SAPI     P21771   2.650   6.098   7.798  0.3271 -0.0414  0.7485
  189SAPI   O1321772   2.726   6.012   7.882  0.0259 -0.4769 -0.8249
  189SAPI   O1421773   2.707   6.142   7.669  0.1575 -0.2534  1.1929
  189SAPI   O1221774   2.614   6.238   7.880  0.7350  0.2911  0.2018
  189SAPI   O1121775   2.520   6.026   7.773  0.2514 -0.6048 -1.0096
  189SAPI    C121776   2.493   5.888   7.751 -0.2789 -1.4056 -0.1755
  189SAPI    HA21777   2.555   5.828   7.822  1.3307  1.6857  1.2236
  189SAPI    HB21778   2.388   5.865   7.776 -1.4194  3.4061  0.3521
  189SAPI    C221779   2.495   5.845   7.600 -0.1375  0.4589 -0.2391
  189SAPI    HS21780   2.469   5.737   7.596 -1.3434  0.7214  0.0185
  189SAPI   O2121781   2.609   5.886   7.528  0.1458  0.0806  0.1767
  189SAPI   C2121782   2.713   5.801   7.518 -0.5525 -0.9373 -1.3194
  189SAPI   O2221783   2.720   5.695   7.578 -0.0980 -0.2437  0.1787
  189SAPI   C2221784   2.821   5.861   7.431  0.2128 -0.2685 -0.7892
  189SAPI   H2R21785   2.780   5.932   7.356  0.6423 -0.6583 -1.4025
  189SAPI   H2S21786   2.906   5.911   7.482 -0.4265  1.9389 -1.7835
  189SAPI    C321787   2.367   5.913   7.535  0.4847  0.1216  0.3835
  189SAPI    HX21788   2.359   6.018   7.572 -0.5607 -0.4049  1.7290
  189SAPI    HY21789   2.282   5.868   7.591  0.1858  0.2060 -0.0035
  189SAPI   O3121790   2.362   5.884   7.395 -0.9593 -0.5209  0.6323
  189SAPI   C3121791   2.407   5.975   7.310  0.1867 -0.2687 -0.4743
  189SAPI   O3221792   2.456   6.083   7.345  0.5152 -0.0728 -0.0661
  189SAPI   C3221793   2.399   5.924   7.170  0.4020  0.3382 -0.5722
  189SAPI   H2X21794   2.327   5.987   7.113  0.1754 -1.0073 -1.8289
  189SAPI   H2Y21795   2.356   5.822   7.174 -0.3436  0.6699 -0.0269
  189SAPI   C2321796   2.883   5.746   7.339 -0.1151 -0.4148 -0.4149
  189SAPI   H3R21797   2.943   5.804   7.265 -0.9220  1.4127  0.2986
  189SAPI   H3S21798   2.798   5.696   7.289 -2.2367  1.0199  1.5623
  189SAPI   C2421799   2.975   5.641   7.397  0.1406 -0.0411 -1.0966
  189SAPI   H4R21800   3.003   5.581   7.308 -1.0928 -0.9460 -0.8982
  189SAPI   H4S21801   2.925   5.565   7.460  1.4622 -0.1586 -0.1292
  189SAPI   C2521802   3.103   5.680   7.469  0.1247  0.0007 -0.5663
  189SAPI   H5R21803   3.104   5.673   7.579 -0.0924 -3.1872 -0.6863
  189SAPI   C2621804   3.216   5.717   7.411  0.2222 -0.3213  0.6651
  189SAPI   H6R21805   3.301   5.756   7.469 -1.0727  0.0569  2.3724
  189SAPI   C2721806   3.230   5.733   7.261 -0.6952  0.0110 -0.0122
  189SAPI   H7R21807   3.137   5.710   7.204 -0.1608 -1.0848 -0.4635
  189SAPI   H7S21808   3.304   5.657   7.232 -1.3054 -1.0239  1.0541
  189SAPI   C2821809   3.298   5.856   7.212  0.0486  0.1761 -0.1644
  189SAPI   H8R21810   3.299   5.935   7.289  0.7087 -1.6326  1.7612
  189SAPI   C2921811   3.336   5.879   7.088 -0.1226 -0.0803  0.7745
  189SAPI   H9R21812   3.380   5.978   7.069  1.8018 -1.1877 -0.9695
  189SAPI  C21021813   3.327   5.791   6.962  0.1680  0.2641  0.4649
  189SAPI  H10R21814   3.315   5.689   7.003 -1.8206 -0.0692 -0.8297
  189SAPI  H10S21815   3.421   5.803   6.902  0.0224 -1.5416 -0.1691
  189SAPI  C21121816   3.206   5.828   6.875 -0.0250 -0.3451 -0.5689
  189SAPI  H11R21817   3.114   5.828   6.934  0.1662 -1.8160 -0.2267
  189SAPI  C21221818   3.201   5.846   6.739 -0.9553 -0.3293  0.5165
  189SAPI  H12R21819   3.102   5.870   6.696 -0.8970  1.0710  1.1194
  189SAPI  C21321820   3.305   5.831   6.630  0.6700 -0.2161 -0.5732
  189SAPI  H13R21821   3.400   5.851   6.684  0.5790 -3.8737  1.2632
  189SAPI  H13S21822   3.305   5.911   6.553  3.3655  0.3599 -0.0819
  189SAPI  C21421823   3.326   5.689   6.585 -0.2499  0.0042 -0.1077
  189SAPI  H14R21824   3.347   5.618   6.666 -1.2265 -0.5413 -0.3054
  189SAPI  C21521825   3.349   5.637   6.460 -0.5997  0.3222  0.5664
  189SAPI  H15R21826   3.361   5.527   6.458 -0.1569  0.3387  1.6927
  189SAPI  C21621827   3.359   5.701   6.326 -0.0174  0.2240 -0.6474
  189SAPI  H16R21828   3.337   5.809   6.319 -3.2358 -0.2961 -0.3872
  189SAPI  H16S21829   3.273   5.660   6.267 -2.7403  3.0936  1.0388
  189SAPI  C21721830   3.491   5.676   6.254  0.0206 -0.3200  0.2234
  189SAPI  H17R21831   3.516   5.567   6.257 -1.3077 -0.6263  1.9979
  189SAPI  H17S21832   3.565   5.735   6.312  1.6306 -0.9425 -1.1235
  189SAPI  C21821833   3.495   5.727   6.114 -0.6182  0.3645 -0.5160
  189SAPI  H18R21834   3.598   5.705   6.078 -0.7172 -0.5661 -0.2422
  189SAPI  H18S21835   3.486   5.838   6.122 -0.8747  0.1925  3.7258
  189SAPI  C21921836   3.391   5.673   6.017 -0.5008 -0.7831 -0.0971
  189SAPI  H19R21837   3.290   5.717   6.026 -0.5723 -1.0116  0.2253
  189SAPI  H19S21838   3.371   5.567   6.046  0.5789 -1.0438 -0.2516
  189SAPI  C22021839   3.433   5.677   5.869 -0.4334  0.4162 -0.3115
  189SAPI  H20R21840   3.361   5.608   5.819 -0.8123 -1.1106  2.1368
  189SAPI  H20S21841   3.531   5.626   5.859  0.2299  1.9531 -2.1326
  189SAPI  H20T21842   3.422   5.780   5.829  3.8292  0.9065 -0.6421
  189SAPI   C3321843   2.527   5.900   7.095  0.0226 -0.2038  0.0537
  189SAPI   H3X21844   2.499   5.833   7.011 -0.8271 -0.1157  0.2532
  189SAPI   H3Y21845   2.613   5.860   7.153  0.1971 -0.3080 -0.2735
  189SAPI   C3421846   2.580   6.034   7.041  0.1970 -0.1275 -0.2438
  189SAPI   H4X21847   2.605   6.106   7.122 -0.7777  1.2061 -1.0849
  189SAPI   H4Y21848   2.497   6.078   6.982 -1.1883 -1.0994  0.9077
  189SAPI   C3521849   2.696   6.043   6.945  0.6797 -0.5185  0.7590
  189SAPI   H5X21850   2.787   6.029   7.006  1.0002 -0.9087  0.2078
  189SAPI   H5Y21851   2.699   6.146   6.901 -4.4583  0.6845  2.5320
  189SAPI   C3621852   2.694   5.946   6.823  0.5738  0.4921 -0.7354
  189SAPI   H6X21853   2.600   5.959   6.765 -1.0589 -0.7190  1.4934
  189SAPI   H6Y21854   2.676   5.848   6.872  2.7891  0.0728 -0.6753
  189SAPI   C3721855   2.812   5.933   6.735  0.2767  0.4195  0.5248
  189SAPI   H7X21856   2.800   5.830   6.694 -2.0045  0.0045  2.0380
  189SAPI   H7Y21857   2.905   5.944   6.794  1.0858 -1.6894 -0.2315
  189SAPI   C3821858   2.799   6.036   6.624 -0.1656 -0.7213  0.3515
  189SAPI   H8X21859   2.802   6.142   6.656 -0.6223 -0.4847 -0.3556
  189SAPI   H8Y21860   2.694   6.037   6.588 -0.2596 -0.1313  0.6233
  189SAPI   C3921861   2.914   6.029   6.521 -0.7638  0.4577 -0.1175
  189SAPI   H9X21862   3.015   6.044   6.564  0.1559 -1.2909 -1.5563
  189SAPI   H9Y21863   2.918   6.127   6.467  1.3498 -0.4857 -1.8360
  189SAPI  C31021864   2.917   5.903   6.436 -0.1742  0.3205 -0.2809
  189SAPI  H10X21865   2.837   5.909   6.359  1.6241 -0.9348 -2.3933
  189SAPI  H10Y21866   2.905   5.805   6.486  0.8950  0.0435 -0.5463
  189SAPI  C31121867   3.046   5.898   6.355  0.1593 -0.7987  0.2125
  189SAPI  H11X21868   3.041   5.794   6.319 -1.6707 -0.9963  0.9237
  189SAPI  H11Y21869   3.139   5.918   6.413  0.7879  0.0736 -1.0568
  189SAPI  C31221870   3.027   5.990   6.234 -0.7786  0.4226 -0.1157
  189SAPI  H12X21871   3.003   6.093   6.268  1.9943  1.1456 -0.1078
  189SAPI  H12Y21872   2.950   5.946   6.168  0.7500 -1.7983 -0.5600
  189SAPI  C31321873   3.157   5.989   6.155  0.0470  0.5348  0.2356
  189SAPI  H13X21874   3.166   5.882   6.127  0.3907  0.8306 -0.8602
  189SAPI  H13Y21875   3.242   6.006   6.225  0.3108 -1.8865  0.5759
  189SAPI  C31421876   3.162   6.083   6.029 -0.4209  0.1304 -0.4797
  189SAPI  H14X21877   3.165   6.186   6.071 -0.1638 -0.5844  1.3872
  189SAPI  H14Y21878   3.072   6.085   5.964 -0.3384  1.6083 -0.5801
  189SAPI  C31521879   3.281   6.062   5.937 -0.2484  0.1719 -0.7326
  189SAPI  H15X21880   3.266   5.966   5.883 -0.2187  0.4359 -1.2160
  189SAPI  H15Y21881   3.374   6.057   5.998 -1.6670  0.2078  1.5487
  189SAPI  C31621882   3.291   6.184   5.840 -0.2609  0.4606  0.6829
  189SAPI  H16X21883   3.299   6.278   5.900 -0.0152 -0.0303  1.4407
  189SAPI  H16Y21884   3.199   6.195   5.780  0.4608 -1.4505 -0.8934
  189SAPI  C31721885   3.411   6.190   5.748 -0.5799 -0.2473 -0.2216
  189SAPI  H17X21886   3.415   6.092   5.695  2.8525 -0.1100 -0.4825
  189SAPI  H17Y21887   3.504   6.208   5.805 -1.0733  2.4953 -0.1537
  189SAPI  C31821888   3.407   6.292   5.633 -0.2240  0.3676 -0.8675
  189SAPI  H18X21889   3.422   6.390   5.683 -0.0937 -0.4472  0.7441
  189SAPI  H18Y21890   3.314   6.282   5.572 -0.8286 -2.4947  0.3353
  189SAPI  H18Z21891   3.496   6.278   5.569 -0.2890 -1.0389 -0.6982
  190SAPI   C1221892   1.617   4.946   7.914 -0.1279  0.7739  0.9566
  190SAPI    H221893   1.727   4.961   7.901 -0.3796  1.3771 -0.6299
  190SAPI    O221894   1.590   4.899   8.048 -0.0310  0.1132  0.2427
  190SAPI   HO221895   1.677   4.879   8.084 -0.3245 -0.9215  0.3992
  190SAPI   C1321896   1.559   5.077   7.867 -0.1834 -0.4581 -0.1227
  190SAPI    H321897   1.628   5.106   7.785 -1.7987 -1.5165 -1.9332
  190SAPI    O321898   1.569   5.177   7.968 -0.0990 -0.3257 -0.4033
  190SAPI   HO321899   1.662   5.166   7.990  0.1727 -0.0245 -1.3569
  190SAPI   C1421900   1.418   5.067   7.808 -0.1683 -0.0009  0.8468
  190SAPI    H421901   1.348   5.092   7.890 -1.9475  0.5408 -0.7677
  190SAPI    O421902   1.401   5.177   7.716 -0.2447 -0.1090 -0.3977
  190SAPI   HO421903   1.437   5.151   7.631 -1.5545 -1.9634 -0.4430
  190SAPI   C1521904   1.366   4.937   7.749 -0.5009 -0.3755 -0.2484
  190SAPI    H521905   1.395   4.928   7.642  0.9624 -2.0323  0.2436
  190SAPI    O521906   1.220   4.934   7.758 -0.0018  0.0842 -0.1032
  190SAPI   HO521907   1.200   4.974   7.673  1.0700 -0.2360 -0.5180
  190SAPI   C1621908   1.431   4.817   7.812  0.8389  0.6559  0.4621
  190SAPI    H621909   1.392   4.803   7.915 -0.2305 -0.9255 -0.1119
  190SAPI    O621910   1.402   4.701   7.737 -0.3469  0.2015 -0.5875
  190SAPI   HO621911   1.380   4.628   7.796 -1.1635 -0.4291 -1.6287
  190SAPI   C1121912   1.589   4.830   7.811  0.3977 -0.5429 -0.1861
  190SAPI    H121913   1.632   4.862   7.714 -1.2177 -1.9264 -1.4404
  190SAPI     P21914   1.717   4.597   7.747  0.4945 -0.0349  0.0350
  190SAPI   O1321915   1.613   4.531   7.667 -0.6582  0.0385 -0.2182
  190SAPI   O1421916   1.792   4.511   7.841 -0.6410  0.3837  0.6043
  190SAPI   O1221917   1.657   4.713   7.849 -0.2743 -0.3350 -0.3417
  190SAPI   O1121918   1.817   4.671   7.657 -0.0032  0.1250 -0.5913
  190SAPI    C121919   1.955   4.649   7.633 -0.0028  0.6037  0.1958
  190SAPI    HA21920   2.007   4.747   7.644  1.3435  0.0875 -1.1882
  190SAPI    HB21921   1.989   4.576   7.709 -0.2481  0.5576  0.2639
  190SAPI    C221922   1.985   4.581   7.496  0.3698 -0.1792 -0.5042
  190SAPI    HS21923   1.947   4.477   7.507 -0.3323  0.1619  0.5090
  190SAPI   O2121924   2.125   4.588   7.464  0.1308  0.2334 -0.1558
  190SAPI   C2121925   2.195   4.503   7.536 -0.2324  0.3213  0.5633
  190SAPI   O2221926   2.148   4.417   7.611  0.3310 -0.7057 -0.1630
  190SAPI   C2221927   2.337   4.532   7.517 -0.3811 -0.0470  0.2184
  190SAPI   H2R21928   2.339   4.635   7.477 -0.6630 -0.1291 -0.0125
  190SAPI   H2S21929   2.392   4.544   7.613  1.0109 -0.0711 -0.5558
  190SAPI    C321930   1.887   4.642   7.387 -0.7112 -0.3036  0.4349
  190SAPI    HX21931   1.873   4.750   7.408 -2.0919 -0.7057  1.8460
  190SAPI    HY21932   1.783   4.602   7.394 -1.0818  0.1075 -1.8612
  190SAPI   O3121933   1.936   4.625   7.258 -0.2038  0.1570 -0.0858
  190SAPI   C3121934   1.929   4.504   7.206 -0.2984  0.1298  0.4611
  190SAPI   O3221935   1.869   4.406   7.251  0.2741  0.5034 -0.5563
  190SAPI   C3221936   1.980   4.506   7.060  0.1858 -1.2978  0.1799
  190SAPI   H2X21937   2.088   4.481   7.056  0.0487 -1.7521 -1.0739
  190SAPI   H2Y21938   1.984   4.609   7.020 -0.3278 -2.0751 -2.0140
  190SAPI   C2321939   2.399   4.435   7.423 -0.0394  0.0292  0.1792
  190SAPI   H3R21940   2.406   4.329   7.457 -2.5040  0.2765  1.7255
  190SAPI   H3S21941   2.502   4.471   7.406  1.0274 -1.5611  2.6261
  190SAPI   C2421942   2.325   4.436   7.285  0.0890 -0.4160  0.2605
  190SAPI   H4R21943   2.219   4.404   7.297  0.1966 -0.7046  0.4336
  190SAPI   H4S21944   2.372   4.356   7.225 -0.1610  1.4007 -2.5404
  190SAPI   C2521945   2.328   4.566   7.214  0.5416 -0.8775  0.7167
  190SAPI   H5R21946   2.307   4.656   7.273 -0.1173  0.1507 -1.0305
  190SAPI   C2621947   2.333   4.581   7.081 -0.2155 -0.4410 -0.1010
  190SAPI   H6R21948   2.311   4.679   7.038  0.0620  0.0775  0.9132
  190SAPI   C2721949   2.367   4.476   6.974 -0.1123  0.3996  0.8679
  190SAPI   H7R21950   2.280   4.466   6.907 -0.1524 -0.7615  1.0848
  190SAPI   H7S21951   2.393   4.374   7.008  3.0198  0.5347 -0.7712
  190SAPI   C2821952   2.481   4.526   6.885  0.3286  0.1108 -0.5509
  190SAPI   H8R21953   2.581   4.505   6.924 -0.3867 -0.9994  0.7539
  190SAPI   C2921954   2.473   4.571   6.755 -0.3995  0.7664  0.3472
  190SAPI   H9R21955   2.568   4.611   6.716  0.7879  0.3131  2.6238
  190SAPI  C21021956   2.347   4.593   6.671 -0.0915 -0.1266  0.4509
  190SAPI  H10R21957   2.255   4.536   6.695 -0.7759  0.3676 -0.9279
  190SAPI  H10S21958   2.379   4.553   6.573  0.0764  0.3151  0.3248
  190SAPI  C21121959   2.299   4.733   6.657 -0.2352  0.1326  0.8501
  190SAPI  H11R21960   2.388   4.798   6.662 -0.2532  0.1894  0.4569
  190SAPI  C21221961   2.177   4.786   6.640 -0.1326 -0.2230  0.2197
  190SAPI  H12R21962   2.167   4.895   6.632 -2.3747 -0.3111  1.2067
  190SAPI  C21321963   2.043   4.713   6.623  0.3560 -0.0445  0.4819
  190SAPI  H13R21964   1.992   4.711   6.721  2.2930  1.0393  1.5807
  190SAPI  H13S21965   2.060   4.605   6.602  2.5621  0.8532 -3.2828
  190SAPI  C21421966   1.959   4.786   6.521  0.0756  0.3042  0.7747
  190SAPI  H14R21967   1.894   4.861   6.568  0.1823  0.6507  0.3851
  190SAPI  C21521968   1.966   4.773   6.387  0.1261  0.3550 -0.1742
  190SAPI  H15R21969   1.902   4.838   6.327  1.4392  0.7910 -1.1569
  190SAPI  C21621970   2.059   4.682   6.307  0.1461  0.8598 -0.1531
  190SAPI  H16R21971   2.004   4.589   6.281  1.4498  0.2138 -0.7141
  190SAPI  H16S21972   2.134   4.643   6.379  0.7177  2.4636  0.1818
  190SAPI  C21721973   2.113   4.767   6.184 -0.1100  0.4942 -0.4110
  190SAPI  H17R21974   2.151   4.866   6.219 -0.4535  0.8085 -0.9187
  190SAPI  H17S21975   2.029   4.784   6.114 -0.4003 -1.1296 -0.4839
  190SAPI  C21821976   2.233   4.707   6.103 -0.6019 -0.0507  0.0956
  190SAPI  H18R21977   2.206   4.721   5.996  0.6673 -1.2544 -0.4117
  190SAPI  H18S21978   2.232   4.597   6.119  0.5143 -0.4383 -2.1002
  190SAPI  C21921979   2.369   4.760   6.140 -0.4384 -0.6607  0.4592
  190SAPI  H19R21980   2.382   4.731   6.246  4.5098  0.5389  0.4047
  190SAPI  H19S21981   2.376   4.870   6.141 -0.1836 -0.6256  3.2509
  190SAPI  C22021982   2.479   4.688   6.053  0.6324 -0.4681 -0.5557
  190SAPI  H20R21983   2.458   4.694   5.944  1.3589 -3.6649 -0.9708
  190SAPI  H20S21984   2.488   4.579   6.074 -0.3453 -0.2417  1.1752
  190SAPI  H20T21985   2.576   4.734   6.081 -0.4982  0.9484  1.2296
  190SAPI   C3321986   1.889   4.411   6.975 -1.1902  0.4351  0.3888
  190SAPI   H3X21987   1.785   4.449   6.965 -1.1477  0.8123  1.2775
  190SAPI   H3Y21988   1.880   4.311   7.023 -1.5461 -0.6393 -1.8002
  190SAPI   C3421989   1.947   4.384   6.834 -0.0414 -0.5534 -0.1763
  190SAPI   H4X21990   2.046   4.342   6.863  1.2925  1.3622 -1.7305
  190SAPI   H4Y21991   1.964   4.478   6.778 -0.5746 -1.2596 -1.5637
  190SAPI   C3521992   1.853   4.286   6.758  0.2012 -0.9287 -0.4284
  190SAPI   H5X21993   1.756   4.297   6.811  0.7161 -0.4802  0.4468
  190SAPI   H5Y21994   1.889   4.184   6.785 -1.8029 -1.5033  0.2463
  190SAPI   C3621995   1.841   4.299   6.603  0.3181 -0.4686 -0.2509
  190SAPI   H6X21996   1.945   4.306   6.562  0.5830  0.0921  0.4989
  190SAPI   H6Y21997   1.804   4.397   6.565  0.6620  1.0339  2.9405
  190SAPI   C3721998   1.780   4.184   6.536  0.3578  0.2602 -0.2732
  190SAPI   H7X21999   1.675   4.173   6.570  0.9846 -1.5487  1.2113
  190SAPI   H7Y22000   1.831   4.086   6.548 -1.0244 -0.4724 -0.1761
  190SAPI   C3822001   1.784   4.204   6.384  0.1903  0.5704  0.8952
  190SAPI   H8X22002   1.889   4.192   6.350  0.0706  0.4127  0.5799
  190SAPI   H8Y22003   1.765   4.312   6.365 -0.6955  0.3922  0.7045
  190SAPI   C3922004   1.702   4.109   6.302  0.4043 -0.1417 -0.3017
  190SAPI   H9X22005   1.606   4.113   6.358 -0.2725  3.8870 -1.4409
  190SAPI   H9Y22006   1.738   4.004   6.297  0.3616 -0.1158 -1.4878
  190SAPI  C31022007   1.694   4.161   6.158  0.5125  0.3211 -0.5600
  190SAPI  H10X22008   1.796   4.154   6.114  0.4805 -2.7224 -0.3465
  190SAPI  H10Y22009   1.667   4.268   6.175  1.1809  0.5215 -0.6990
  190SAPI  C31122010   1.590   4.100   6.062  0.6411  0.1148 -0.6532
  190SAPI  H11X22011   1.485   4.104   6.099 -0.0589 -1.2380 -2.3476
  190SAPI  H11Y22012   1.618   3.993   6.068 -1.0385 -0.4730 -2.3851
  190SAPI  C31222013   1.593   4.154   5.923  0.1372 -0.4363  0.1307
  190SAPI  H12X22014   1.692   4.193   5.889  0.6166 -3.6444 -2.6681
  190SAPI  H12Y22015   1.529   4.244   5.914  0.4364 -0.3382 -1.3323
  190SAPI  C31322016   1.531   4.058   5.821 -0.1559  0.6038 -0.1801
  190SAPI  H13X22017   1.523   4.110   5.723 -0.5849  1.0001  0.0601
  190SAPI  H13Y22018   1.426   4.046   5.856  1.0845 -3.1250  3.0057
  190SAPI  C31422019   1.612   3.922   5.799  0.6975  0.4141  0.0808
  190SAPI  H14X22020   1.628   3.875   5.898 -3.3932 -0.0375  0.6960
  190SAPI  H14Y22021   1.710   3.955   5.759  0.5828  0.2808 -0.3145
  190SAPI  C31522022   1.558   3.836   5.682  0.4522  0.4213 -0.5820
  190SAPI  H15X22023   1.601   3.877   5.588 -0.7459 -0.6383 -1.6219
  190SAPI  H15Y22024   1.447   3.834   5.689  0.4319  3.4265  1.6478
  190SAPI  C31622025   1.605   3.691   5.688 -0.3882  0.0601  0.2140
  190SAPI  H16X22026   1.569   3.640   5.780  2.2584 -0.2637  1.1516
  190SAPI  H16Y22027   1.714   3.689   5.706 -0.4184 -1.0461  0.3448
  190SAPI  C31722028   1.591   3.619   5.556 -0.8236  1.0431  0.4132
  190SAPI  H17X22029   1.669   3.655   5.486  0.1757  2.8239  2.3066
  190SAPI  H17Y22030   1.498   3.653   5.505 -0.5145 -1.4663 -2.0310
  190SAPI  C31822031   1.585   3.468   5.553 -0.0258  1.2974 -0.3762
  190SAPI  H18X22032   1.660   3.437   5.629 -1.6308 -1.3557  0.2633
  190SAPI  H18Y22033   1.615   3.433   5.452  0.7900  1.9220 -0.3631
  190SAPI  H18Z22034   1.487   3.425   5.582 -0.4888  2.1305 -0.6695
  191SAPI   C1222035   3.310   3.520   3.745  0.2529 -0.7134 -0.0149
  191SAPI    H222036   3.266   3.559   3.651 -0.4626  3.6866  1.8561
  191SAPI    O222037   3.297   3.380   3.760  0.7225  0.2191  0.0363
  191SAPI   HO222038   3.233   3.364   3.830 -0.8850  0.9715 -1.2082
  191SAPI   C1322039   3.457   3.564   3.735 -0.6071  0.7424  0.1864
  191SAPI    H322040   3.458   3.675   3.727  0.3967  0.7435  0.2805
  191SAPI    O322041   3.526   3.507   3.622  0.4542  0.4395  0.2143
  191SAPI   HO322042   3.516   3.411   3.622 -0.7263  0.5373 -0.4899
  191SAPI   C1422043   3.528   3.528   3.858 -0.2842 -0.1022  0.7309
  191SAPI    H422044   3.521   3.418   3.868 -2.1155 -0.4907 -3.1386
  191SAPI    O422045   3.671   3.564   3.845 -0.1675  0.5406  0.4393
  191SAPI   HO422046   3.719   3.481   3.831  1.1898  1.1438  1.2719
  191SAPI   C1522047   3.465   3.604   3.976  0.2745  0.0613  0.7755
  191SAPI    H522048   3.494   3.710   3.961 -0.6842  0.6815  2.9431
  191SAPI    O522049   3.523   3.568   4.102 -0.2173  0.1124 -0.1567
  191SAPI   HO522050   3.488   3.484   4.134  0.2015 -0.2407 -0.6131
  191SAPI   C1622051   3.312   3.610   3.975 -0.3756  0.5644 -0.0580
  191SAPI    H622052   3.275   3.528   4.040  0.6324 -0.2615 -0.4952
  191SAPI    O622053   3.268   3.720   4.057  0.4804 -0.0584  0.5365
  191SAPI   HO622054   3.219   3.677   4.127  2.5243 -2.4217  0.6793
  191SAPI   C1122055   3.236   3.601   3.850  0.4699  0.0615  0.5311
  191SAPI    H122056   3.230   3.708   3.822 -2.2665 -0.4648 -1.2554
  191SAPI     P22057   2.965   3.591   3.787 -0.3416 -0.0396 -0.1375
  191SAPI   O1322058   2.906   3.465   3.737 -0.0717 -0.2373  0.4424
  191SAPI   O1422059   2.995   3.693   3.684  0.3337  0.0315 -0.1821
  191SAPI   O1222060   3.104   3.547   3.872  0.1132 -0.7491 -0.7389
  191SAPI   O1122061   2.873   3.659   3.889  0.5633 -0.4184  0.7001
  191SAPI    C122062   2.827   3.587   4.004  0.4028 -0.0712 -0.4042
  191SAPI    HA22063   2.722   3.616   4.027  0.2512  1.5443 -2.7747
  191SAPI    HB22064   2.823   3.478   3.987  0.6493  0.2077 -2.4504
  191SAPI    C222065   2.926   3.618   4.121 -0.4079  0.1723 -0.6850
  191SAPI    HS22066   3.023   3.619   4.068 -1.5555  0.0329 -2.8941
  191SAPI   O2122067   2.903   3.505   4.212 -0.1744 -0.1043 -0.4325
  191SAPI   C2122068   3.008   3.495   4.293  0.3671  0.7196 -0.2917
  191SAPI   O2222069   3.116   3.550   4.284 -0.2068 -0.4257 -0.4409
  191SAPI   C2222070   2.967   3.414   4.415 -0.4674 -0.5433 -0.0888
  191SAPI   H2R22071   2.865   3.374   4.399 -1.1191  0.3497  1.5928
  191SAPI   H2S22072   3.050   3.341   4.430  1.5935  1.9600  1.6338
  191SAPI    C322073   2.896   3.757   4.181 -0.4469 -0.2868 -0.4288
  191SAPI    HX22074   2.791   3.745   4.217  0.2629  0.5571  2.1424
  191SAPI    HY22075   2.888   3.834   4.101  1.1495  0.3717  0.0156
  191SAPI   O3122076   2.975   3.792   4.299 -0.5236 -0.1998  0.0435
  191SAPI   C3122077   3.075   3.874   4.269 -0.5206  0.2663  0.0778
  191SAPI   O3222078   3.076   3.935   4.162 -0.1274  0.0110  0.3358
  191SAPI   C3222079   3.173   3.904   4.380 -0.0005  0.1811 -0.3430
  191SAPI   H2X22080   3.181   4.013   4.398  1.2538 -0.1562  1.4204
  191SAPI   H2Y22081   3.278   3.878   4.354  0.5225 -0.2841  2.0100
  191SAPI   C2322082   2.975   3.501   4.546  0.4315 -0.3645 -0.4900
  191SAPI   H3R22083   2.924   3.599   4.540 -0.5639 -0.8563 -0.1496
  191SAPI   H3S22084   3.081   3.525   4.570  0.2697 -0.8054  0.7794
  191SAPI   C2422085   2.916   3.415   4.665  0.1338 -0.2059 -0.2460
  191SAPI   H4R22086   2.971   3.320   4.674  0.6057 -0.0809 -1.5758
  191SAPI   H4S22087   2.810   3.400   4.634 -0.4698  0.5988  1.3053
  191SAPI   C2522088   2.936   3.497   4.792 -0.1501  0.1354 -0.1153
  191SAPI   H5R22089   2.934   3.606   4.779 -1.4643  0.2564  0.8546
  191SAPI   C2622090   2.961   3.446   4.914 -0.0944 -0.8091 -0.2211
  191SAPI   H6R22091   2.966   3.517   4.998  0.6134  0.9052 -1.6582
  191SAPI   C2722092   2.969   3.300   4.945 -0.4530  0.4368 -0.2369
  191SAPI   H7R22093   3.015   3.295   5.046  2.7301 -0.9448 -1.6407
  191SAPI   H7S22094   3.041   3.244   4.882 -0.0095 -0.8474  1.3318
  191SAPI   C2822095   2.840   3.222   4.950 -1.1606  0.9286 -0.0024
  191SAPI   H8R22096   2.806   3.191   4.851  0.5883  1.1719 -0.7030
  191SAPI   C2922097   2.774   3.177   5.058  0.2323  0.7399  0.4756
  191SAPI   H9R22098   2.678   3.122   5.054 -0.3499  1.4311  2.8588
  191SAPI  C21022099   2.813   3.195   5.201 -1.0267  0.5395 -0.3912
  191SAPI  H10R22100   2.783   3.297   5.234 -0.0222  0.9407 -0.6808
  191SAPI  H10S22101   2.923   3.196   5.220 -1.1679 -0.8677  0.6400
  191SAPI  C21122102   2.753   3.090   5.290 -0.0736 -0.1812  0.0252
  191SAPI  H11R22103   2.672   3.131   5.353 -1.8081 -1.9699 -0.9188
  191SAPI  C21222104   2.799   2.967   5.323  0.5837  0.2572  0.5858
  191SAPI  H12R22105   2.731   2.908   5.386 -0.4069  1.5816  0.8077
  191SAPI  C21322106   2.912   2.899   5.249  0.0030 -0.6953  0.5126
  191SAPI  H13R22107   2.993   2.925   5.322 -1.7239  0.7508  2.0146
  191SAPI  H13S22108   2.926   2.944   5.149  1.4920 -1.0645  0.5329
  191SAPI  C21422109   2.914   2.749   5.226 -0.5486  0.0458  0.5674
  191SAPI  H14R22110   2.918   2.725   5.118 -1.4550  4.3540 -0.6208
  191SAPI  C21522111   2.900   2.650   5.312 -0.4151 -0.1309 -0.4371
  191SAPI  H15R22112   2.905   2.545   5.279 -1.3150 -0.4390  0.3840
  191SAPI  C21622113   2.886   2.663   5.463 -0.2759  0.3150  0.0230
  191SAPI  H16R22114   2.893   2.769   5.494  3.8037  0.2716 -0.1718
  191SAPI  H16S22115   2.978   2.623   5.511  1.1224  1.1396 -1.8336
  191SAPI  C21722116   2.755   2.608   5.530 -0.4364  0.1777  0.2869
  191SAPI  H17R22117   2.742   2.499   5.513  0.8792 -0.4201  2.6347
  191SAPI  H17S22118   2.676   2.669   5.482  2.1386  3.2296 -0.4073
  191SAPI  C21822119   2.745   2.642   5.683 -0.2530  0.7020 -0.4794
  191SAPI  H18R22120   2.645   2.643   5.732  0.4587 -2.4641  1.3365
  191SAPI  H18S22121   2.787   2.744   5.688 -0.4187  0.7293  0.6259
  191SAPI  C21922122   2.826   2.544   5.780  0.2151 -0.6698 -0.5746
  191SAPI  H19R22123   2.832   2.594   5.879  0.4922 -1.4801 -0.1731
  191SAPI  H19S22124   2.934   2.536   5.753  0.6806  0.5159  0.8010
  191SAPI  C22022125   2.768   2.403   5.773 -0.5002  0.1216 -1.2914
  191SAPI  H20R22126   2.677   2.382   5.833 -0.1401  0.3715 -0.6446
  191SAPI  H20S22127   2.842   2.339   5.827 -0.0588  3.0467  1.9059
  191SAPI  H20T22128   2.732   2.373   5.672 -2.4060 -1.7012 -0.1750
  191SAPI   C3322129   3.141   3.831   4.514  0.2520 -0.3447  0.0001
  191SAPI   H3X22130   3.243   3.822   4.557 -0.0347 -1.2381  0.5182
  191SAPI   H3Y22131   3.113   3.724   4.507  0.4587 -0.8794  4.5342
  191SAPI   C3422132   3.028   3.896   4.599 -0.3600 -0.1900  0.5645
  191SAPI   H4X22133   2.998   3.830   4.683 -2.8059 -2.4854 -1.9304
  191SAPI   H4Y22134   2.940   3.911   4.534  0.0046 -1.2459 -0.1973
  191SAPI   C3522135   3.068   4.034   4.664 -0.2007  0.1517 -0.3836
  191SAPI   H5X22136   2.987   4.087   4.720 -1.7519  0.9770 -3.2351
  191SAPI   H5Y22137   3.100   4.104   4.584  0.0939 -1.8334 -2.0867
  191SAPI   C3622138   3.186   4.023   4.769 -0.1398  0.1663  0.7548
  191SAPI   H6X22139   3.181   4.130   4.799 -0.5116  0.5534 -0.6116
  191SAPI   H6Y22140   3.282   4.008   4.716  0.1096 -0.3908  1.3533
  191SAPI   C3722141   3.151   3.913   4.878 -0.0946 -0.0815 -0.8718
  191SAPI   H7X22142   3.168   3.812   4.834 -0.4130 -0.4084 -0.2558
  191SAPI   H7Y22143   3.043   3.909   4.902 -0.0919 -0.4727 -0.9201
  191SAPI   C3822144   3.238   3.925   5.002  0.1210 -0.0595  0.0613
  191SAPI   H8X22145   3.343   3.902   4.976 -0.4035 -1.1407 -1.2018
  191SAPI   H8Y22146   3.203   3.856   5.081 -1.3326 -1.0626 -1.3965
  191SAPI   C3922147   3.235   4.056   5.081  0.0462 -0.6240  0.0517
  191SAPI   H9X22148   3.126   4.077   5.088 -0.1365 -1.4154 -0.3710
  191SAPI   H9Y22149   3.275   4.143   5.024 -2.0724  1.2797  1.2892
  191SAPI  C31022150   3.310   4.042   5.216  0.4808 -0.5330 -0.0675
  191SAPI  H10X22151   3.414   4.007   5.196  0.3316 -1.3743  0.5538
  191SAPI  H10Y22152   3.252   3.961   5.266  1.5083 -0.7416  0.8390
  191SAPI  C31122153   3.305   4.168   5.296 -0.3688 -0.0665  0.5881
  191SAPI  H11X22154   3.338   4.255   5.235 -3.3452  0.5210 -0.3420
  191SAPI  H11Y22155   3.383   4.154   5.373 -1.5519 -1.0506  1.6674
  191SAPI  C31222156   3.175   4.215   5.366 -0.7917  0.7751 -0.4851
  191SAPI  H12X22157   3.134   4.128   5.423 -1.2416  1.7403  0.7115
  191SAPI  H12Y22158   3.100   4.249   5.291  0.3212 -0.4627 -2.2338
  191SAPI  C31322159   3.203   4.313   5.483 -0.2307 -0.4891  0.0910
  191SAPI  H13X22160   3.238   4.409   5.439 -0.2057 -1.5685 -2.4059
  191SAPI  H13Y22161   3.284   4.263   5.540 -1.5436  0.1214  2.6499
  191SAPI  C31422162   3.077   4.333   5.573  0.0654 -0.1194  0.1187
  191SAPI  H14X22163   3.043   4.232   5.604  1.8114 -0.4813  0.9778
  191SAPI  H14Y22164   2.981   4.366   5.526 -1.0930 -1.4196  1.4790
  191SAPI  C31522165   3.100   4.423   5.695 -0.4641 -0.5475 -0.4932
  191SAPI  H15X22166   3.123   4.527   5.666 -0.5002 -0.4281 -0.1034
  191SAPI  H15Y22167   3.190   4.380   5.744  0.7997  0.7500 -1.6149
  191SAPI  C31622168   2.989   4.428   5.801  0.0782  0.0446 -0.4633
  191SAPI  H16X22169   2.970   4.326   5.839 -0.6951  0.3362 -0.0448
  191SAPI  H16Y22170   2.895   4.462   5.752 -2.5351 -1.8871  2.7906
  191SAPI  C31722171   3.023   4.527   5.911  0.5703 -0.3685  0.0539
  191SAPI  H17X22172   3.048   4.628   5.874 -1.9726  0.1559 -0.4439
  191SAPI  H17Y22173   3.105   4.478   5.968  1.2795 -1.0995 -1.5430
  191SAPI  C31822174   2.909   4.554   6.021 -0.0617  0.2513 -0.0859
  191SAPI  H18X22175   2.949   4.624   6.098  2.7437 -0.3013 -0.8919
  191SAPI  H18Y22176   2.874   4.456   6.058 -2.3886  2.0095  2.7930
  191SAPI  H18Z22177   2.817   4.596   5.977 -1.9763 -0.5102  2.9239
  192SAPI   C1222178   5.008   1.015   3.002 -0.1500 -0.2252 -0.1268
  192SAPI    H222179   5.100   1.065   3.041  0.2965 -0.5155 -0.7811
  192SAPI    O222180   5.042   0.883   2.958  0.1391  0.4707  0.6798
  192SAPI   HO222181   5.115   0.901   2.898 -0.4062  0.9035  0.1363
  192SAPI   C1322182   4.910   1.001   3.121 -0.1974 -0.8875  0.7092
  192SAPI    H322183   4.880   1.102   3.155  0.0378 -0.2351 -0.8940
  192SAPI    O322184   4.974   0.931   3.228  0.1826  0.0582 -0.2279
  192SAPI   HO322185   4.957   0.837   3.224 -0.2309 -0.0650  2.4413
  192SAPI   C1422186   4.785   0.932   3.067 -0.5242  0.0066 -0.8233
  192SAPI    H422187   4.816   0.826   3.052 -2.4691 -0.3646 -2.7272
  192SAPI    O422188   4.685   0.938   3.168  0.2787  0.0099  0.3790
  192SAPI   HO422189   4.642   0.853   3.178 -0.5490 -0.0108 -2.4500
  192SAPI   C1522190   4.733   0.980   2.929 -0.2758 -0.3519  0.1375
  192SAPI    H522191   4.663   1.061   2.958  0.9074  0.0015  2.2456
  192SAPI    O522192   4.655   0.880   2.862  0.2069  0.7265 -0.0231
  192SAPI   HO522193   4.563   0.887   2.889 -0.0310  1.4860 -0.9383
  192SAPI   C1622194   4.830   1.043   2.830  0.4264 -0.3135 -0.6610
  192SAPI    H622195   4.863   0.960   2.764 -1.9167 -1.0172 -1.0685
  192SAPI    O622196   4.762   1.135   2.751 -0.2157 -0.0430 -0.0251
  192SAPI   HO622197   4.809   1.157   2.670 -1.5961 -0.7818 -1.0770
  192SAPI   C1122198   4.955   1.099   2.890  0.0361 -0.7969 -0.0620
  192SAPI    H122199   4.926   1.193   2.941  1.6949 -0.9615  1.2402
  192SAPI     P22200   5.180   1.222   2.802 -0.3717  0.2223 -0.3970
  192SAPI   O1322201   5.160   1.350   2.874  0.0117 -0.1660 -0.5290
  192SAPI   O1422202   5.232   1.241   2.664  0.2485 -0.4497  0.4956
  192SAPI   O1222203   5.059   1.123   2.795  0.7648  0.0207 -0.0963
  192SAPI   O1122204   5.287   1.128   2.877  0.2100 -0.2251 -0.2064
  192SAPI    C122205   5.358   1.190   2.982 -0.9446 -0.8889  0.0303
  192SAPI    HA22206   5.430   1.265   2.943  2.0201 -0.9668  4.5605
  192SAPI    HB22207   5.292   1.235   3.060 -1.6586  0.3998 -1.2648
  192SAPI    C222208   5.447   1.082   3.053 -0.0681 -0.0509  0.1111
  192SAPI    HS22209   5.509   1.034   2.974 -1.1164  0.3793 -1.0159
  192SAPI   O2122210   5.353   0.991   3.121 -0.1611 -0.2096 -0.1427
  192SAPI   C2122211   5.352   0.860   3.085 -0.7849 -0.0974 -0.0155
  192SAPI   O2222212   5.395   0.818   2.979 -0.7788 -0.8216 -0.3159
  192SAPI   C2222213   5.291   0.763   3.189 -0.7636 -0.7985 -0.0050
  192SAPI   H2R22214   5.207   0.814   3.242  0.7826 -0.6022  2.3881
  192SAPI   H2S22215   5.266   0.669   3.137 -0.0257 -0.7630 -0.4344
  192SAPI    C322216   5.536   1.150   3.164  0.2129  0.2178  0.4004
  192SAPI    HX22217   5.614   1.205   3.107 -0.0335 -2.9439 -3.3715
  192SAPI    HY22218   5.585   1.065   3.217 -0.5083 -0.4188  0.0533
  192SAPI   O3122219   5.459   1.236   3.252 -0.1916 -0.4145 -0.3998
  192SAPI   C3122220   5.515   1.260   3.373 -0.1679  0.3300  0.2181
  192SAPI   O3222221   5.629   1.229   3.401 -0.3022 -0.4457  0.0361
  192SAPI   C3222222   5.411   1.325   3.462  0.4759 -0.3576 -0.5291
  192SAPI   H2X22223   5.313   1.308   3.413  0.5399 -0.4603 -0.6207
  192SAPI   H2Y22224   5.422   1.434   3.481 -0.8252 -0.4939  1.2898
  192SAPI   C2322225   5.381   0.710   3.306  0.3602  0.1838  0.2358
  192SAPI   H3R22226   5.453   0.638   3.262 -0.4953 -0.9572  0.6566
  192SAPI   H3S22227   5.313   0.648   3.369 -1.0195  1.4595  0.0803
  192SAPI   C2422228   5.438   0.815   3.397  0.4638  0.0910  0.3360
  192SAPI   H4R22229   5.507   0.890   3.353 -0.3056 -0.8439 -2.7204
  192SAPI   H4S22230   5.503   0.757   3.465 -0.8423 -1.7061  0.1103
  192SAPI   C2522231   5.335   0.892   3.473 -1.0106 -0.3360 -0.1654
  192SAPI   H5R22232   5.283   0.968   3.412 -3.0613 -2.2139 -0.9312
  192SAPI   C2622233   5.297   0.889   3.604  0.8237 -0.6543 -0.7032
  192SAPI   H6R22234   5.210   0.945   3.641 -0.6010 -1.2133 -3.0230
  192SAPI   C2722235   5.377   0.815   3.704  1.0175  1.0485  0.6194
  192SAPI   H7R22236   5.433   0.733   3.655 -0.3999  0.0814  0.5792
  192SAPI   H7S22237   5.314   0.751   3.768 -1.8632  2.1561 -0.9413
  192SAPI   C2822238   5.478   0.901   3.760 -0.8922  0.5923  0.1500
  192SAPI   H8R22239   5.520   0.979   3.694 -1.1410 -0.1201 -0.8695
  192SAPI   C2922240   5.530   0.886   3.885 -0.4644 -1.0698  0.0148
  192SAPI   H9R22241   5.609   0.957   3.916 -0.0852 -2.0392  1.3526
  192SAPI  C21022242   5.491   0.784   3.985  0.0349  0.0267  0.5968
  192SAPI  H10R22243   5.575   0.712   3.996  0.6272  0.2180 -2.0987
  192SAPI  H10S22244   5.410   0.715   3.952  1.9288 -1.3442 -1.4944
  192SAPI  C21122245   5.435   0.834   4.118 -0.5355 -0.3187 -0.1022
  192SAPI  H11R22246   5.339   0.887   4.106 -0.7972 -1.0840 -1.7659
  192SAPI  C21222247   5.504   0.839   4.235  0.3285  0.1771  0.8338
  192SAPI  H12R22248   5.461   0.877   4.328 -1.9116 -3.2984  1.4198
  192SAPI  C21322249   5.646   0.794   4.254 -0.9743 -0.3536  0.4880
  192SAPI  H13R22250   5.715   0.877   4.281  0.3879 -1.5762  0.9034
  192SAPI  H13S22251   5.683   0.752   4.158 -0.5776  0.7893  0.1305
  192SAPI  C21422252   5.648   0.688   4.356 -0.1838 -0.0104  0.3480
  192SAPI  H14R22253   5.599   0.598   4.316  1.7615 -0.4104 -1.2725
  192SAPI  C21522254   5.690   0.689   4.483 -1.1458  0.3260  1.1795
  192SAPI  H15R22255   5.679   0.604   4.552  1.8110  0.0692  1.4444
  192SAPI  C21622256   5.762   0.797   4.553  0.3549  0.0546  0.4546
  192SAPI  H16R22257   5.801   0.869   4.478  2.0954 -3.3382 -2.1656
  192SAPI  H16S22258   5.838   0.749   4.620  1.4207 -0.2427 -0.9279
  192SAPI  C21722259   5.662   0.862   4.649  0.5491 -0.5544  0.2817
  192SAPI  H17R22260   5.575   0.888   4.585  2.0119  0.0629 -1.5215
  192SAPI  H17S22261   5.710   0.960   4.665 -1.7821  0.8027 -0.5872
  192SAPI  C21822262   5.623   0.786   4.776  0.0923  0.0932 -0.3608
  192SAPI  H18R22263   5.604   0.683   4.739 -1.1347  1.0569 -2.5935
  192SAPI  H18S22264   5.530   0.830   4.817  0.7365 -0.6942  2.0993
  192SAPI  C21922265   5.731   0.775   4.889 -0.0316 -0.1072  0.0874
  192SAPI  H19R22266   5.772   0.872   4.926 -0.3743 -0.2465  0.8422
  192SAPI  H19S22267   5.827   0.730   4.856  0.0561 -0.7843  1.2229
  192SAPI  C22022268   5.690   0.705   5.018  0.4650  0.1418 -0.4011
  192SAPI  H20R22269   5.687   0.594   5.014 -2.1913  0.1011  0.4880
  192SAPI  H20S22270   5.590   0.740   5.051  0.6351  0.9771 -0.7613
  192SAPI  H20T22271   5.766   0.733   5.094  1.5898  0.6513 -1.6751
  192SAPI   C3322272   5.394   1.271   3.609  0.6493  0.5979  0.1092
  192SAPI   H3X22273   5.394   1.160   3.619 -1.4633  0.4861 -0.6462
  192SAPI   H3Y22274   5.299   1.307   3.652  1.1237  2.2843 -0.1830
  192SAPI   C3422275   5.509   1.313   3.707  0.0218 -0.0490  0.0121
  192SAPI   H4X22276   5.526   1.423   3.705  0.8888  0.0732  4.2428
  192SAPI   H4Y22277   5.601   1.259   3.673 -1.4002 -2.7802  0.2180
  192SAPI   C3522278   5.482   1.281   3.851 -0.6883  0.1766 -0.4241
  192SAPI   H5X22279   5.479   1.171   3.862 -1.1640 -0.1849 -3.4626
  192SAPI   H5Y22280   5.377   1.312   3.870 -0.4842  0.7429 -0.1798
  192SAPI   C3622281   5.586   1.334   3.954  0.0051  0.1628 -0.1467
  192SAPI   H6X22282   5.569   1.443   3.970  2.0768  0.4508  0.3796
  192SAPI   H6Y22283   5.687   1.322   3.910 -0.3223 -0.4642 -0.7609
  192SAPI   C3722284   5.569   1.258   4.093  0.2964  0.3304 -0.7089
  192SAPI   H7X22285   5.584   1.149   4.077 -2.6520 -0.2081 -0.3707
  192SAPI   H7Y22286   5.463   1.260   4.127  1.0027  0.7711  1.6435
  192SAPI   C3822287   5.651   1.311   4.205  0.1989 -0.0533  0.5273
  192SAPI   H8X22288   5.615   1.416   4.193 -0.4574 -0.5916 -3.8876
  192SAPI   H8Y22289   5.760   1.306   4.182  0.1625 -0.3774  0.4248
  192SAPI   C3922290   5.631   1.251   4.342  0.3659 -0.2777  0.0409
  192SAPI   H9X22291   5.665   1.146   4.335 -1.2861 -0.7565 -1.3538
  192SAPI   H9Y22292   5.522   1.261   4.360  0.1251  0.0582 -1.4508
  192SAPI  C31022293   5.706   1.317   4.464 -0.3005 -0.1446 -0.2999
  192SAPI  H10X22294   5.696   1.428   4.462  0.3694 -0.0079  1.8709
  192SAPI  H10Y22295   5.814   1.296   4.447 -0.4635  0.1731 -1.9797
  192SAPI  C31122296   5.682   1.254   4.608 -0.6855  0.0193 -0.2067
  192SAPI  H11X22297   5.666   1.147   4.583  0.8475  0.4244 -3.3943
  192SAPI  H11Y22298   5.582   1.297   4.633 -1.2677 -1.1189 -0.4902
  192SAPI  C31222299   5.790   1.282   4.711 -0.0500  0.7541 -1.0721
  192SAPI  H12X22300   5.872   1.211   4.686 -0.8022 -1.0679  1.2405
  192SAPI  H12Y22301   5.766   1.244   4.813  1.1580  0.2501 -0.9516
  192SAPI  C31322302   5.856   1.426   4.713 -0.0848  0.4893  0.1396
  192SAPI  H13X22303   5.786   1.506   4.746  0.8484  0.9134  1.1434
  192SAPI  H13Y22304   5.894   1.458   4.613  0.8610 -0.3020  0.2351
  192SAPI  C31422305   5.973   1.433   4.812  0.6482 -1.0171  0.1953
  192SAPI  H14X22306   6.001   1.541   4.820 -1.1986 -0.3472 -1.7170
  192SAPI  H14Y22307   6.056   1.381   4.760  0.0062 -1.0722 -0.7870
  192SAPI  C31522308   5.962   1.378   4.961  0.9357 -0.0987  0.2415
  192SAPI  H15X22309   6.066   1.384   5.000  0.5481  3.2370  1.0793
  192SAPI  H15Y22310   5.916   1.279   4.943  0.4213  0.0864  0.4942
  192SAPI  C31622311   5.868   1.459   5.048 -0.2795 -0.7111  0.3473
  192SAPI  H16X22312   5.767   1.452   5.001  0.2656 -2.3083 -0.6903
  192SAPI  H16Y22313   5.900   1.565   5.039  0.9597 -1.1756 -1.1784
  192SAPI  C31722314   5.851   1.414   5.192  0.6177 -0.5410  0.6459
  192SAPI  H17X22315   5.815   1.309   5.190 -0.5564 -0.1476 -1.3382
  192SAPI  H17Y22316   5.771   1.471   5.244  2.9453  1.2613  2.4971
  192SAPI  C31822317   5.977   1.424   5.281  0.1320  0.6151  0.6424
  192SAPI  H18X22318   6.045   1.337   5.267 -0.2543  0.0811  1.9523
  192SAPI  H18Y22319   5.948   1.410   5.387  2.0680 -2.0136  0.9181
  192SAPI  H18Z22320   6.043   1.513   5.268  0.5300  0.1358 -0.9056
  193SOD    SOD22321   1.045   4.198   8.250  0.3088  0.0227  0.5538
  194SOD    SOD22322   5.431   5.436   8.263  0.2879  0.4775  0.2459
  195SOD    SOD22323   1.418   2.512   8.651  0.1700 -0.5037 -0.5425
  196SOD    SOD22324   4.109   2.091   2.851  0.2309 -0.2369 -0.4850
  197SOD    SOD22325   1.221   1.901   7.698  0.0969  0.1259  0.2546
  198SOD    SOD22326   0.032   2.703   9.685 -0.4073 -0.2704 -0.3419
  199SOD    SOD22327   0.342   6.231   0.230  0.1378 -0.2052 -0.0659
  200SOD    SOD22328   1.971   3.550   7.954  0.1023 -0.2728 -0.4601
  201SOD    SOD22329   5.936   6.121   2.573 -0.1509  0.0884 -0.1267
  202SOD    SOD22330   2.012   2.602   3.015 -0.7168 -0.0475  0.4376
  203SOD    SOD22331   2.946   0.253   0.728  0.2589  0.1288 -0.1928
  204SOD    SOD22332   3.833   3.146   0.127  0.6999 -0.3721 -0.5196
  205SOD    SOD22333   2.370   3.724   9.688 -0.4558 -0.1163 -0.3388
  206SOD    SOD22334   1.522   2.466   1.361 -0.3304 -0.4193  0.0163
  207SOD    SOD22335   0.062   1.551   1.821  0.3023 -0.3417  0.3547
  208SOD    SOD22336   1.616   3.470   8.997 -0.5011 -0.1925  0.0856
  209SOD    SOD22337   6.361   0.269   8.493  0.0628  0.1567  0.3538
  210SOD    SOD22338   0.987   0.356   8.406 -0.0026  0.7165  0.1178
  211SOD    SOD22339   5.665   3.549   0.810 -0.0639 -0.0416 -0.3659
  212SOD    SOD22340   1.937   2.991   3.117 -0.3483 -0.0911  0.3301
  213SOD    SOD22341   3.848   1.272   0.102  0.4599 -0.2926  0.0955
  214SOD    SOD22342   6.410   4.677   3.224 -0.0074 -0.2780  0.0208
  215SOD    SOD22343   4.854   3.772   3.389  0.5533 -0.1099 -0.1122
  216SOD    SOD22344   1.106   5.393   2.767 -0.2531  0.1087 -0.1075
  217SOD    SOD22345   0.751   3.622   7.704 -0.3813  0.3408  0.4083
  218SOD    SOD22346   4.787   2.742   8.861  0.1968 -0.3586  0.2084
  219SOD    SOD22347   2.464   3.014   2.435  0.2498 -0.2667  0.3339
  220SOD    SOD22348   2.141   3.773   3.157  0.5489  0.0657  0.0720
  221SOD    SOD22349   0.089   5.313   9.572 -0.3487 -0.0061 -0.0418
  222SOD    SOD22350   2.483   3.430  10.002 -0.2105 -0.3347  0.1413
  223SOD    SOD22351   1.272   3.658   3.000  0.2028  0.1868 -0.0419
  224SOD    SOD22352   5.447   0.851   9.000 -0.2723 -0.0137 -0.1831
  225SOD    SOD22353   5.559   2.196   0.123  0.2666 -0.1572  0.3837
  226SOD    SOD22354   2.566   3.060   1.467  0.2673  0.0695 -0.1077
  227SOD    SOD22355   1.676   0.772   9.791 -0.4160 -0.3123 -0.1067
  228SOD    SOD22356   0.156   5.186   1.506  0.0831  0.0991  0.0067
  229SOD    SOD22357   1.272   4.073   1.838  0.0459 -0.4049  0.2518
  230CLA    CLA22358   1.307   5.229   9.887 -0.0355 -0.0345 -0.0067
  231CLA    CLA22359   1.930   4.233   9.393 -0.1241  0.6600  0.2912
  232CLA    CLA22360   6.076   5.596   1.205 -0.2377  0.3265  0.3037
  233CLA    CLA22361   3.046   3.934   9.443  0.1196  0.0685 -0.0686
  234CLA    CLA22362   3.378   6.194   9.637 -0.0449 -0.0977  0.4782
  235CLA    CLA22363   5.085   0.078   2.025 -0.2416 -0.3861 -0.0539
  236CLA    CLA22364   4.676   4.457   1.032 -0.2177 -0.2598  0.5409
  237CLA    CLA22365   0.166   6.146   0.909 -0.0174 -0.0740  0.4063
  238CLA    CLA22366   2.359   2.513   9.099 -0.3680 -0.1598 -0.8936
  239CLA    CLA22367   1.615   6.351   8.381 -0.2906 -0.0093 -0.0228
  240CLA    CLA22368   6.120   1.077   9.564  0.1285  0.0682  0.2613
  241CLA    CLA22369   4.792   3.970   2.190 -0.3006  0.1029  0.1198
  242CLA    CLA22370   6.289   1.017   8.433  0.1121 -0.0913  0.0718
  243CLA    CLA22371   4.616   1.549   0.055 -0.0890 -0.0772 -0.2312
  244CLA    CLA22372   5.583   3.623   9.017  0.0624 -0.0090 -0.5166
  245CLA    CLA22373   1.743   2.545   1.204  0.1331  0.3341  0.0932
  246CLA    CLA22374   2.756   4.948   2.391 -0.1497 -0.3478 -0.2437
  247TIP3   OH222375   0.957   4.325   0.061  0.4241 -0.0971 -0.1133
  247TIP3    H122376   0.942   4.405   0.112  1.0921 -1.0642  1.6667
  247TIP3    H222377   0.979   4.357  -0.027  0.3288  1.6542  0.4596
  248TIP3   OH222378   3.547   3.086   1.131 -0.4574  0.0020 -0.5591
  248TIP3    H122379   3.641   3.098   1.148 -0.8226  1.3933  0.5880
  248TIP3    H222380   3.536   3.114   1.040  0.5919 -2.4209 -1.5377
  249TIP3   OH222381   0.076   3.519   0.728  0.4597  0.2862  0.4939
  249TIP3    H122382   0.103   3.505   0.637  0.2256  0.2657  0.4275
  249TIP3    H222383   0.053   3.612   0.732 -0.8255 -0.0073  0.1902
  250TIP3   OH222384   2.823   2.274   0.742 -0.1705 -0.2347 -0.4253
  250TIP3    H122385   2.910   2.246   0.772 -0.0432 -0.1809 -0.7348
  250TIP3    H222386   2.815   2.238   0.654 -0.0848  0.5211 -0.7575
  251TIP3   OH222387   3.279   1.368   2.039  0.2497 -0.0649 -0.2381
  251TIP3    H122388   3.277   1.398   1.948 -2.6375 -0.0306 -0.2676
  251TIP3    H222389   3.250   1.445   2.089  1.5158 -0.1772  0.6972
  252TIP3   OH222390   3.110   1.059  10.011 -0.1192  0.1823  0.3325
  252TIP3    H122391   3.038   1.021  10.061 -0.0458  3.2955  3.1717
  252TIP3    H222392   3.188   1.038  10.062  0.5005  0.1323 -0.6085
  253TIP3   OH222393   5.680   4.523   8.986  0.2069  0.1545 -0.3634
  253TIP3    H122394   5.644   4.454   8.930 -1.2088  1.3694 -1.0286
  253TIP3    H222395   5.763   4.488   9.018 -0.4516 -1.8304 -0.6980
  254TIP3   OH222396   2.108   5.929   9.238  0.1299 -0.4211  0.0844
  254TIP3    H122397   2.107   6.023   9.253 -0.4179 -0.5918  1.2624
  254TIP3    H222398   2.192   5.899   9.272  0.7407 -0.2488 -1.2017
  255TIP3   OH222399   2.711   4.884   0.009 -0.2609  0.2790 -0.0369
  255TIP3    H122400   2.655   4.881   0.086 -0.0928  0.9452  0.1098
  255TIP3    H222401   2.650   4.892  -0.065 -0.4719 -1.2592 -0.0590
  256TIP3   OH222402   0.378   1.665   7.746 -0.4970 -0.0076  0.2613
  256TIP3    H122403   0.288   1.651   7.716  0.1397  0.2456 -1.9038
  256TIP3    H222404   0.421   1.581   7.730  0.2643  0.6273 -1.1017
  257TIP3   OH222405   5.379   5.079   0.293 -0.0019  0.1043 -0.0073
  257TIP3    H122406   5.346   5.057   0.206 -1.3432  0.2962  0.4353
  257TIP3    H222407   5.469   5.107   0.277 -0.2378  0.1935 -1.3471
  258TIP3   OH222408   4.118   3.635  10.009  0.2662 -0.6177  0.5376
  258TIP3    H122409   4.070   3.617  10.090  0.0679 -3.8358 -0.1511
  258TIP3    H222410   4.210   3.635  10.035  0.1338  1.6897  1.2212
  259TIP3   OH222411   4.254   2.371   1.319  0.8005  0.8877 -0.0395
  259TIP3    H122412   4.237   2.317   1.242 -0.7346  0.6069  0.4619
  259TIP3    H222413   4.168   2.386   1.357  1.5446  0.8080  1.7752
  260TIP3   OH222414   5.159   2.388   0.166 -0.5217  0.3319 -0.0713
  260TIP3    H122415   5.113   2.446   0.105 -0.5723 -1.0635 -1.4077
  260TIP3    H222416   5.089   2.346   0.216 -0.5652  0.1219 -0.3108
  261TIP3   OH222417   3.370   6.172   8.602 -0.2112  0.0449  0.2068
  261TIP3    H122418   3.330   6.122   8.531  0.2044  1.2586 -0.9164
  261TIP3    H222419   3.364   6.114   8.678 -1.4231 -0.9576 -0.6089
  262TIP3   OH222420   1.688   3.983   0.932 -0.1520 -0.3321  0.3176
  262TIP3    H122421   1.675   4.074   0.958  2.1500 -0.2175  1.2703
  262TIP3    H222422   1.685   3.985   0.836  1.0935  0.9821  0.2784
  263TIP3   OH222423   2.383   2.111   0.139 -0.2679 -1.0476  0.5907
  263TIP3    H122424   2.399   2.118   0.045 -0.9564 -0.5074  0.5007
  263TIP3    H222425   2.292   2.140   0.150 -0.7138 -2.5513  1.2310
  264TIP3   OH222426   2.404   3.228   2.844  0.4489  0.5516  0.0214
  264TIP3    H122427   2.392   3.140   2.880 -0.1210  0.6829  0.1684
  264TIP3    H222428   2.486   3.259   2.883  0.7234  0.0345 -0.1427
  265TIP3   OH222429   6.052   1.149   9.911 -0.2595  0.7587  0.2830
  265TIP3    H122430   6.137   1.116   9.880 -1.0448  0.3873 -1.6534
  265TIP3    H222431   6.057   1.143  10.006  0.5465 -2.8385  0.1700
  266TIP3   OH222432   4.561   0.740   2.008  0.3111 -0.1396  0.0529
  266TIP3    H122433   4.468   0.760   2.002  0.6095  1.0599 -0.9563
  266TIP3    H222434   4.565   0.660   2.060 -1.1937  0.4840  1.2088
  267TIP3   OH222435   5.107   6.226   9.380  0.1970  0.1613 -0.2696
  267TIP3    H122436   5.119   6.145   9.329  1.3345  1.1753 -1.6982
  267TIP3    H222437   5.120   6.199   9.471  2.1590 -1.0154 -0.8330
  268TIP3   OH222438   3.704   3.436   2.611  0.0654  0.0551  0.1767
  268TIP3    H122439   3.797   3.451   2.599 -0.2115  0.3834 -1.9484
  268TIP3    H222440   3.667   3.524   2.621 -0.0181 -0.0808  1.1524
  269TIP3   OH222441   2.732   2.741   0.737  0.8216 -0.6021 -0.5494
  269TIP3    H122442   2.782   2.809   0.693  0.3441  0.2443  0.1813
  269TIP3    H222443   2.793   2.669   0.747  1.1257 -0.5800 -1.9947
  270TIP3   OH222444   0.837   3.175   0.673 -0.3204 -0.3404  0.6089
  270TIP3    H122445   0.855   3.082   0.678 -2.2443 -1.0002 -2.1675
  270TIP3    H222446   0.746   3.183   0.702 -1.2729  0.0738 -2.1775
  271TIP3   OH222447   1.511   1.075   8.733 -0.0761 -0.3002 -0.1956
  271TIP3    H122448   1.532   0.987   8.703 -0.1485 -0.3400 -0.1290
  271TIP3    H222449   1.501   1.067   8.828  1.4926  0.0858  0.0240
  272TIP3   OH222450   5.823   0.100   2.830  0.6731 -0.2015  0.0251
  272TIP3    H122451   5.787   0.134   2.913  0.6675  0.0801 -0.0905
  272TIP3    H222452   5.795   0.164   2.765  1.4874  0.0859 -0.0480
  273TIP3   OH222453   1.966   0.210   8.295 -0.0762  0.4882 -0.8867
  273TIP3    H122454   1.937   0.292   8.334 -0.8978  0.8999 -2.3074
  273TIP3    H222455   2.045   0.233   8.245  0.3552  0.1718 -0.3696
  274TIP3   OH222456   3.728   4.665   0.961 -0.2816  0.4594  0.1456
  274TIP3    H122457   3.714   4.596   0.897  0.0087 -0.1802  0.7623
  274TIP3    H222458   3.796   4.631   1.019 -0.8232  0.8607  1.0348
  275TIP3   OH222459   1.358   0.195   9.621 -0.4410 -0.7001  0.6688
  275TIP3    H122460   1.431   0.136   9.604 -0.4194 -0.8315  1.2274
  275TIP3    H222461   1.339   0.233   9.535  1.5194  0.7844  0.8230
  276TIP3   OH222462   2.188   1.105   0.588  0.3963  0.2814  0.3141
  276TIP3    H122463   2.234   1.162   0.527 -0.6810  1.5919  0.6780
  276TIP3    H222464   2.229   1.121   0.672 -1.6565  2.6939  0.9682
  277TIP3   OH222465   0.199   3.275   1.450 -0.2098 -0.3884  0.3268
  277TIP3    H122466   0.186   3.180   1.460  0.5682 -0.4818  0.5119
  277TIP3    H222467   0.122   3.304   1.401  0.5777 -1.4616 -1.6329
  278TIP3   OH222468   0.714   5.775   9.611  0.2621 -0.4728 -0.4286
  278TIP3    H122469   0.750   5.810   9.693 -2.9815 -0.8603  1.3142
  278TIP3    H222470   0.742   5.838   9.544 -0.9428  2.6295  1.7550
  279TIP3   OH222471   4.249   4.623   2.364 -0.0322  0.0278 -0.1859
  279TIP3    H122472   4.250   4.668   2.449 -0.1427 -0.6822  0.1954
  279TIP3    H222473   4.327   4.569   2.365 -0.5719 -0.7654 -0.1051
  280TIP3   OH222474   0.688   2.041   9.913 -0.6052 -0.8060  0.5565
  280TIP3    H122475   0.625   1.988   9.863 -0.9435 -0.9270  1.1060
  280TIP3    H222476   0.773   2.019   9.874 -0.6336 -2.4173  1.3105
  281TIP3   OH222477   3.380   5.865   1.975 -0.3357  0.0851  0.5047
  281TIP3    H122478   3.383   5.895   2.066  0.8112 -1.7375  1.1086
  281TIP3    H222479   3.359   5.772   1.981  0.3866 -0.2061 -1.0569
  282TIP3   OH222480   6.215   4.417   9.056 -0.8396  0.0912  0.0608
  282TIP3    H122481   6.305   4.408   9.086 -1.0219  0.4533  0.7271
  282TIP3    H222482   6.214   4.373   8.971  0.7545  2.7457 -1.4778
  283TIP3   OH222483   3.249   2.199   9.563  0.2750 -0.4124  0.3645
  283TIP3    H122484   3.253   2.292   9.539  1.8429 -0.3178  0.8455
  283TIP3    H222485   3.198   2.158   9.493  0.5850  0.6312 -0.4945
  284TIP3   OH222486   3.410   4.281   2.784  0.3074  0.8186  0.4348
  284TIP3    H122487   3.481   4.316   2.838  1.4885 -2.3977  1.1934
  284TIP3    H222488   3.454   4.225   2.720 -1.4140  0.6168 -0.6341
  285TIP3   OH222489   4.103   0.321   2.516 -0.0271  0.2847  0.5294
  285TIP3    H122490   4.144   0.399   2.552  1.7025  0.3474 -1.3926
  285TIP3    H222491   4.098   0.260   2.590 -1.9540  2.3241  2.2175
  286TIP3   OH222492   1.042   6.155   8.114  0.3051 -0.5494  0.2276
  286TIP3    H122493   1.022   6.133   8.205 -0.7165  1.0129  0.4163
  286TIP3    H222494   1.018   6.077   8.064  0.8448 -1.4047  1.2819
  287TIP3   OH222495   0.484   4.382   8.247  0.4556 -0.4885  0.5419
  287TIP3    H122496   0.539   4.389   8.169 -1.0897 -0.9545 -0.6229
  287TIP3    H222497   0.420   4.315   8.226 -2.2642  1.8406  0.7762
  288TIP3   OH222498   1.641   4.398   7.425 -0.5575  0.3922  0.3833
  288TIP3    H122499   1.665   4.424   7.514 -2.0449 -0.1244  0.9630
  288TIP3    H222500   1.715   4.346   7.395 -0.3318 -0.0129  1.5865
  289TIP3   OH222501   5.060   5.472   7.871 -0.1041 -0.1277 -0.6166
  289TIP3    H122502   4.972   5.464   7.835  0.7900  1.5774 -3.5524
  289TIP3    H222503   5.052   5.532   7.944 -1.5202 -1.0000 -0.0118
  290TIP3   OH222504   1.975   4.834   1.260 -0.2872  0.2315  0.0050
  290TIP3    H122505   1.936   4.905   1.310  2.3387  1.2040  0.8631
  290TIP3    H222506   1.997   4.873   1.176 -3.9728 -1.1951 -1.8403
  291TIP3   OH222507   0.878   4.081   0.858  0.9294  0.0503  0.1088
  291TIP3    H122508   0.967   4.104   0.885  0.3713 -0.6295  2.8826
  291TIP3    H222509   0.823   4.144   0.905 -0.1158 -0.4370 -0.4446
  292TIP3   OH222510   0.140   1.788   9.263  0.6376 -0.0576  0.2011
  292TIP3    H122511   0.098   1.871   9.240 -2.1084 -1.8585 -2.0011
  292TIP3    H222512   0.131   1.782   9.358 -1.9870  0.8391  0.0917
  293TIP3   OH222513   4.203   1.674   0.859 -0.5929  0.5960  0.8566
  293TIP3    H122514   4.237   1.590   0.828 -1.0062  0.6350  0.2872
  293TIP3    H222515   4.169   1.717   0.781  1.1196  2.0305  0.8153
  294TIP3   OH222516   3.360   3.743   9.812 -0.0938 -0.3120  0.0596
  294TIP3    H122517   3.271   3.735   9.777  0.4255  0.2881 -1.4599
  294TIP3    H222518   3.381   3.836   9.804  0.5494 -0.3859  0.7629
  295TIP3   OH222519   2.252   4.573   2.212  0.2793  0.5731  0.0738
  295TIP3    H122520   2.313   4.645   2.195 -0.4695  0.6578 -2.9950
  295TIP3    H222521   2.294   4.496   2.173 -0.1968 -0.0513  0.7558
  296TIP3   OH222522   3.561   1.039   9.028 -0.2479 -0.1174  0.2568
  296TIP3    H122523   3.609   1.069   8.951  0.6845  1.6073  1.4415
  296TIP3    H222524   3.470   1.033   8.999 -0.0979  1.6029 -0.7138
  297TIP3   OH222525   1.529   4.372   0.333  0.0929  0.2626 -0.2620
  297TIP3    H122526   1.559   4.422   0.409 -0.6237 -0.1944  0.3336
  297TIP3    H222527   1.454   4.323   0.365  0.2207 -0.4872 -1.0802
  298TIP3   OH222528   3.936   6.355   9.230  0.1111 -0.0289  0.6653
  298TIP3    H122529   3.943   6.290   9.159  0.8463  0.7315  0.0114
  298TIP3    H222530   3.865   6.413   9.202  1.1834  0.9764 -0.0763
  299TIP3   OH222531   2.256   5.542   8.321  0.1703 -0.1267 -0.1603
  299TIP3    H122532   2.289   5.490   8.394 -0.7142 -2.3448 -1.2321
  299TIP3    H222533   2.171   5.575   8.350  0.1587 -0.3711  0.0862
  300TIP3   OH222534   4.879   4.512   9.867 -0.3510 -0.3526  0.4673
  300TIP3    H122535   4.971   4.492   9.882 -0.1356 -1.0339 -1.4212
  300TIP3    H222536   4.877   4.605   9.846 -0.4148  0.1558  2.5223
  301TIP3   OH222537   0.612   5.770   1.601 -0.6113 -0.0566  0.2720
  301TIP3    H122538   0.606   5.816   1.518  0.6041 -0.3371  0.0076
  301TIP3    H222539   0.521   5.751   1.625 -1.0532  1.3447 -0.2355
  302TIP3   OH222540   1.543   6.379   0.209 -0.4838  0.0566 -0.0702
  302TIP3    H122541   1.540   6.474   0.221 -1.3590  0.0984 -0.5573
  302TIP3    H222542   1.499   6.364   0.125  1.1988 -0.6321 -0.8795
  303TIP3   OH222543   0.120   5.015   1.336 -0.0267 -0.1416 -0.0380
  303TIP3    H122544   0.090   4.927   1.360 -3.2688  1.2100  1.4822
  303TIP3    H222545   0.093   5.026   1.246  1.3348 -0.9814 -0.5909
  304TIP3   OH222546   5.966   4.549   9.458 -0.0245 -0.3692 -0.4298
  304TIP3    H122547   6.062   4.555   9.455  0.1368 -1.4611  1.0516
  304TIP3    H222548   5.948   4.455   9.457 -1.0569 -0.1888 -0.2472
  305TIP3   OH222549   1.410   4.518   3.176 -0.4010 -0.3772 -0.1860
  305TIP3    H122550   1.440   4.605   3.203 -1.2800 -0.4401  1.0480
  305TIP3    H222551   1.474   4.490   3.110 -0.7698  1.6956 -1.5054
  306TIP3   OH222552   2.298   4.743   1.877 -0.1018  0.2462 -0.0159
  306TIP3    H122553   2.242   4.699   1.813 -0.2958 -1.4674  1.2764
  306TIP3    H222554   2.279   4.836   1.865 -1.0655 -0.1188 -1.5679
  307TIP3   OH222555   1.917   5.797   9.952  0.6219  0.0036 -0.6023
  307TIP3    H122556   1.988   5.760  10.005  0.5869 -0.5627 -0.9410
  307TIP3    H222557   1.961   5.844   9.881  0.6619  0.0303 -0.5594
  308TIP3   OH222558   0.516   4.021   9.527 -0.2739  0.4359 -0.0655
  308TIP3    H122559   0.448   4.005   9.592 -0.4907  0.0112 -0.3920
  308TIP3    H222560   0.593   3.976   9.561 -0.3133  0.4386  0.0278
  309TIP3   OH222561   4.668   1.947   2.561 -0.2513 -0.0686  0.3811
  309TIP3    H122562   4.660   1.865   2.511 -0.3357  0.3003 -0.2183
  309TIP3    H222563   4.636   1.924   2.648 -0.0837 -0.7297  0.2782
  310TIP3   OH222564   2.004   3.038   1.332  0.5556  0.2311  0.0530
  310TIP3    H122565   2.085   3.020   1.284  0.5387  0.0702  0.0835
  310TIP3    H222566   1.935   2.999   1.279  0.4865  0.4515 -0.0212
  311TIP3   OH222567   4.167   1.238   3.088 -0.3339  0.0626  0.2871
  311TIP3    H122568   4.239   1.299   3.105  1.0278 -1.4463  0.2516
  311TIP3    H222569   4.182   1.167   3.151 -0.8173 -1.0664 -0.8478
  312TIP3   OH222570   2.580   3.401   0.353 -0.1453  0.5075  0.7521
  312TIP3    H122571   2.666   3.382   0.315  0.4695  0.6393  2.0333
  312TIP3    H222572   2.572   3.496   0.349 -0.7091  0.4313 -0.3322
  313TIP3   OH222573   1.306   1.378   8.821 -0.1785 -0.3069 -0.0716
  313TIP3    H122574   1.260   1.331   8.751  0.3157  0.0965 -0.6868
  313TIP3    H222575   1.392   1.398   8.783 -0.3835  1.1019  0.1459
  314TIP3   OH222576   6.341   5.191   1.579  0.0956 -0.1274 -0.6816
  314TIP3    H122577   6.307   5.277   1.554 -1.6975 -0.2067  1.1880
  314TIP3    H222578   6.280   5.128   1.541  1.2309 -0.6069 -1.7845
  315TIP3   OH222579   6.241   1.443   1.212  0.1710 -0.1456  0.0193
  315TIP3    H122580   6.150   1.418   1.198 -0.0341  0.3275  0.5040
  315TIP3    H222581   6.239   1.538   1.221  0.4774 -0.2783  1.7544
  316TIP3   OH222582   2.922   6.157   2.495  0.3612 -0.1333 -0.1118
  316TIP3    H122583   2.833   6.160   2.530  0.6107 -1.4797  0.7033
  316TIP3    H222584   2.913   6.112   2.411  0.5414 -2.6182  1.1004
  317TIP3   OH222585   0.858   1.471   9.546 -0.8137 -0.2193 -0.2625
  317TIP3    H122586   0.937   1.450   9.497 -0.1795  0.0067  0.6561
  317TIP3    H222587   0.790   1.415   9.507 -0.4659  0.3550 -1.7710
  318TIP3   OH222588   1.625   2.340   2.799  0.2495 -0.5025  0.3169
  318TIP3    H122589   1.555   2.405   2.793  1.4616  1.0287  1.6528
  318TIP3    H222590   1.579   2.256   2.807 -1.5530  0.5766  2.9545
  319TIP3   OH222591   1.636   4.669   2.208 -0.1773 -0.1437  0.0540
  319TIP3    H122592   1.636   4.755   2.166  2.0957 -0.8751 -1.6232
  319TIP3    H222593   1.702   4.676   2.277  0.3386 -0.6629 -0.3834
  320TIP3   OH222594   4.604   3.427   1.601 -0.6036 -0.2206 -0.3924
  320TIP3    H122595   4.645   3.439   1.515  2.1679  0.4885  0.8859
  320TIP3    H222596   4.533   3.491   1.602  0.1965  0.7587 -1.6679
  321TIP3   OH222597   5.073   1.761   9.088 -0.2313  0.4254  0.0873
  321TIP3    H122598   5.022   1.733   9.163  0.7140 -1.3974  0.0984
  321TIP3    H222599   5.046   1.704   9.017  1.6966 -0.5954  0.0932
  322TIP3   OH222600   6.385   6.201   0.580 -0.1698 -0.1463  0.0126
  322TIP3    H122601   6.407   6.122   0.631 -0.4531 -0.3116 -0.1205
  322TIP3    H222602   6.460   6.259   0.593  1.0013 -1.2415 -1.5458
  323TIP3   OH222603   0.926   0.959   8.941 -0.3253  0.8380 -0.2026
  323TIP3    H122604   0.885   1.036   8.982 -0.9507  0.0527  0.6977
  323TIP3    H222605   0.883   0.951   8.856 -0.7342  1.0966 -0.0264
  324TIP3   OH222606   1.577   2.659   2.238 -0.3013  0.0806  0.1072
  324TIP3    H122607   1.542   2.602   2.305 -0.2124 -0.7398 -0.5276
  324TIP3    H222608   1.532   2.633   2.157 -0.6285  1.2497 -0.1058
  325TIP3   OH222609   2.537   4.937   0.222  0.1858  0.0570  0.2546
  325TIP3    H122610   2.596   4.933   0.298 -1.7232 -0.3119  1.8070
  325TIP3    H222611   2.478   5.010   0.241 -0.9428 -0.6577 -0.3846
  326TIP3   OH222612   4.508   5.620   2.333 -0.1933  0.8161 -0.6099
  326TIP3    H122613   4.481   5.561   2.263 -0.2846  0.3678 -0.1978
  326TIP3    H222614   4.599   5.641   2.312  0.7555 -1.6535  0.6934
  327TIP3   OH222615   2.338   3.136   0.704  0.1000  0.5055 -0.3678
  327TIP3    H122616   2.303   3.134   0.616  1.8105 -0.1611 -1.0728
  327TIP3    H222617   2.428   3.166   0.693  0.7940 -0.9560  0.9708
  328TIP3   OH222618   3.925   4.180   1.376  0.3484 -0.7443  0.1784
  328TIP3    H122619   3.876   4.200   1.297 -1.5855  0.0728  1.4978
  328TIP3    H222620   3.999   4.241   1.375 -1.3336  1.4112  0.4419
  329TIP3   OH222621   1.440   1.411   9.783 -0.0484  0.2285  0.0428
  329TIP3    H122622   1.528   1.378   9.799 -0.7621 -2.4662 -0.9917
  329TIP3    H222623   1.389   1.382   9.858 -0.3664  0.4441 -0.0861
  330TIP3   OH222624   6.153   0.093   8.547  0.0491  0.6740  0.3850
  330TIP3    H122625   6.127   0.142   8.624  0.2381  0.8074  0.3627
  330TIP3    H222626   6.072   0.050   8.518  0.1213  0.0226  1.0866
  331TIP3   OH222627   5.059   4.044   2.725 -0.0812  0.7728  0.2491
  331TIP3    H122628   5.009   4.118   2.758  0.2277  0.1520  2.2015
  331TIP3    H222629   5.076   3.989   2.801 -0.7881 -1.6357 -1.1831
  332TIP3   OH222630   2.011   4.745   1.849  0.5484  0.0154 -0.1497
  332TIP3    H122631   2.023   4.659   1.808  1.4251  0.1348 -0.1686
  332TIP3    H222632   2.005   4.726   1.943 -0.7424 -0.1903 -0.2509
  333TIP3   OH222633   1.647   4.162   1.627 -0.3532  0.4112 -0.2516
  333TIP3    H122634   1.578   4.182   1.563 -1.4850 -0.0938  0.7545
  333TIP3    H222635   1.659   4.244   1.675 -0.0067  0.5921 -0.6408
  334TIP3   OH222636   5.319   4.742   9.816 -0.4219  0.5119 -0.2865
  334TIP3    H122637   5.349   4.666   9.866 -1.8699  0.1272  0.0447
  334TIP3    H222638   5.399   4.790   9.794  0.4656 -0.7899  0.0070
  335TIP3   OH222639   3.505   5.488   0.012 -0.0026  0.4924 -0.1251
  335TIP3    H122640   3.423   5.475   0.060  0.1886  1.1841  0.4061
  335TIP3    H222641   3.493   5.571  -0.035 -0.3168 -0.3350 -1.5752
  336TIP3   OH222642   3.210   5.044   3.324 -0.7701  0.0379  0.5382
  336TIP3    H122643   3.293   5.028   3.278 -1.4210  0.3815 -0.8204
  336TIP3    H222644   3.143   5.036   3.256 -1.6754  1.8162  1.1440
  337TIP3   OH222645   2.441   3.399   2.077 -0.4913  0.0818  0.7930
  337TIP3    H122646   2.523   3.444   2.056 -1.0447  0.3856 -0.8372
  337TIP3    H222647   2.384   3.468   2.111 -0.4938  0.1160  0.7184
  338TIP3   OH222648   1.073   1.948   9.192 -0.1477  0.5148  0.1849
  338TIP3    H122649   1.083   1.854   9.208  0.6750  0.4597 -0.5468
  338TIP3    H222650   1.001   1.955   9.130  1.2096  0.1456 -1.5406
  339TIP3   OH222651   5.216   3.532   1.452 -0.2278 -0.0145 -0.6730
  339TIP3    H122652   5.149   3.555   1.517 -0.4564  0.4760 -1.0802
  339TIP3    H222653   5.254   3.616   1.426  0.1849 -0.2491 -0.8386
  340TIP3   OH222654   6.417   1.023   2.212 -0.0525 -0.1879  0.2707
  340TIP3    H122655   6.459   0.946   2.173 -0.5094 -0.9179  1.1640
  340TIP3    H222656   6.364   0.987   2.283 -0.3523  0.9547  0.6407
  341TIP3   OH222657   3.050   1.338   1.550 -0.0789 -0.0965 -0.6337
  341TIP3    H122658   3.083   1.427   1.540 -0.5676  0.1912  0.2108
  341TIP3    H222659   2.957   1.344   1.528 -0.4834 -0.0542  0.9760
  342TIP3   OH222660   0.337   3.929   2.496  0.2344 -0.2887  0.1448
  342TIP3    H122661   0.279   3.865   2.454  1.0725 -0.1926 -1.2283
  342TIP3    H222662   0.301   3.940   2.584 -1.5379 -0.5931 -0.5000
  343TIP3   OH222663   5.152   2.253   1.597  0.1415 -0.4412 -0.4053
  343TIP3    H122664   5.097   2.327   1.623  0.5215 -0.5889  0.8886
  343TIP3    H222665   5.144   2.250   1.502 -1.4031  0.0690 -0.3187
  344TIP3   OH222666   0.021   0.375   7.660  0.0213 -0.5583  0.3356
  344TIP3    H122667  -0.041   0.392   7.589 -0.8411 -2.8553  0.4552
  344TIP3    H222668   0.004   0.445   7.723 -1.6234 -0.4242 -0.1886
  345TIP3   OH222669   0.521   2.625   9.643 -0.0334  0.3467  0.0937
  345TIP3    H122670   0.450   2.560   9.645 -1.4291  1.7708 -0.7485
  345TIP3    H222671   0.583   2.590   9.579 -0.9931  0.0395 -0.7008
  346TIP3   OH222672   4.582   6.277   2.530  0.1967  0.1434 -0.8694
  346TIP3    H122673   4.489   6.266   2.549  0.1436  0.1430 -1.1339
  346TIP3    H222674   4.624   6.202   2.573  0.3118  1.2285  1.0182
  347TIP3   OH222675   3.861   5.617   1.029  0.2442 -0.2398 -0.4271
  347TIP3    H122676   3.872   5.712   1.021  0.4423 -0.3169 -1.1495
  347TIP3    H222677   3.821   5.591   0.945 -1.1234 -0.6072  0.3061
  348TIP3   OH222678   1.707   5.993   1.211  0.1194  0.5092  0.6798
  348TIP3    H122679   1.725   6.067   1.269  0.2408  1.4574 -0.5407
  348TIP3    H222680   1.638   6.024   1.152  2.5008  0.9910 -2.1170
  349TIP3   OH222681   3.298   0.438   9.323  0.1006 -0.0890 -0.6045
  349TIP3    H122682   3.219   0.456   9.272 -0.5320  1.8450  0.9317
  349TIP3    H222683   3.267   0.406   9.407  0.9644  0.2199 -0.1486
  350TIP3   OH222684   2.399   5.022   1.445  0.1540 -0.4709 -0.0802
  350TIP3    H122685   2.308   5.009   1.473 -0.1836  0.5990 -0.5970
  350TIP3    H222686   2.426   4.937   1.412  0.0565 -1.3672  2.0126
  351TIP3   OH222687   0.054   3.269   9.895 -0.5308  0.3767  0.1507
  351TIP3    H122688   0.024   3.358   9.874 -0.0156  1.1883  2.5421
  351TIP3    H222689  -0.025   3.215   9.889 -0.9062  1.0136 -1.0768
  352TIP3   OH222690   5.900   2.509   8.456 -0.5406  0.3996  0.4335
  352TIP3    H122691   5.907   2.438   8.392  0.0141 -0.5350  1.5185
  352TIP3    H222692   5.905   2.589   8.403 -0.5501 -0.3548 -0.7353
  353TIP3   OH222693   0.957   2.228   9.420 -0.6886 -0.3304 -0.1577
  353TIP3    H122694   0.865   2.228   9.446 -0.0334 -2.7375  2.6239
  353TIP3    H222695   0.965   2.156   9.358 -0.8834  0.8804 -1.6632
  354TIP3   OH222696   4.056   4.028   9.605 -0.1206  0.1986 -0.0411
  354TIP3    H122697   3.997   3.995   9.672 -0.1876  0.1044 -0.1457
  354TIP3    H222698   4.046   4.123   9.610 -0.2640  0.1844 -0.0425
  355TIP3   OH222699   1.991   3.048   9.625  0.0361 -0.0634  0.0148
  355TIP3    H122700   1.916   3.084   9.577  0.2769 -0.2495 -0.4972
  355TIP3    H222701   2.021   2.975   9.572  2.3208  1.6684 -1.2500
  356TIP3   OH222702   2.964   4.493   9.411 -0.1483 -0.2250  0.0956
  356TIP3    H122703   3.022   4.469   9.338 -1.3302  1.1696 -1.3510
  356TIP3    H222704   2.919   4.411   9.434 -0.4596 -0.4850 -1.3879
  357TIP3   OH222705   4.959   5.337   0.056  0.6924 -0.5130 -0.3350
  357TIP3    H122706   4.959   5.242   0.049 -0.7697 -0.4025 -2.3846
  357TIP3    H222707   5.049   5.363   0.036  1.0812 -1.4259  0.1797
  358TIP3   OH222708   1.554   1.303   2.412  0.4205  0.1535  0.2137
  358TIP3    H122709   1.602   1.223   2.392  0.7999  0.2668  0.6485
  358TIP3    H222710   1.476   1.299   2.356  0.0243 -0.8946  0.8206
  359TIP3   OH222711   0.305   0.617   0.956 -0.2618 -0.2941  0.1552
  359TIP3    H122712   0.253   0.588   0.880  0.1324 -1.8046  0.4413
  359TIP3    H222713   0.392   0.633   0.921 -0.6569  1.4310 -0.1583
  360TIP3   OH222714   3.111   2.051   9.365  0.6403  0.1847  0.3869
  360TIP3    H122715   3.116   1.964   9.326  1.6225 -0.8525  2.6695
  360TIP3    H222716   3.068   2.104   9.298 -1.4334 -2.3674 -0.4739
  361TIP3   OH222717   5.192   3.847   0.274  0.3422  0.3968 -0.4615
  361TIP3    H122718   5.177   3.801   0.191  1.4862 -0.0269 -0.4522
  361TIP3    H222719   5.277   3.890   0.261  1.1020 -0.6253  0.8950
  362TIP3   OH222720   5.931   4.166   0.284 -0.8821 -0.4430 -0.4755
  362TIP3    H122721   5.922   4.095   0.220 -0.6534 -0.9659  0.0600
  362TIP3    H222722   5.950   4.121   0.366  0.4409  0.2924 -0.3546
  363TIP3   OH222723   3.628   4.780   1.341  0.1127  0.2832 -0.2700
  363TIP3    H122724   3.661   4.798   1.429  4.0729  1.9124 -1.8391
  363TIP3    H222725   3.613   4.867   1.303 -2.6850 -0.4041 -0.9085
  364TIP3   OH222726   5.913   2.200   1.932 -0.4973 -0.7372 -0.7067
  364TIP3    H122727   5.872   2.126   1.977 -1.1554 -0.2221 -0.4318
  364TIP3    H222728   5.845   2.267   1.931 -0.8576 -1.0458 -3.3237
  365TIP3   OH222729   0.770   4.437   9.324  0.2857  0.4340  0.5064
  365TIP3    H122730   0.715   4.372   9.367 -0.0773  1.3904  1.5306
  365TIP3    H222731   0.711   4.509   9.302  0.6227  0.3230 -0.8921
  366TIP3   OH222732   6.088   3.991   9.884  0.0044  0.1735  0.2238
  366TIP3    H122733   6.157   3.994   9.949  0.4129 -0.5474 -0.1586
  366TIP3    H222734   6.134   3.983   9.800 -0.5216 -1.5026  0.0438
  367TIP3   OH222735   5.714   0.461   9.815 -0.0640 -0.0311  0.2297
  367TIP3    H122736   5.732   0.378   9.770  1.8725  1.6660 -2.4091
  367TIP3    H222737   5.793   0.513   9.802 -1.6968  2.7417  0.5934
  368TIP3   OH222738   0.824   3.848   0.102  0.4378  0.0832  0.1494
  368TIP3    H122739   0.829   3.778   0.037  0.5182  0.4469 -0.2394
  368TIP3    H222740   0.841   3.928   0.052  0.1932  0.3940  0.5608
  369TIP3   OH222741   6.005   4.932   8.250  0.3417  0.6230 -0.1570
  369TIP3    H122742   5.942   4.965   8.314 -0.0949  1.6241 -1.0691
  369TIP3    H222743   5.992   4.987   8.172  1.3945 -0.0475 -0.8433
  370TIP3   OH222744   6.374   6.219   0.041  0.3502 -0.1745  0.3444
  370TIP3    H122745   6.427   6.282   0.089  1.1807 -0.4193 -0.2293
  370TIP3    H222746   6.306   6.271  -0.001  0.4428  0.2097  0.6692
  371TIP3   OH222747   5.184   5.160   9.838 -0.0730  0.4158  0.1552
  371TIP3    H122748   5.196   5.068   9.813  1.0023  0.9122 -1.3100
  371TIP3    H222749   5.126   5.156   9.914  0.4775 -1.5055  0.5500
  372TIP3   OH222750   1.017   4.719   2.487 -0.4873  0.1993  0.2782
  372TIP3    H122751   1.087   4.655   2.495 -1.9565 -1.2824  2.1616
  372TIP3    H222752   0.941   4.678   2.529 -1.9979  2.4662 -0.0271
  373TIP3   OH222753   4.958   0.602   1.682  0.2038 -0.5379  0.0045
  373TIP3    H122754   4.985   0.520   1.641  0.4631 -0.5842  0.2628
  373TIP3    H222755   5.019   0.614   1.755  1.3360  0.8076 -1.0962
  374TIP3   OH222756   5.778   0.028   2.162 -0.3606  0.5674  0.3358
  374TIP3    H122757   5.873   0.032   2.169 -0.3005 -1.5313  2.2159
  374TIP3    H222758   5.747   0.114   2.191  0.9414  0.8216  1.0156
  375TIP3   OH222759   5.535   2.227   9.610 -0.4551  0.2927 -0.2629
  375TIP3    H122760   5.603   2.282   9.569 -1.4713  1.1058 -0.9171
  375TIP3    H222761   5.556   2.138   9.583  1.3321  0.3021  0.9504
  376TIP3   OH222762   2.503   3.393   9.177  0.2309  0.2953 -0.1852
  376TIP3    H122763   2.467   3.311   9.213 -2.6337  1.6900  0.3955
  376TIP3    H222764   2.535   3.368   9.090 -2.5150 -1.1144 -0.9193
  377TIP3   OH222765   0.986   2.884   8.240 -0.1243 -0.1628 -0.1056
  377TIP3    H122766   0.950   2.802   8.274  0.0892 -0.1678  0.1112
  377TIP3    H222767   0.958   2.887   8.149 -1.8976  0.5255  0.4316
  378TIP3   OH222768   0.019   4.538   8.858 -0.2314 -0.4757 -0.2126
  378TIP3    H122769  -0.066   4.576   8.877 -0.0223 -0.5795  1.0451
  378TIP3    H222770   0.077   4.612   8.843 -0.7411 -0.4270 -2.0655
  379TIP3   OH222771   0.101   3.162   2.599  0.0354  0.9301  0.0891
  379TIP3    H122772   0.159   3.175   2.674  0.0293 -1.5789  0.6115
  379TIP3    H222773   0.051   3.083   2.621 -1.3497  1.2476 -1.7214
  380TIP3   OH222774   0.812   3.757   0.634  0.0171 -0.2527  0.3812
  380TIP3    H122775   0.835   3.754   0.541 -1.4341 -0.0885  0.0026
  380TIP3    H222776   0.766   3.675   0.650  1.0614 -0.6950  1.1911
  381TIP3   OH222777   6.156   5.242   0.082 -0.2136 -0.3253 -0.0804
  381TIP3    H122778   6.129   5.173   0.022 -1.8181 -0.0520  0.3033
  381TIP3    H222779   6.130   5.212   0.169 -0.3164  0.4596  0.1687
  382TIP3   OH222780   2.661   5.136   1.550  0.1527 -0.2062 -0.1138
  382TIP3    H122781   2.586   5.137   1.490 -0.1460 -2.9052  0.0898
  382TIP3    H222782   2.697   5.048   1.542  4.3134  1.3939 -1.2964
  383TIP3   OH222783   2.455   1.869   0.197  0.3646 -0.1961 -0.1139
  383TIP3    H122784   2.537   1.897   0.237  0.7106 -1.7734  0.3467
  383TIP3    H222785   2.415   1.950   0.164  1.7036  0.6919  0.3797
  384TIP3   OH222786   1.940   5.160   2.550 -0.3603  0.1302 -0.0254
  384TIP3    H122787   1.906   5.160   2.640  1.4840 -1.5822  0.7683
  384TIP3    H222788   1.952   5.252   2.529 -0.2161  0.5693  1.7675
  385TIP3   OH222789   3.062   2.548   2.408 -0.0816 -0.3147 -0.2792
  385TIP3    H122790   3.014   2.568   2.488  0.9034 -0.5528  0.3908
  385TIP3    H222791   3.083   2.633   2.370 -0.7194 -0.2051 -0.3840
  386TIP3   OH222792   0.728   3.648   3.123  0.3687  0.6343 -0.1425
  386TIP3    H122793   0.747   3.607   3.207 -1.6411 -2.1629 -0.8915
  386TIP3    H222794   0.675   3.724   3.145 -0.1404 -0.0567  1.1432
  387TIP3   OH222795   2.224   1.900   0.859  0.3433  0.1256  0.2188
  387TIP3    H122796   2.234   1.957   0.783 -1.5168  0.9524  0.5341
  387TIP3    H222797   2.198   1.815   0.823  2.0649 -0.2576 -0.1898
  388TIP3   OH222798   0.668   5.263   9.973 -0.3666  0.6736  0.5429
  388TIP3    H122799   0.691   5.239   9.883 -1.3306  0.7401  0.2627
  388TIP3    H222800   0.752   5.271  10.018  0.1110  0.1138 -0.2158
  389TIP3   OH222801   3.330   4.873   3.137  0.6754  0.0485 -0.2447
  389TIP3    H122802   3.425   4.881   3.143  0.6623  0.0434 -0.0374
  389TIP3    H222803   3.308   4.802   3.198  0.4634  0.5240  0.2420
  390TIP3   OH222804   4.259   3.773   3.875 -0.0401 -0.3549 -0.0914
  390TIP3    H122805   4.284   3.767   3.967 -1.8589  1.1300  0.5606
  390TIP3    H222806   4.341   3.763   3.827  1.0456 -0.4810  1.7049
  391TIP3   OH222807   0.736   5.368   1.337  0.1684 -0.1086 -0.2130
  391TIP3    H122808   0.739   5.447   1.392 -0.9133 -0.3855  0.2721
  391TIP3    H222809   0.678   5.392   1.264 -2.3798 -1.2187  1.2941
  392TIP3   OH222810   3.957   3.390   3.073 -0.0651 -0.7739 -0.5520
  392TIP3    H122811   3.876   3.436   3.051  0.0040 -1.1096 -1.5476
  392TIP3    H222812   3.928   3.313   3.123 -0.2631 -0.2552  0.1427
  393TIP3   OH222813   3.612   0.774   1.162 -0.6760 -0.6623  0.1111
  393TIP3    H122814   3.664   0.696   1.145 -0.1621 -0.6928  1.6882
  393TIP3    H222815   3.618   0.787   1.257  0.0700  1.8629 -0.2105
  394TIP3   OH222816   6.103   2.889   0.984  0.0360 -0.4367 -0.7192
  394TIP3    H122817   6.033   2.830   0.955  0.9355 -0.8673 -2.1032
  394TIP3    H222818   6.108   2.875   1.079  0.1464 -2.5393 -0.9881
  395TIP3   OH222819   4.222   3.800   4.149 -0.0523 -0.5558 -0.4376
  395TIP3    H122820   4.304   3.850   4.154  0.4175 -1.1653 -1.6155
  395TIP3    H222821   4.186   3.804   4.238  0.9549  0.2176 -0.0417
  396TIP3   OH222822   5.357   3.718   0.848 -0.2379 -0.1118  0.3115
  396TIP3    H122823   5.330   3.798   0.803  0.2201 -1.2020 -2.0450
  396TIP3    H222824   5.301   3.714   0.925 -2.7618  0.6824 -1.3679
  397TIP3   OH222825   6.286   6.234   2.224  0.0051  0.4300  0.2575
  397TIP3    H122826   6.227   6.213   2.296 -0.9988 -1.0253 -0.9197
  397TIP3    H222827   6.327   6.150   2.201 -0.9812  0.4828 -1.9324
  398TIP3   OH222828   1.324   2.878   8.871  0.0469 -0.3245 -0.0420
  398TIP3    H122829   1.240   2.851   8.835 -0.2262  0.0504  0.3041
  398TIP3    H222830   1.387   2.860   8.801 -0.2461 -1.0781 -0.1127
  399TIP3   OH222831   0.991   5.716   7.109  0.6611 -0.0213 -0.3377
  399TIP3    H122832   1.069   5.725   7.055  0.7700 -1.0708 -0.3820
  399TIP3    H222833   0.922   5.761   7.059  0.1002 -3.2511 -2.8117
  400TIP3   OH222834   0.903   0.275   6.748 -0.3719  0.4928  0.0455
  400TIP3    H122835   0.912   0.330   6.826 -0.0835  1.0104 -0.3405
  400TIP3    H222836   0.979   0.298   6.694 -1.3932  1.3144 -1.0918
  401TIP3   OH222837   3.880   5.496   0.577  0.6150  0.0589  0.3105
  401TIP3    H122838   3.832   5.521   0.498 -0.4734 -0.2622  0.8602
  401TIP3    H222839   3.933   5.421   0.551  1.5421  0.9635 -0.5351
  402TIP3   OH222840   0.623   3.234   3.036  0.5012 -0.0921 -0.0860
  402TIP3    H122841   0.536   3.209   3.068  1.1518  1.2361  3.0900
  402TIP3    H222842   0.676   3.154   3.047  0.3236 -0.1134  0.6255
  403TIP3   OH222843   1.092   0.716   0.938 -0.5789  0.0084 -0.4034
  403TIP3    H122844   1.136   0.740   1.019  0.1042 -0.0639 -0.7474
  403TIP3    H222845   1.061   0.799   0.902  2.1626  0.5367 -1.8156
  404TIP3   OH222846   2.126   4.989   9.298 -0.0903 -0.3633  0.5476
  404TIP3    H122847   2.118   5.084   9.304  1.8929 -0.1254  0.2484
  404TIP3    H222848   2.203   4.976   9.244  0.1136 -2.1387  1.2152
  405TIP3   OH222849   3.805   5.902   9.737  0.0844  0.0560 -0.4973
  405TIP3    H122850   3.810   5.918   9.643  0.8505 -1.8084 -0.8199
  405TIP3    H222851   3.896   5.899   9.766  0.1575 -3.8306 -0.6134
  406TIP3   OH222852   2.123   0.172   9.441  0.1356  0.2958 -0.1532
  406TIP3    H122853   2.123   0.202   9.349  0.7840  1.0684  0.0879
  406TIP3    H222854   2.213   0.185   9.471  0.2352 -1.1259  0.2424
  407TIP3   OH222855   0.275   3.681   9.055 -0.0482  0.8740 -0.1610
  407TIP3    H122856   0.284   3.776   9.055 -1.9872  1.1076  0.4801
  407TIP3    H222857   0.180   3.666   9.062  0.1868 -1.1019 -0.5938
  408TIP3   OH222858   3.826   0.970   8.876  0.0916  0.0708  0.5652
  408TIP3    H122859   3.888   0.933   8.813 -0.3956  2.6442 -1.5962
  408TIP3    H222860   3.756   1.007   8.822 -2.1029 -0.4865  2.8126
  409TIP3   OH222861   5.973   0.559   1.727  0.0264 -0.1914 -0.9849
  409TIP3    H122862   5.979   0.590   1.818  0.0825 -0.0254 -1.0457
  409TIP3    H222863   6.017   0.626   1.676 -0.0159 -0.2803 -1.1374
  410TIP3   OH222864   6.198   4.729   0.998 -0.5767  0.6320  0.2420
  410TIP3    H122865   6.165   4.761   0.914  0.8157 -0.3927 -0.7265
  410TIP3    H222866   6.286   4.765   1.004 -1.1030  1.7750  1.9150
  411TIP3   OH222867   1.512   1.993   0.066  0.0662 -0.4874 -0.0550
  411TIP3    H122868   1.480   2.001  -0.024  1.3943 -0.3338 -0.5306
  411TIP3    H222869   1.595   1.947   0.058  0.0070 -0.8338  1.1468
  412TIP3   OH222870   1.866   1.660   8.959  0.0483 -0.0658 -0.5777
  412TIP3    H122871   1.787   1.623   8.918  0.1288  0.6423 -1.3894
  412TIP3    H222872   1.834   1.699   9.040  0.3800 -4.5224  2.0341
  413TIP3   OH222873   4.894   4.292   9.707 -0.4989  0.2435  0.3555
  413TIP3    H122874   4.861   4.370   9.752  0.5450  0.3689  0.9214
  413TIP3    H222875   4.989   4.297   9.717 -0.3535 -0.5402 -0.5415
  414TIP3   OH222876   3.934   3.995   3.385  0.1438  0.7668 -0.1609
  414TIP3    H122877   3.955   4.042   3.305  1.2518 -1.2326 -1.0960
  414TIP3    H222878   3.839   4.008   3.396  0.0237  1.2842 -1.6207
  415TIP3   OH222879   0.636   4.679   1.034  0.1361 -0.0599  1.0621
  415TIP3    H122880   0.596   4.699   1.119 -0.1265  1.1884  0.6653
  415TIP3    H222881   0.698   4.750   1.020 -1.3578  0.9767 -0.7529
  416TIP3   OH222882   4.739   0.204   9.191  0.3516 -0.0719  0.8822
  416TIP3    H122883   4.797   0.233   9.120 -0.3334 -0.4784  0.1453
  416TIP3    H222884   4.799   0.175   9.260  1.0321 -0.3046  0.2157
  417TIP3   OH222885   4.057   0.612   0.847  0.4906  0.0082  0.2728
  417TIP3    H122886   4.092   0.612   0.937 -0.6454 -0.3060  0.7298
  417TIP3    H222887   4.122   0.660   0.797  1.3291 -0.1145  1.1954
  418TIP3   OH222888   4.723   3.252   4.111 -0.3975  0.1410  0.8074
  418TIP3    H122889   4.641   3.210   4.138 -0.0416  0.1348  1.9155
  418TIP3    H222890   4.707   3.345   4.125  0.2920  0.0429  2.5622
  419TIP3   OH222891   5.416   2.076   2.231  0.1390 -0.7023 -0.5180
  419TIP3    H122892   5.362   2.077   2.309  1.0950  0.3048  0.1580
  419TIP3    H222893   5.383   2.148   2.178  0.5115 -0.3663 -0.3031
  420TIP3   OH222894   0.454   6.191   9.792 -0.5323 -0.0802 -0.0984
  420TIP3    H122895   0.470   6.128   9.722  1.8402  1.3555 -0.9789
  420TIP3    H222896   0.525   6.254   9.784 -0.2428  0.2647  3.5290
  421TIP3   OH222897   5.038   2.308   9.031 -0.0538  0.4033 -0.5467
  421TIP3    H122898   5.033   2.315   9.126 -0.6917 -2.0069 -0.3190
  421TIP3    H222899   5.018   2.396   8.999  2.0308  1.7566  1.5205
  422TIP3   OH222900   5.987   5.095   0.911 -0.2408  0.0508 -0.6421
  422TIP3    H122901   6.016   5.123   0.824 -0.0315 -0.3256 -0.6954
  422TIP3    H222902   5.936   5.169   0.945 -0.3939  0.1633 -1.1183
  423TIP3   OH222903   2.249   3.637   9.517  0.0213  0.3068  0.1390
  423TIP3    H122904   2.222   3.672   9.432 -0.8073 -0.6226 -0.0081
  423TIP3    H222905   2.194   3.559   9.529  3.2210 -2.2946 -0.6029
  424TIP3   OH222906   3.983   1.913   0.545 -0.0046  0.0252 -0.3157
  424TIP3    H122907   4.048   1.845   0.562  0.4007  0.1385 -1.3376
  424TIP3    H222908   4.030   1.979   0.495 -1.1640 -0.4662 -2.1887
  425TIP3   OH222909   2.423   2.768   8.710 -0.2833 -0.0280  0.4565
  425TIP3    H122910   2.342   2.787   8.662 -0.8069 -1.1392  0.8508
  425TIP3    H222911   2.408   2.681   8.747  0.7657  0.1213  1.2604
  426TIP3   OH222912   0.684   5.508   9.322 -0.4236  0.0458 -0.5551
  426TIP3    H122913   0.725   5.428   9.290  1.8748  1.1883 -0.7036
  426TIP3    H222914   0.697   5.571   9.251 -2.5049  0.5045 -0.5870
  427TIP3   OH222915   3.372   3.212   8.581  0.1409 -0.1563 -0.1511
  427TIP3    H122916   3.456   3.257   8.577 -0.3607  0.8685  0.4876
  427TIP3    H222917   3.327   3.239   8.500 -0.1580  0.5059  0.2291
  428TIP3   OH222918   1.033   6.174   0.760  0.2844 -0.3672  0.0049
  428TIP3    H122919   1.073   6.261   0.771 -1.8757  0.7044 -0.0404
  428TIP3    H222920   1.102   6.113   0.787  1.1515  1.4402  2.2959
  429TIP3   OH222921   3.337   0.175   0.320 -0.2299  0.0883  0.5303
  429TIP3    H122922   3.343   0.152   0.227  0.2983  0.5931  0.4273
  429TIP3    H222923   3.274   0.114   0.357  0.0505 -0.5505 -0.0296
  430TIP3   OH222924   1.770   4.313   8.011 -0.1925  0.7258 -0.3833
  430TIP3    H122925   1.773   4.394   7.960  0.6926  0.4604 -0.7764
  430TIP3    H222926   1.791   4.341   8.100  0.3103  0.9030 -0.5541
  431TIP3   OH222927   4.588   2.677   0.230  0.7042  0.9836 -0.1978
  431TIP3    H122928   4.512   2.708   0.279  0.2874 -1.4322  0.8623
  431TIP3    H222929   4.553   2.650   0.145  0.4051  0.2462  0.1459
  432TIP3   OH222930   5.175   0.575   2.415  0.2095 -0.0662 -0.3217
  432TIP3    H122931   5.226   0.518   2.357 -0.8810  0.3425 -1.7504
  432TIP3    H222932   5.085   0.543   2.406 -0.1680  0.8433  0.1248
  433TIP3   OH222933   2.247   4.444   9.576  0.3164 -0.0441 -0.1274
  433TIP3    H122934   2.235   4.465   9.484  1.1368 -0.5829 -0.3683
  433TIP3    H222935   2.191   4.506   9.622 -2.5193 -1.7487 -1.0808
  434TIP3   OH222936   4.144   5.930   8.806  0.1305  0.3921 -0.3705
  434TIP3    H122937   4.164   5.836   8.808  0.3728  0.3872  3.1251
  434TIP3    H222938   4.185   5.965   8.885 -0.7626  3.3096 -1.0691
  435TIP3   OH222939   4.140   5.743   9.204  0.7269  0.5468 -0.2610
  435TIP3    H122940   4.095   5.665   9.236  1.0724  1.3755  2.4525
  435TIP3    H222941   4.178   5.715   9.120 -1.0678 -1.4739 -0.4869
  436TIP3   OH222942   5.300   1.304   9.319 -0.0802 -0.0509  0.7109
  436TIP3    H122943   5.272   1.394   9.299  0.1363 -0.2753 -0.6670
  436TIP3    H222944   5.298   1.259   9.235  2.3895 -0.6348  0.8949
  437TIP3   OH222945   6.062   3.345   0.771  0.3113  0.2968  0.0900
  437TIP3    H122946   6.124   3.342   0.698  0.1814 -0.7252  0.0157
  437TIP3    H222947   6.112   3.385   0.843  0.3070  1.7239 -0.6560
  438TIP3   OH222948   1.416   2.938   2.361  0.0577  0.3079 -0.0363
  438TIP3    H122949   1.424   3.019   2.411  1.3428  0.9085 -1.1484
  438TIP3    H222950   1.505   2.903   2.358 -0.4599 -1.0833  0.3073
  439TIP3   OH222951   6.167   2.569   1.212  0.7426 -0.4073  1.0688
  439TIP3    H122952   6.089   2.541   1.259  0.4478  1.5804  1.8843
  439TIP3    H222953   6.178   2.505   1.143 -2.2840 -0.1413  0.1983
  440TIP3   OH222954   1.954   4.183   9.102 -0.3587 -0.1077 -0.0505
  440TIP3    H122955   1.933   4.202   9.193  1.8810 -0.0473  0.5005
  440TIP3    H222956   2.014   4.254   9.076  0.9938 -1.4530 -0.7603
  441TIP3   OH222957   0.627   3.376   9.524 -0.0698  0.7636 -0.3810
  441TIP3    H122958   0.638   3.433   9.448  1.3329  2.0720  0.7224
  441TIP3    H222959   0.716   3.360   9.555 -0.5764 -0.3206  0.5765
  442TIP3   OH222960   4.981   6.056   8.771  0.2688  0.1211 -0.1100
  442TIP3    H122961   4.921   6.081   8.840 -0.9200 -2.4150 -0.1240
  442TIP3    H222962   4.946   6.099   8.692  0.2789  1.1088  0.4029
  443TIP3   OH222963   2.966   4.275   1.561 -0.3204  0.2440 -0.0929
  443TIP3    H122964   2.883   4.230   1.575  0.8356 -1.1953  2.8681
  443TIP3    H222965   2.998   4.240   1.478 -1.8369 -0.4926 -0.4087
  444TIP3   OH222966   5.563   1.446   1.422 -0.4409 -0.3527 -0.3753
  444TIP3    H122967   5.470   1.460   1.440 -0.6168 -0.7025 -1.0257
  444TIP3    H222968   5.568   1.359   1.382  0.2933 -0.8135  0.6672
  445TIP3   OH222969   5.937   5.326   1.055 -0.2749  0.5546 -0.1311
  445TIP3    H122970   5.854   5.373   1.050 -0.1705  0.9290  1.2760
  445TIP3    H222971   6.002   5.395   1.070 -0.1993 -0.0205  2.6509
  446TIP3   OH222972   2.820   1.833   1.838 -0.1589  0.2332 -0.3593
  446TIP3    H122973   2.867   1.817   1.756 -1.1218 -0.6218 -0.7751
  446TIP3    H222974   2.763   1.756   1.848 -0.6103  0.6875  0.7169
  447TIP3   OH222975   2.145   6.188   9.233  0.5979  0.0574 -0.8746
  447TIP3    H122976   2.102   6.237   9.163  1.2647  3.0714  0.6883
  447TIP3    H222977   2.237   6.213   9.228  0.4933  1.2669  1.6698
  448TIP3   OH222978   0.488   1.567   8.411 -0.0322 -0.1949  0.1884
  448TIP3    H122979   0.472   1.612   8.328  2.2571  0.1388 -0.1373
  448TIP3    H222980   0.469   1.632   8.478 -2.6866 -0.7102  0.0393
  449TIP3   OH222981   0.243   4.239   1.788 -0.5599 -0.3158 -0.1466
  449TIP3    H122982   0.227   4.267   1.698  0.4324  1.8539  0.2896
  449TIP3    H222983   0.284   4.153   1.780  0.1767  0.1579 -1.8120
  450TIP3   OH222984   2.656   5.092   0.840  0.0768 -0.6564  0.1806
  450TIP3    H122985   2.674   5.143   0.918  0.2663 -0.5305  0.0544
  450TIP3    H222986   2.600   5.148   0.787 -0.4729 -0.9435  0.4539
  451TIP3   OH222987   0.650   2.846   9.692  0.5541 -0.6682  0.0705
  451TIP3    H122988   0.694   2.833   9.776  0.9601 -1.1008 -0.2040
  451TIP3    H222989   0.613   2.760   9.670  0.5343 -0.5823 -0.2402
  452TIP3   OH222990   0.556   2.162   1.054 -0.1884 -0.7279  0.2043
  452TIP3    H122991   0.482   2.136   1.109  0.4558  0.0993  1.5280
  452TIP3    H222992   0.562   2.257   1.067 -1.0852 -0.1820 -2.7007
  453TIP3   OH222993   4.740   3.398   0.761 -0.2008 -0.2123  0.1422
  453TIP3    H122994   4.809   3.403   0.694  0.0095 -0.9584  0.2944
  453TIP3    H222995   4.660   3.382   0.712 -0.5359  2.0203 -0.1653
  454TIP3   OH222996   0.954   2.370   2.181  0.0314  0.1945 -0.0808
  454TIP3    H122997   1.020   2.306   2.205 -1.1458 -0.9941  0.1080
  454TIP3    H222998   0.925   2.408   2.264 -0.4412 -0.2437 -0.0387
  455TIP3   OH222999   4.694   5.143   1.468  0.0960  0.2703  0.1410
  455TIP3    H123000   4.690   5.048   1.478  2.2544  0.3403  2.9688
  455TIP3    H223001   4.750   5.157   1.392 -2.0109 -0.6110 -1.6871
  456TIP3   OH223002   0.312   5.224   8.424  0.8169 -0.3612  0.0527
  456TIP3    H123003   0.395   5.178   8.433  0.6712 -0.5750  0.3311
  456TIP3    H223004   0.328   5.289   8.356  0.4773 -2.1127 -1.8030
  457TIP3   OH223005   5.616   2.535   0.420  0.1938  0.4386 -0.1879
  457TIP3    H123006   5.596   2.611   0.475 -2.0007  1.4776 -2.2378
  457TIP3    H223007   5.546   2.473   0.437 -1.1010  1.1886 -2.4093
  458TIP3   OH223008   2.016   1.244   8.553  0.0263 -0.3330 -0.3216
  458TIP3    H123009   2.036   1.321   8.500 -0.0288 -0.6310 -0.7875
  458TIP3    H223010   1.992   1.279   8.638  1.8508  0.0801  0.0641
  459TIP3   OH223011   0.420   3.287   0.575  0.4387  0.1649 -0.2172
  459TIP3    H123012   0.466   3.296   0.658  0.6028 -0.8869 -0.1826
  459TIP3    H223013   0.329   3.273   0.600 -0.2423  3.5246 -0.2964
  460TIP3   OH223014   2.239   3.029   2.085  0.1445  0.1401 -0.1192
  460TIP3    H123015   2.218   2.973   2.010  0.6821  0.7218 -0.7132
  460TIP3    H223016   2.187   3.107   2.072  0.2855  0.2677  0.0811
  461TIP3   OH223017   4.262   3.949   3.359 -0.6487  0.0605 -0.3704
  461TIP3    H123018   4.193   3.913   3.415 -0.0846  1.1295  1.0733
  461TIP3    H223019   4.339   3.894   3.377  0.0901  1.6011  1.5004
  462TIP3   OH223020   4.570   1.389   8.672  0.1949 -0.2644  0.4334
  462TIP3    H123021   4.521   1.309   8.652  0.1984 -0.3490  0.7568
  462TIP3    H223022   4.585   1.430   8.587 -0.1368 -0.4158  0.3001
  463TIP3   OH223023   2.787   0.449   9.667  0.3800 -0.0152  1.1744
  463TIP3    H123024   2.734   0.528   9.674  0.3388  0.0317  0.3660
  463TIP3    H223025   2.722   0.379   9.657  0.3950 -0.2197  2.3199
  464TIP3   OH223026   1.299   2.092   8.431  0.6289 -0.4584  0.2588
  464TIP3    H123027   1.279   2.104   8.338  1.2502  1.0198  0.2874
  464TIP3    H223028   1.394   2.080   8.434  0.8731  1.2633  0.8066
  465TIP3   OH223029   4.627   4.859   2.040 -0.7849 -0.0463  0.1025
  465TIP3    H123030   4.539   4.824   2.024 -1.3254  1.8721 -1.4851
  465TIP3    H223031   4.611   4.943   2.085  0.2125  0.3720 -0.3004
  466TIP3   OH223032   5.391   4.876   0.832  0.4410 -0.4656 -0.0337
  466TIP3    H123033   5.392   4.928   0.752 -1.9577  0.0614  0.1876
  466TIP3    H223034   5.305   4.834   0.831  0.8592 -1.4223  1.6665
  467TIP3   OH223035   0.547   3.084   9.743  0.0746 -0.5997 -0.4132
  467TIP3    H123036   0.601   3.005   9.743 -1.0928 -1.4107 -0.9943
  467TIP3    H223037   0.474   3.063   9.801 -0.8849 -0.4068 -1.5213
  468TIP3   OH223038   2.546   2.801  10.010  0.0567  0.8472 -0.1086
  468TIP3    H123039   2.574   2.807  10.102  1.6238  0.5471 -0.5436
  468TIP3    H223040   2.451   2.795  10.015  0.1184  0.6477  1.5108
  469TIP3   OH223041   0.895   0.419   2.112 -0.0236  0.1121  0.0192
  469TIP3    H123042   0.921   0.505   2.144 -0.8514  0.5536 -0.4496
  469TIP3    H223043   0.943   0.408   2.030 -1.1417  0.8617 -0.7708
  470TIP3   OH223044   5.812   1.118   7.011  0.3257  0.3051  0.1252
  470TIP3    H123045   5.797   1.024   7.003 -2.5648  0.7236 -0.6814
  470TIP3    H223046   5.905   1.126   7.030  0.7344 -2.6821 -0.1018
  471TIP3   OH223047   2.120   4.471   0.885  0.3028 -0.6358 -0.5306
  471TIP3    H123048   2.147   4.552   0.841  0.1146 -0.4939 -0.3899
  471TIP3    H223049   2.180   4.461   0.958  0.8915 -1.1043 -1.0651
  472TIP3   OH223050   5.934   6.233   1.982  0.3492  0.0826  0.3153
  472TIP3    H123051   5.932   6.314   1.931 -0.3292 -0.9897 -1.4477
  472TIP3    H223052   5.892   6.168   1.926  1.3653 -1.6365  1.4474
  473TIP3   OH223053   5.831   3.650   2.716  0.4817  0.1364  0.8039
  473TIP3    H123054   5.919   3.632   2.749  0.8662  1.7717  0.7645
  473TIP3    H223055   5.843   3.664   2.622  0.1778  0.3503  0.7951
  474TIP3   OH223056   1.761   0.696   0.765  0.3280 -0.2984  0.6722
  474TIP3    H123057   1.790   0.753   0.836  0.3195  0.9137 -0.2571
  474TIP3    H223058   1.808   0.614   0.780  0.4749  0.0009  1.9532
  475TIP3   OH223059   4.590   3.761   9.830 -0.0599  0.3229 -0.2806
  475TIP3    H123060   4.584   3.688   9.768  0.4631 -0.3456  0.4308
  475TIP3    H223061   4.568   3.838   9.779  0.7030 -0.1652 -1.3897
  476TIP3   OH223062   0.928   4.237   2.110  0.0798 -0.7509  0.3295
  476TIP3    H123063   0.930   4.296   2.186 -0.7158  0.5008 -0.5743
  476TIP3    H223064   0.843   4.194   2.115  0.5135 -1.5817  0.7864
  477TIP3   OH223065   2.897   2.389   1.491  0.1731  0.1008 -0.2334
  477TIP3    H123066   2.948   2.329   1.546  0.7635  0.8646  0.0723
  477TIP3    H223067   2.814   2.399   1.536  0.1088 -0.3924 -0.2309
  478TIP3   OH223068   0.132   4.048   8.587 -0.5249  0.6942 -0.0705
  478TIP3    H123069   0.041   4.022   8.572 -1.4675  2.3497  2.2022
  478TIP3    H223070   0.126   4.127   8.642  2.2800  1.3548 -0.5556
  479TIP3   OH223071   0.865   6.237   8.347  0.3735 -0.2473 -0.4005
  479TIP3    H123072   0.819   6.192   8.417 -0.1335 -0.4205 -0.8359
  479TIP3    H223073   0.939   6.280   8.390  0.8916 -1.5073  0.0241
  480TIP3   OH223074   2.715   4.451   8.541 -0.1063  0.3309 -0.1387
  480TIP3    H123075   2.718   4.508   8.464 -1.2448  1.4662  0.6314
  480TIP3    H223076   2.801   4.409   8.543 -0.7550 -1.4463 -3.2738
  481TIP3   OH223077   4.562   5.779   3.033  0.0375 -0.3954  0.3024
  481TIP3    H123078   4.628   5.744   2.972  1.2961  0.3611  1.1829
  481TIP3    H223079   4.479   5.751   2.996  0.7766 -0.2736 -1.5707
  482TIP3   OH223080   3.210   3.673   9.336 -0.1776  0.1392 -0.4182
  482TIP3    H123081   3.239   3.707   9.252 -1.5509 -1.4698 -1.6123
  482TIP3    H223082   3.148   3.739   9.368 -1.6043 -0.3932 -1.9375
  483TIP3   OH223083   3.617   0.850   2.380 -0.4705 -0.2367  0.1718
  483TIP3    H123084   3.636   0.823   2.290 -0.3385  1.3976 -0.3218
  483TIP3    H223085   3.523   0.841   2.389 -0.6575  0.7730 -0.5700
  484TIP3   OH223086   6.245   2.802   0.064 -0.1244  0.0622 -0.1075
  484TIP3    H123087   6.205   2.750  -0.006  1.2669 -0.2270 -0.7162
  484TIP3    H223088   6.182   2.796   0.136 -0.9117 -0.8336 -0.8362
  485TIP3   OH223089   5.213   6.065   1.696  0.0093 -0.5229  0.2854
  485TIP3    H123090   5.199   6.126   1.768  1.3199 -1.0317  1.0063
  485TIP3    H223091   5.181   5.981   1.729  1.3981 -0.9435  0.6353
  486TIP3   OH223092   5.585   6.211   0.384  0.2759  0.2866 -0.1013
  486TIP3    H123093   5.671   6.212   0.425  0.2859  1.0905 -0.1087
  486TIP3    H223094   5.524   6.225   0.456  0.2960  1.7481 -0.3180
  487TIP3   OH223095   3.351   4.133   3.490 -0.8667 -0.2785  0.2945
  487TIP3    H123096   3.258   4.155   3.489 -1.5930 -3.0070 -0.5903
  487TIP3    H223097   3.369   4.108   3.581 -1.4946 -1.4162  0.1282
  488TIP3   OH223098   4.356   0.098   9.090  0.4838 -0.5860  0.2270
  488TIP3    H123099   4.372   0.192   9.104 -0.4418 -0.1100 -1.5834
  488TIP3    H223100   4.291   0.075   9.156 -2.3531  1.0896 -1.7742
  489TIP3   OH223101   1.728   0.895   1.846  0.9990  0.5211 -0.3028
  489TIP3    H123102   1.730   0.977   1.797 -2.3173  1.3516  0.7417
  489TIP3    H223103   1.728   0.921   1.938  0.8857 -0.6950  0.0570
  490TIP3   OH223104   6.281   5.704   2.585  0.1475 -0.3779  0.3255
  490TIP3    H123105   6.263   5.773   2.649  0.1205 -0.3162  0.2511
  490TIP3    H223106   6.197   5.660   2.574  0.3459 -0.9401  0.9821
  491TIP3   OH223107   3.350   5.380   9.726  0.2577 -0.6613  0.2618
  491TIP3    H123108   3.362   5.325   9.803 -0.7757  0.6856  1.4734
  491TIP3    H223109   3.352   5.320   9.652 -0.6670 -2.3103  1.4942
  492TIP3   OH223110   0.153   2.615   9.147  0.6041  0.1525  0.1088
  492TIP3    H123111   0.199   2.651   9.072  1.6047 -0.2930  0.4864
  492TIP3    H223112   0.217   2.617   9.218  0.2987 -1.2187  0.4525
  493TIP3   OH223113   2.673   5.110   8.344 -0.3393 -0.3584  0.4926
  493TIP3    H123114   2.736   5.177   8.372 -0.0849 -0.1967 -0.4529
  493TIP3    H223115   2.700   5.030   8.389  0.4638 -0.2595  0.1911
  494TIP3   OH223116   3.397   0.530   9.081 -0.3120 -0.4194  0.3779
  494TIP3    H123117   3.359   0.491   9.160 -1.2072 -0.6640 -0.1589
  494TIP3    H223118   3.424   0.618   9.108  1.3898 -1.2493  1.4986
  495TIP3   OH223119   4.721   3.660   2.138  0.1562 -0.7489 -0.2609
  495TIP3    H123120   4.743   3.627   2.225 -0.4093 -2.0900 -0.6067
  495TIP3    H223121   4.731   3.755   2.146 -0.7276 -0.7550  1.5308
  496TIP3   OH223122   3.397   0.892   0.980 -0.3548  0.5563  0.8916
  496TIP3    H123123   3.479   0.894   1.028 -0.4007  0.7032  0.9657
  496TIP3    H223124   3.367   0.801   0.986  0.3605  0.2395 -0.0917
  497TIP3   OH223125   4.978   1.744   8.402  0.1107 -0.8324 -0.5655
  497TIP3    H123126   4.891   1.723   8.369 -0.3119 -0.0072 -0.0021
  497TIP3    H223127   4.984   1.839   8.397  1.7343 -0.9481 -2.4209
  498TIP3   OH223128   4.892   0.592   9.961 -0.5137 -0.4601 -0.3398
  498TIP3    H123129   4.943   0.634   9.892  1.8409 -2.1000  0.2847
  498TIP3    H223130   4.888   0.500   9.935 -1.4153 -0.7247  0.6722
  499TIP3   OH223131   0.719   6.119   8.617 -0.5262 -0.1418  0.0497
  499TIP3    H123132   0.669   6.073   8.684 -1.0330  1.7001  0.9981
  499TIP3    H223133   0.733   6.207   8.652  1.9274 -0.0453 -0.9125
  500TIP3   OH223134   1.032   4.116   2.643  0.5743 -0.5362  0.0469
  500TIP3    H123135   1.091   4.071   2.583  1.2617  0.7569 -0.2778
  500TIP3    H223136   1.090   4.162   2.704 -0.0668  0.7735 -0.2956
  501TIP3   OH223137   3.676   1.158   8.752 -0.2038 -0.1771 -0.4034
  501TIP3    H123138   3.752   1.143   8.696 -0.2262  0.3287 -0.5747
  501TIP3    H223139   3.617   1.211   8.698 -0.8733 -0.9279 -0.4361
  502TIP3   OH223140   3.673   4.367   3.437  0.0175  0.3113  0.0619
  502TIP3    H123141   3.598   4.365   3.377  0.4332  1.0659 -0.5070
  502TIP3    H223142   3.638   4.406   3.517  0.2882  3.0231 -1.0023
  503TIP3   OH223143   3.160   2.849   2.571 -0.1060  0.7724 -0.6472
  503TIP3    H123144   3.227   2.902   2.613  1.1908 -1.3696  0.1965
  503TIP3    H223145   3.080   2.868   2.620  1.1337 -0.7956  2.2604
  504TIP3   OH223146   0.280   1.410   8.676  0.2096 -0.2168 -0.9536
  504TIP3    H123147   0.255   1.397   8.768  1.8773  0.3587 -0.3777
  504TIP3    H223148   0.315   1.499   8.674  0.5025 -0.3499 -2.0865
  505TIP3   OH223149   5.167   5.943   9.802  0.3143 -0.2068 -0.2797
  505TIP3    H123150   5.122   6.016   9.760 -0.6997 -0.8805 -0.4337
  505TIP3    H223151   5.200   5.890   9.729 -0.0633 -0.5464 -0.2134
  506TIP3   OH223152   5.146   2.076   8.865  0.0027 -0.0216 -0.1460
  506TIP3    H123153   5.159   2.170   8.850  0.0606 -0.2130 -1.4368
  506TIP3    H223154   5.194   2.058   8.946 -1.2353  1.3297  0.9539
  507TIP3   OH223155   1.304   2.825   9.543  0.1840  0.3582  0.6040
  507TIP3    H123156   1.269   2.778   9.467 -0.1538 -0.1005  1.0319
  507TIP3    H223157   1.285   2.767   9.617 -0.2009  1.1585  1.1432
  508TIP3   OH223158   5.503   2.327   0.887  0.5154 -0.0195  0.1879
  508TIP3    H123159   5.566   2.392   0.915  0.3568 -0.4268  1.5702
  508TIP3    H223160   5.518   2.252   0.944 -1.0903 -0.1939  0.4412
  509TIP3   OH223161   2.965   4.887   0.656  0.1413 -0.6329 -0.2200
  509TIP3    H123162   2.982   4.944   0.731 -1.1180 -0.6438  0.0901
  509TIP3    H223163   2.989   4.799   0.687 -2.5601 -1.0310  1.0466
  510TIP3   OH223164   0.193   2.753   1.692 -0.3704  0.3079  0.3102
  510TIP3    H123165   0.126   2.812   1.658 -0.4296  0.7103  1.1086
  510TIP3    H223166   0.269   2.768   1.635 -0.6637  0.5199 -0.0286
  511TIP3   OH223167   5.159   6.189   0.219 -0.1132  0.2877 -0.2418
  511TIP3    H123168   5.181   6.096   0.210 -1.4784  0.0276 -1.1417
  511TIP3    H223169   5.188   6.212   0.308  3.7206  0.0355 -1.2415
  512TIP3   OH223170   2.695   5.527   9.013  0.3881  0.3595  0.2048
  512TIP3    H123171   2.734   5.459   8.958  0.4008 -0.1178  0.7784
  512TIP3    H223172   2.751   5.603   9.002 -0.4469  0.7532 -1.5720
  513TIP3   OH223173   5.352   3.705   0.503  0.4306  0.6329  0.1563
  513TIP3    H123174   5.436   3.701   0.457 -0.2376 -0.9912 -1.0495
  513TIP3    H223175   5.304   3.776   0.460  0.4828  0.2994 -0.4618
  514TIP3   OH223176   4.194   2.967  10.015  0.3057 -0.0192 -0.2656
  514TIP3    H123177   4.255   2.971   9.942 -0.6053 -0.9580 -1.1246
  514TIP3    H223178   4.111   2.997   9.979 -0.0697 -0.1172  0.4851
  515TIP3   OH223179   0.014   2.119   0.848 -0.3399  0.0823 -0.1641
  515TIP3    H123180   0.090   2.149   0.798 -0.4079 -0.1810 -0.4278
  515TIP3    H223181  -0.057   2.178   0.821  0.0977  1.2773  1.1724
  516TIP3   OH223182   5.068   3.669   2.677  0.8267  0.4172  0.4086
  516TIP3    H123183   4.989   3.706   2.717  1.1599  0.3187  1.1866
  516TIP3    H223184   5.085   3.724   2.601  0.3792  0.8415  0.6124
  517TIP3   OH223185   5.468   5.307   1.357 -0.5117 -0.7599 -0.5317
  517TIP3    H123186   5.484   5.381   1.299  1.0703  0.4520  1.3509
  517TIP3    H223187   5.549   5.257   1.354 -1.1335 -1.7844 -0.8322
  518TIP3   OH223188   0.454   2.404   2.684  0.2240  0.6877  0.5077
  518TIP3    H123189   0.511   2.476   2.713  0.7844  0.0389  1.0346
  518TIP3    H223190   0.446   2.347   2.760  0.9332 -0.5495 -0.3176
  519TIP3   OH223191   2.202   3.426   0.910 -0.3112  0.1133  0.3310
  519TIP3    H123192   2.204   3.420   1.005 -2.0921 -1.6607  0.3177
  519TIP3    H223193   2.139   3.495   0.892 -1.4716 -0.8757  0.4739
  520TIP3   OH223194   2.631   4.425   0.561  0.2663  0.3184  0.3113
  520TIP3    H123195   2.597   4.449   0.647  2.0988  1.1047  0.8402
  520TIP3    H223196   2.713   4.473   0.552  1.0342 -1.1472 -1.1139
  521TIP3   OH223197   5.308   2.133   2.499  0.3509 -0.2030  0.2221
  521TIP3    H123198   5.398   2.134   2.533  0.7722  1.9943 -0.8217
  521TIP3    H223199   5.258   2.185   2.561 -0.0869 -0.8719  0.4425
  522TIP3   OH223200   3.546   1.793   0.671  0.4642  0.4612  0.2258
  522TIP3    H123201   3.543   1.720   0.608  1.3724  1.6438 -1.2675
  522TIP3    H223202   3.488   1.860   0.632  0.9487  1.1731  0.7047
  523TIP3   OH223203   1.261   6.293   1.400 -0.3932 -0.5218 -0.1805
  523TIP3    H123204   1.196   6.360   1.383 -0.5305 -0.6214 -0.0485
  523TIP3    H223205   1.227   6.215   1.356  0.0644 -0.3535 -0.8581
  524TIP3   OH223206   2.205   1.902   8.550 -0.3214 -0.1237 -0.1190
  524TIP3    H123207   2.198   1.888   8.644  2.7304 -0.3592  0.1431
  524TIP3    H223208   2.217   1.814   8.513 -2.1371 -0.1059 -0.8584
  525TIP3   OH223209   6.231   2.238   9.370  0.5612 -0.1060  0.1427
  525TIP3    H123210   6.275   2.321   9.349  0.7133 -0.6744 -2.0554
  525TIP3    H223211   6.176   2.221   9.293 -0.5197 -1.3624  1.1662
  526TIP3   OH223212   0.731   4.762   9.789 -0.6059  0.7307  0.5612
  526TIP3    H123213   0.821   4.758   9.821 -0.7572 -0.4828  0.8732
  526TIP3    H223214   0.688   4.824   9.848 -0.3149  0.2513  1.2905
  527TIP3   OH223215   0.153   0.717   7.576 -0.7894  0.2778  0.3202
  527TIP3    H123216   0.159   0.660   7.652 -0.1672  0.0253  0.0953
  527TIP3    H223217   0.067   0.699   7.539 -0.6268 -0.4763  0.2910
  528TIP3   OH223218   5.241   6.071   0.972 -0.1663 -0.1060 -0.2100
  528TIP3    H123219   5.282   6.133   1.033 -0.0764  0.5692 -0.9391
  528TIP3    H223220   5.313   6.014   0.944 -0.4460 -1.2316  1.2532
  529TIP3   OH223221   5.448   5.196   8.622 -0.4501  0.1723  0.3355
  529TIP3    H123222   5.440   5.201   8.717 -1.6825  0.0811  0.2461
  529TIP3    H223223   5.430   5.104   8.601  0.5067  0.0335  0.0646
  530TIP3   OH223224   4.157   1.809   2.334  0.2721  0.3363  0.1948
  530TIP3    H123225   4.247   1.775   2.337  0.0603 -0.3392 -0.6083
  530TIP3    H223226   4.103   1.736   2.365 -0.2859 -0.5148 -2.4974
  531TIP3   OH223227   2.379   3.188   0.989  0.4118 -0.0395 -0.4808
  531TIP3    H123228   2.474   3.188   0.992  0.4174  0.9483 -0.3052
  531TIP3    H223229   2.357   3.179   0.896  0.6916  0.7554 -0.6255
  532TIP3   OH223230   0.775   1.813   7.817  0.2046  0.6358 -0.9666
  532TIP3    H123231   0.756   1.726   7.781  1.5168 -1.8051  3.5068
  532TIP3    H223232   0.690   1.857   7.820 -0.7241 -0.9827 -2.1136
  533TIP3   OH223233   5.511   2.637   0.015  0.1459  0.4235 -0.3280
  533TIP3    H123234   5.568   2.665  -0.056  0.6473  0.1129 -0.0567
  533TIP3    H223235   5.423   2.646  -0.020  0.2144  2.9768 -0.0340
  534TIP3   OH223236   1.646   3.541   1.289 -0.1623  0.1090  0.4227
  534TIP3    H123237   1.590   3.618   1.281  0.4962  0.4457 -1.6828
  534TIP3    H223238   1.589   3.468   1.268 -0.3361  0.2159  0.5163
  535TIP3   OH223239   4.470   4.688   9.514  0.4531 -0.6279 -0.3680
  535TIP3    H123240   4.565   4.687   9.517  0.4522 -0.2241 -0.0976
  535TIP3    H223241   4.443   4.624   9.580  0.5265  1.3375  1.6939
  536TIP3   OH223242   0.142   2.791   2.108 -0.6027 -0.3626 -0.5496
  536TIP3    H123243   0.130   2.696   2.104 -0.2910 -0.3704 -1.5677
  536TIP3    H223244   0.089   2.826   2.036  0.6958  0.0668 -1.3439
  537TIP3   OH223245   5.431   5.084   9.203 -0.3688 -0.0319 -0.0488
  537TIP3    H123246   5.453   4.993   9.182 -2.0406 -0.2665 -0.8939
  537TIP3    H223247   5.418   5.127   9.119  0.7311  1.1139  0.3251
  538TIP3   OH223248   3.235   2.768   9.055 -0.5474  0.6681  0.1581
  538TIP3    H123249   3.175   2.710   9.102 -1.5488  1.0191 -0.6532
  538TIP3    H223250   3.239   2.732   8.966 -0.0711  1.0316  0.0256
  539TIP3   OH223251   0.261   0.345   8.263 -0.2044  0.3157  0.0572
  539TIP3    H123252   0.169   0.321   8.273 -0.1963 -1.0350 -2.3363
  539TIP3    H223253   0.259   0.429   8.217 -0.2455  0.2036 -0.1464
  540TIP3   OH223254   2.284   5.638   9.070  0.2151  0.1190  0.1449
  540TIP3    H123255   2.313   5.612   8.982 -0.1674  0.6655 -0.1484
  540TIP3    H223256   2.354   5.695   9.102 -0.4144  1.2522 -0.4698
  541TIP3   OH223257   0.291   4.457   7.679  0.3329 -0.0361  0.3321
  541TIP3    H123258   0.286   4.364   7.700 -1.6462 -0.0924 -0.1649
  541TIP3    H223259   0.297   4.501   7.763 -1.8366 -0.5161  0.8104
  542TIP3   OH223260   3.619   3.188   2.647 -0.3432  0.4991  0.0591
  542TIP3    H123261   3.634   3.163   2.738 -0.8187  2.2266  0.6423
  542TIP3    H223262   3.652   3.277   2.640  0.4053  0.1375 -1.6876
  543TIP3   OH223263   3.726   2.928   2.400 -0.3661 -0.0545  0.4193
  543TIP3    H123264   3.799   2.974   2.441 -0.1398  0.8053 -0.8943
  543TIP3    H223265   3.663   2.915   2.471 -0.2851  2.0151  0.9515
  544TIP3   OH223266   4.481   4.467   1.962  0.0920  0.0189 -0.2675
  544TIP3    H123267   4.559   4.480   1.908 -0.4550  0.9386 -0.8721
  544TIP3    H223268   4.515   4.438   2.046  1.1235  0.7322 -0.4085
  545TIP3   OH223269   3.777   1.790  10.026 -0.8687 -0.2118  0.5487
  545TIP3    H123270   3.832   1.829  10.094  2.9672 -2.9947 -0.6269
  545TIP3    H223271   3.778   1.855   9.955  1.7169 -0.4175  0.2841
  546TIP3   OH223272   5.602   5.226   2.223  0.3335 -0.2221 -0.6549
  546TIP3    H123273   5.673   5.212   2.160  0.8043 -0.8218 -0.0039
  546TIP3    H223274   5.585   5.139   2.261  0.6939  0.2710  0.7053
  547TIP3   OH223275   0.761   0.305   7.506  0.4191  0.7838  0.7970
  547TIP3    H123276   0.740   0.398   7.500 -0.6303  0.5085 -0.4533
  547TIP3    H223277   0.793   0.292   7.595 -0.9432  2.0492  1.5040
  548TIP3   OH223278   1.822   4.280   3.231  0.7871  0.0329 -0.0348
  548TIP3    H123279   1.914   4.307   3.236  1.5886 -2.5169  2.8678
  548TIP3    H223280   1.774   4.348   3.278  1.3984  0.6843 -0.3463
  549TIP3   OH223281   4.723   4.651   9.407 -0.0107 -0.2916  0.1025
  549TIP3    H123282   4.756   4.619   9.323  0.4118 -1.1823  0.6011
  549TIP3    H223283   4.749   4.744   9.408  2.4626 -0.9001  0.4171
  550TIP3   OH223284   1.517   5.117   7.476  0.1269 -0.5876  0.3536
  550TIP3    H123285   1.590   5.164   7.436  0.2715 -0.2431  1.0088
  550TIP3    H223286   1.543   5.025   7.471 -0.5355 -0.7189 -1.6904
  551TIP3   OH223287   5.811   3.326   0.150 -0.6514  0.1068  0.4419
  551TIP3    H123288   5.741   3.325   0.084  0.4601 -0.1201 -0.7632
  551TIP3    H223289   5.861   3.246   0.133 -0.9054 -0.4844  2.2157
  552TIP3   OH223290   5.399   4.364   1.456 -0.0566 -0.7205 -0.1386
  552TIP3    H123291   5.351   4.383   1.536 -0.4684 -1.0244 -0.3133
  552TIP3    H223292   5.385   4.440   1.401  1.8470  0.3925  0.8215
  553TIP3   OH223293   0.285   3.925   2.010  0.8096 -0.5586  0.0133
  553TIP3    H123294   0.350   3.955   1.947  0.4602 -1.2277 -0.6885
  553TIP3    H223295   0.330   3.857   2.061  1.4782  0.8306  1.3428
  554TIP3   OH223296   5.999   5.848   9.483  0.1018 -0.0177 -0.9473
  554TIP3    H123297   5.954   5.899   9.415 -0.5541  1.3593  0.4584
  554TIP3    H223298   5.938   5.777   9.503 -0.7097  0.8352 -0.2907
  555TIP3   OH223299   3.476   0.433   0.054 -0.1736  0.5001  0.0040
  555TIP3    H123300   3.458   0.346   0.091 -1.3733  0.5592 -0.3935
  555TIP3    H223301   3.446   0.494   0.121 -1.6021  0.6008 -0.6868
  556TIP3   OH223302   4.235   2.702   9.787 -0.6608 -0.7818  0.0928
  556TIP3    H123303   4.305   2.696   9.722 -2.0319 -1.1914 -1.3875
  556TIP3    H223304   4.220   2.611   9.815  1.6771 -0.4510  3.0519
  557TIP3   OH223305   2.147   0.933   1.499  0.8121  0.2467  0.0190
  557TIP3    H123306   2.085   0.993   1.459  0.6408  0.0451 -0.0200
  557TIP3    H223307   2.185   0.885   1.425 -0.8447 -1.4431  0.1719
  558TIP3   OH223308   5.117   1.848   8.117 -0.0479 -0.1485  0.3551
  558TIP3    H123309   5.199   1.883   8.082  0.6113 -1.4286  0.5736
  558TIP3    H223310   5.102   1.898   8.198  0.7289 -0.1822  0.5235
  559TIP3   OH223311   4.883   2.647   0.312  0.4731 -0.3180  0.0850
  559TIP3    H123312   4.788   2.661   0.307  0.8310  2.5506 -0.4782
  559TIP3    H223313   4.893   2.574   0.374 -2.1190 -2.1336 -1.4224
  560TIP3   OH223314   5.636   0.290   2.146 -0.1914 -0.3627 -0.2171
  560TIP3    H123315   5.562   0.237   2.173  0.7894 -1.6138  0.1088
  560TIP3    H223316   5.653   0.264   2.056  0.8224 -1.2500  0.2156
  561TIP3   OH223317   4.565   2.280   1.109 -0.4289  0.1376  0.2452
  561TIP3    H123318   4.508   2.342   1.153 -2.2612 -0.6290 -0.9307
  561TIP3    H223319   4.526   2.194   1.128 -0.3373 -0.3220 -1.4806
  562TIP3   OH223320   4.359   2.074   0.942 -0.1725  0.9987 -0.7573
  562TIP3    H123321   4.265   2.091   0.948 -0.8750 -1.8418 -2.1882
  562TIP3    H223322   4.397   2.158   0.915 -2.6453  1.5910 -2.7316
  563TIP3   OH223323   4.526   6.317   9.189 -1.0018 -0.2489 -0.0649
  563TIP3    H123324   4.472   6.381   9.142  1.3766  1.7741 -0.2556
  563TIP3    H223325   4.610   6.361   9.201  0.5409 -3.1088  0.5045
  564TIP3   OH223326   5.557   3.578   9.529  0.3310 -0.1488 -0.4597
  564TIP3    H123327   5.550   3.610   9.439  2.0144 -1.5989 -1.1646
  564TIP3    H223328   5.651   3.562   9.542 -0.1199 -2.2138  0.7092
  565TIP3   OH223329   5.739   5.005   0.008  0.2267  0.2985 -0.0557
  565TIP3    H123330   5.708   4.942  -0.057 -0.7071 -0.2231  0.8676
  565TIP3    H223331   5.800   5.061  -0.040  0.8152 -1.0873 -0.9711
  566TIP3   OH223332   1.584   1.281   2.103  0.3017 -0.5525  0.0867
  566TIP3    H123333   1.556   1.236   2.023 -2.3746  1.4959 -0.2756
  566TIP3    H223334   1.511   1.270   2.164  1.5632 -0.6007  1.6322
  567TIP3   OH223335   5.582   1.936   0.708  0.1280  0.0998 -0.9004
  567TIP3    H123336   5.657   1.892   0.748 -0.8573 -0.5139  0.3754
  567TIP3    H223337   5.535   1.975   0.782 -1.3724 -0.4427 -1.5228
  568TIP3   OH223338   0.651   4.663   2.428  0.0180 -0.3769  0.2225
  568TIP3    H123339   0.698   4.711   2.497 -1.0907 -0.8627  1.3587
  568TIP3    H223340   0.652   4.572   2.458 -2.0716 -0.3346  0.5621
  569TIP3   OH223341   0.295   0.340   1.054 -0.3568 -0.0530 -0.6997
  569TIP3    H123342   0.271   0.433   1.052 -1.4127 -0.3159 -0.6994
  569TIP3    H223343   0.300   0.314   0.962 -0.7868 -0.1642 -0.6968
  570TIP3   OH223344   3.649   1.190   0.190  0.0544 -1.0413 -0.2083
  570TIP3    H123345   3.616   1.204   0.279  0.1518 -2.1886  0.0231
  570TIP3    H223346   3.638   1.096   0.175  0.0834 -0.8713 -1.3976
  571TIP3   OH223347   3.426   2.719   8.061  0.3358 -1.0191  0.4774
  571TIP3    H123348   3.521   2.712   8.047  0.2950  0.6310 -0.9558
  571TIP3    H223349   3.417   2.762   8.146  0.9772  0.8119 -0.3254
  572TIP3   OH223350   3.296   3.369   0.074 -0.5274  0.2274 -0.2241
  572TIP3    H123351   3.289   3.464   0.084 -0.9022  0.0684  1.2846
  572TIP3    H223352   3.323   3.356  -0.017 -0.4839  1.7719 -0.4548
  573TIP3   OH223353   2.589   2.422   3.018 -0.6025  0.2418 -0.0393
  573TIP3    H123354   2.574   2.404   3.111  0.8034 -1.1310 -0.0302
  573TIP3    H223355   2.659   2.487   3.017 -1.1813  0.8645 -0.1334
  574TIP3   OH223356   1.490   6.114   1.085 -0.0693 -0.3295 -0.3751
  574TIP3    H123357   1.410   6.086   1.130 -0.4139  0.7894 -0.2786
  574TIP3    H223358   1.464   6.122   0.993 -0.7929  2.4581 -0.0201
  575TIP3   OH223359   4.765   1.424   2.421 -0.0372  0.1492 -0.0777
  575TIP3    H123360   4.824   1.482   2.469 -1.2410  0.9093  0.5103
  575TIP3    H223361   4.774   1.339   2.465  0.4983  0.2930  0.0960
  576TIP3   OH223362   3.484   3.648   3.090  0.1979 -0.1857 -0.0635
  576TIP3    H123363   3.473   3.612   3.002 -0.6951  1.6818 -0.7893
  576TIP3    H223364   3.395   3.672   3.117  0.4904 -0.5235  1.2654
  577TIP3   OH223365   0.015   0.730   1.710 -0.2498  0.2057  0.0385
  577TIP3    H123366   0.073   0.764   1.642 -1.4486  0.4622 -0.9045
  577TIP3    H223367  -0.021   0.649   1.673 -0.9372  0.3643  0.3338
  578TIP3   OH223368   2.175   3.801   1.394 -0.1593 -0.7440 -0.1750
  578TIP3    H123369   2.228   3.877   1.370 -0.5050 -0.2661  0.5472
  578TIP3    H223370   2.239   3.736   1.422  0.0739 -0.3402  0.2376
  579TIP3   OH223371   3.368   0.906   0.008 -0.1141  0.3143 -0.0334
  579TIP3    H123372   3.328   0.874   0.089  1.1652 -0.5024  0.2959
  579TIP3    H223373   3.358   0.833  -0.054 -0.4484  0.6713 -0.4110
  580TIP3   OH223374   5.296   3.667   1.116  0.7802  0.4949  0.2073
  580TIP3    H123375   5.302   3.572   1.127 -1.0804  0.3032 -0.1822
  580TIP3    H223376   5.205   3.688   1.137  0.9161  2.0603 -0.6330
  581TIP3   OH223377   1.747   5.467   8.826  0.3211 -0.2119 -0.6448
  581TIP3    H123378   1.719   5.397   8.767  1.7844 -0.1683 -1.4219
  581TIP3    H223379   1.791   5.421   8.898 -0.1334 -0.1759 -0.3417
  582TIP3   OH223380   4.501   5.548   0.324  0.0173 -0.1887  0.3475
  582TIP3    H123381   4.443   5.483   0.364  0.2398 -0.2804  0.5243
  582TIP3    H223382   4.489   5.626   0.378  0.5530 -0.4055  0.7977
  583TIP3   OH223383   2.467   4.203   0.177 -0.2900  0.3711  0.1801
  583TIP3    H123384   2.486   4.229   0.087 -0.9991  2.4123  0.5738
  583TIP3    H223385   2.512   4.268   0.231 -1.1918  0.1207  1.2600
  584TIP3   OH223386   0.641   3.064   1.527  0.1926 -0.3359 -0.7229
  584TIP3    H123387   0.714   3.041   1.584 -0.5629 -1.0723 -0.0384
  584TIP3    H223388   0.584   3.119   1.581  0.4759  0.6670 -1.4132
  585TIP3   OH223389   5.389   6.214   1.165  0.0759 -0.4019 -0.5171
  585TIP3    H123390   5.352   6.184   1.248  1.7296  0.4120  0.5657
  585TIP3    H223391   5.449   6.145   1.138  1.3290  0.3542  0.2317
  586TIP3   OH223392   2.398   3.520   8.811  0.2064  0.0868  0.4403
  586TIP3    H123393   2.461   3.448   8.815  0.6540  0.3769 -0.7990
  586TIP3    H223394   2.315   3.479   8.789  0.9661  0.0941 -3.1339
  587TIP3   OH223395   2.707   4.875   0.599  0.5287  0.0778  0.2641
  587TIP3    H123396   2.683   4.872   0.691 -2.4067 -3.6574 -0.3915
  587TIP3    H223397   2.803   4.878   0.599  0.5916  1.6643  3.3301
  588TIP3   OH223398   0.691   0.014   1.529  0.0029  0.3727 -0.2074
  588TIP3    H123399   0.717   0.090   1.476  0.6870  1.6387  1.8212
  588TIP3    H223400   0.636   0.051   1.599  0.1905 -1.0303  0.7283
  589TIP3   OH223401   4.224   4.508   1.528 -0.1066 -0.4299 -0.2114
  589TIP3    H123402   4.239   4.468   1.614 -0.9412 -1.0792 -0.3555
  589TIP3    H223403   4.132   4.491   1.510 -0.0530  0.1187 -1.0331
  590TIP3   OH223404   0.854   3.150   2.096  0.0060 -0.3193 -0.0792
  590TIP3    H123405   0.813   3.071   2.130 -0.6412  0.0558  0.0364
  590TIP3    H223406   0.822   3.157   2.007 -0.5008  0.1813  0.1340
  591TIP3   OH223407   0.472   1.830   7.939 -0.0897  1.1105  0.1930
  591TIP3    H123408   0.480   1.778   7.859  0.4230 -1.7779  1.9881
  591TIP3    H223409   0.378   1.834   7.956 -0.1282  0.7385  0.0659
  592TIP3   OH223410   4.452   4.635   0.643  0.6014  0.5841 -0.4685
  592TIP3    H123411   4.384   4.601   0.585 -0.3769  2.2650 -0.3886
  592TIP3    H223412   4.432   4.597   0.729  1.3154 -0.9304 -0.9390
  593TIP3   OH223413   4.982   2.503   2.969 -0.2419  0.0918 -0.0484
  593TIP3    H123414   5.061   2.526   2.920 -0.3175 -1.8019 -1.1700
  593TIP3    H223415   5.009   2.505   3.061  1.3705 -1.3696 -0.4473
  594TIP3   OH223416   4.936   2.197   3.130 -0.1732  0.3790 -0.5274
  594TIP3    H123417   4.920   2.105   3.108  0.6200 -0.3171  1.5410
  594TIP3    H223418   5.031   2.207   3.122  0.3601 -0.2584  3.3103
  595TIP3   OH223419   0.914   2.017   9.758  0.9246  0.5643  0.5848
  595TIP3    H123420   0.972   1.941   9.758  0.3871  0.1461  1.1028
  595TIP3    H223421   0.879   2.021   9.669 -0.5470 -0.9777  1.0448
  596TIP3   OH223422   1.589   1.773   0.309 -0.0161 -0.4147  0.1592
  596TIP3    H123423   1.508   1.736   0.274 -0.2803  1.1842 -1.0388
  596TIP3    H223424   1.641   1.796   0.232  0.9819 -0.1428  0.8821
  597TIP3   OH223425   5.019   6.336   2.316 -0.4628  0.1070 -0.0043
  597TIP3    H123426   5.111   6.321   2.339 -0.6500 -0.9650  0.0997
  597TIP3    H223427   5.021   6.357   2.222 -0.2505 -1.7559 -0.4630
  598TIP3   OH223428   6.111   2.637   0.782 -0.2343  0.3182  0.0215
  598TIP3    H123429   6.193   2.589   0.772  1.0773  2.5576 -0.8230
  598TIP3    H223430   6.103   2.688   0.701 -1.0771  2.1245  1.1814
  599TIP3   OH223431   3.683   5.037   1.283  0.2059  0.2739 -0.3825
  599TIP3    H123432   3.750   5.031   1.215 -0.2583  0.6059 -0.8758
  599TIP3    H223433   3.716   5.103   1.344  0.4782  0.1942 -0.4423
  600TIP3   OH223434   1.653   2.734   0.079  0.2187 -0.3869  0.0473
  600TIP3    H123435   1.613   2.792   0.015  0.3772  1.1419  1.2953
  600TIP3    H223436   1.610   2.755   0.162  0.7537 -1.5837  0.6613
  601TIP3   OH223437   5.313   1.742   2.628 -0.2547 -0.4192  0.1223
  601TIP3    H123438   5.383   1.801   2.654 -0.5937  0.2440 -0.4250
  601TIP3    H223439   5.326   1.663   2.682  1.2862 -0.5746 -0.4136
  602TIP3   OH223440   1.423   4.316   9.219 -0.5693 -0.2251 -0.4991
  602TIP3    H123441   1.350   4.361   9.261  0.1089  0.6381 -0.1996
  602TIP3    H223442   1.426   4.230   9.260 -1.1341 -0.1034 -0.1963
  603TIP3   OH223443   3.209   5.436  10.019 -0.1735  0.2548 -0.2282
  603TIP3    H123444   3.189   5.398   9.933  0.6441 -0.6258 -0.0414
  603TIP3    H223445   3.139   5.499  10.034 -0.1208  0.7190 -1.7254
  604TIP3   OH223446   2.469   4.980   8.664 -0.2926  0.3150  0.2359
  604TIP3    H123447   2.527   4.996   8.738  1.8071  0.3285 -1.3124
  604TIP3    H223448   2.454   5.067   8.626  0.3892  0.0909 -0.5678
  605TIP3   OH223449   1.522   1.013   6.917  0.3304 -0.3572  0.4191
  605TIP3    H123450   1.588   0.967   6.866  1.1930  0.2281  0.9731
  605TIP3    H223451   1.560   1.021   7.005 -1.2161 -1.5419  1.2371
  606TIP3   OH223452   5.994   0.342   9.825 -0.1048  0.0097  0.5761
  606TIP3    H123453   5.964   0.381   9.743 -0.9350  0.1718  0.9564
  606TIP3    H223454   6.063   0.401   9.855  3.8598 -2.5208 -2.4614
  607TIP3   OH223455   3.685   4.651   2.176  0.1223  0.3722 -0.3008
  607TIP3    H123456   3.735   4.708   2.234 -0.6324  0.2270  0.5187
  607TIP3    H223457   3.749   4.619   2.112  0.9377  0.6558  0.3618
  608TIP3   OH223458   1.352   1.257   2.240 -0.2739  0.3145  0.6446
  608TIP3    H123459   1.280   1.320   2.234 -0.0705  0.4912  0.0465
  608TIP3    H223460   1.309   1.174   2.262 -0.6347  0.4642  0.5077
  609TIP3   OH223461   4.410   4.466   9.687 -0.6366 -0.5648 -0.5696
  609TIP3    H123462   4.445   4.390   9.641 -0.3550 -0.2134 -0.9409
  609TIP3    H223463   4.350   4.429   9.752 -0.0698 -1.1401 -0.3550
  610TIP3   OH223464   2.902   5.175   0.314 -0.5089 -0.1035  0.1112
  610TIP3    H123465   2.979   5.118   0.308  0.0925  0.6262  0.6921
  610TIP3    H223466   2.864   5.155   0.399 -0.0222  0.6838  0.5251
  611TIP3   OH223467   1.067   5.458   9.421  0.1185 -0.3166  0.8377
  611TIP3    H123468   1.151   5.499   9.444 -0.8195  0.8652  2.3004
  611TIP3    H223469   1.043   5.408   9.499 -0.4641 -0.8350  0.3406
  612TIP3   OH223470   0.464   1.359   1.395  0.3905 -0.1235  0.4342
  612TIP3    H123471   0.553   1.396   1.390  1.3195 -1.9630  2.0762
  612TIP3    H223472   0.429   1.394   1.477  0.4395 -1.0449  0.8639
  613TIP3   OH223473   5.349   1.115   0.342  0.7233 -0.0721  0.1166
  613TIP3    H123474   5.263   1.085   0.371  1.5386  0.6402  3.7389
  613TIP3    H223475   5.408   1.093   0.415  2.8938  2.7152 -0.6298
  614TIP3   OH223476   3.717   6.306   8.996 -0.5496  0.5421  1.0682
  614TIP3    H123477   3.800   6.263   9.015  1.3510  4.3768  2.4518
  614TIP3    H223478   3.651   6.250   9.038  1.1883 -2.6984 -0.2009
  615TIP3   OH223479   5.487   6.383   8.179  0.1295  0.0063 -0.1744
  615TIP3    H123480   5.523   6.348   8.097 -0.9799  1.6484 -1.4267
  615TIP3    H223481   5.530   6.468   8.189  1.0599 -0.6133  1.5800
  616TIP3   OH223482   0.790   1.231   3.147  0.8662  0.3630  0.2405
  616TIP3    H123483   0.820   1.276   3.226  2.2047 -1.3004  0.7413
  616TIP3    H223484   0.782   1.139   3.172  0.3372 -0.0529 -1.3015
  617TIP3   OH223485   2.610   1.157   9.426 -0.6410  0.8219  0.0577
  617TIP3    H123486   2.534   1.118   9.384 -2.0295  2.7434  0.6382
  617TIP3    H223487   2.595   1.252   9.421  0.4090  1.2056  2.4952
  618TIP3   OH223488   1.315   5.990   8.410  0.0074  0.4788  0.0479
  618TIP3    H123489   1.403   6.026   8.404  0.7130 -1.4186 -2.6763
  618TIP3    H223490   1.298   5.953   8.324 -3.5939  0.9740  0.3657
  619TIP3   OH223491   0.221   0.999   8.847  0.4019  0.1433 -0.4782
  619TIP3    H123492   0.224   0.927   8.785 -1.2758 -1.2134  0.8799
  619TIP3    H223493   0.157   1.060   8.811  0.7439  0.2331 -0.9306
  620TIP3   OH223494   4.732   2.720   1.975  0.1869  0.6920 -0.4028
  620TIP3    H123495   4.812   2.774   1.976  0.5227  0.2257 -0.9756
  620TIP3    H223496   4.662   2.782   1.958  0.5590  0.9727 -0.9584
  621TIP3   OH223497   5.020   4.290   3.449 -0.3580 -0.8052 -0.3437
  621TIP3    H123498   4.954   4.352   3.417  2.0420  2.0848 -0.1098
  621TIP3    H223499   5.000   4.279   3.542  0.1930  1.1168  0.0367
  622TIP3   OH223500   1.074   0.768   9.088  0.4155 -0.0933  0.2484
  622TIP3    H123501   1.090   0.827   9.162 -2.0760 -1.7802  2.3071
  622TIP3    H223502   1.015   0.818   9.030  1.9544  1.0392 -0.4152
  623TIP3   OH223503   1.831   5.536   9.491 -0.0965 -0.0630  0.0139
  623TIP3    H123504   1.872   5.571   9.412  0.7952 -1.5456 -0.2223
  623TIP3    H223505   1.778   5.462   9.460 -0.7665  0.1356  0.6567
  624TIP3   OH223506   3.543   6.417   9.815  0.0522  0.1325  0.2939
  624TIP3    H123507   3.593   6.445   9.738 -0.1915  0.3163  0.2040
  624TIP3    H223508   3.490   6.344   9.783 -2.7804  2.4308 -0.6788
  625TIP3   OH223509   2.323   4.050   9.209 -0.1366 -0.4488  0.4120
  625TIP3    H123510   2.417   4.048   9.223  0.0194  1.4210 -0.0671
  625TIP3    H223511   2.295   4.135   9.242 -1.7535 -1.1352  0.9475
  626TIP3   OH223512   3.144   5.314   0.955 -0.0917  0.2194 -0.1140
  626TIP3    H123513   3.146   5.301   1.050  0.4110 -1.7437 -0.3639
  626TIP3    H223514   3.231   5.348   0.934  0.0944 -0.1817  0.0106
  627TIP3   OH223515   6.128   6.047   9.626  0.4347  0.1554 -0.0776
  627TIP3    H123516   6.111   5.974   9.565  0.3746 -1.1984  1.4836
  627TIP3    H223517   6.060   6.039   9.692  0.7547  1.3369  0.4179
  628TIP3   OH223518   0.166   1.421   1.990  0.0392  0.1069  0.4322
  628TIP3    H123519   0.252   1.378   1.987  0.2654  0.5216  0.7439
  628TIP3    H223520   0.159   1.454   2.080 -0.7336 -0.4872  0.5995
  629TIP3   OH223521   1.654   4.435   8.510 -0.0957  0.3040 -0.0379
  629TIP3    H123522   1.731   4.474   8.551 -0.7005 -0.0077  1.4655
  629TIP3    H223523   1.672   4.439   8.416  2.3955 -1.0442  0.2811
  630TIP3   OH223524   4.090   4.215   1.899  0.1143 -0.7168 -0.1038
  630TIP3    H123525   4.030   4.210   1.825 -1.3353  0.3127  0.9598
  630TIP3    H223526   4.104   4.308   1.913  1.5928 -0.9190  0.0148
  631TIP3   OH223527   0.458   3.302   7.960 -0.7985 -0.1647 -0.4325
  631TIP3    H123528   0.404   3.257   8.026 -0.3908 -0.6306 -0.4087
  631TIP3    H223529   0.440   3.395   7.973 -2.6953 -0.3563 -1.3510
  632TIP3   OH223530   5.040   5.574   1.447 -0.6091  0.2256 -0.4690
  632TIP3    H123531   4.955   5.572   1.403 -0.5310  1.3707 -0.7077
  632TIP3    H223532   5.102   5.599   1.378 -0.0280 -0.9089 -0.3652
  633TIP3   OH223533   4.218   2.739   9.327 -0.3618  0.0754  0.5888
  633TIP3    H123534   4.283   2.805   9.351  0.5251 -1.1097  1.5962
  633TIP3    H223535   4.266   2.656   9.330 -1.3677 -0.5913 -0.9685
  634TIP3   OH223536   4.943   2.001   2.592  0.1129  0.3493 -0.1000
  634TIP3    H123537   4.852   1.972   2.589  0.0290  0.6744 -1.4877
  634TIP3    H223538   4.993   1.921   2.610 -0.3408 -0.1215 -0.8807
  635TIP3   OH223539   3.561   2.419   2.383  0.2211 -0.2179 -0.2658
  635TIP3    H123540   3.468   2.397   2.373  0.2966 -0.0162 -1.6987
  635TIP3    H223541   3.562   2.487   2.450 -0.4802 -1.3503  0.9383
  636TIP3   OH223542   1.014   2.125   8.592 -0.1377  0.4065  0.1152
  636TIP3    H123543   1.031   2.087   8.506  0.9213  0.4349  0.3016
  636TIP3    H223544   0.922   2.104   8.610 -0.9655  2.0293 -1.8544
  637TIP3   OH223545   6.303   6.199   2.653 -0.0064 -0.5134 -0.0983
  637TIP3    H123546   6.340   6.131   2.709 -0.8110 -0.5144  0.4415
  637TIP3    H223547   6.283   6.271   2.712 -1.5571 -0.8027 -0.2459
  638TIP3   OH223548   5.839   1.562   2.837 -0.6572  0.3290 -0.2447
  638TIP3    H123549   5.898   1.488   2.854 -0.4539  0.8421  1.4885
  638TIP3    H223550   5.892   1.640   2.853 -0.8356  0.9061 -2.1725
  639TIP3   OH223551   1.420   3.350   0.614 -0.2122  0.0563 -0.3303
  639TIP3    H123552   1.411   3.419   0.679  0.5061  0.4099 -0.5891
  639TIP3    H223553   1.511   3.321   0.622 -1.2479 -3.0679  1.9327
  640TIP3   OH223554   1.807   0.420   7.666 -0.2779 -0.1788  0.3485
  640TIP3    H123555   1.737   0.361   7.639 -0.4565  0.0028  0.4158
  640TIP3    H223556   1.834   0.464   7.586  0.5034 -1.0367  0.1211
  641TIP3   OH223557   6.089   0.268   1.061 -0.0161 -0.0429  0.5314
  641TIP3    H123558   6.081   0.174   1.071 -1.4759  0.0689  0.5650
  641TIP3    H223559   6.010   0.295   1.015  0.5548  1.1243  0.1813
  642TIP3   OH223560   2.758   5.479   9.691  0.1213 -0.2728 -0.3707
  642TIP3    H123561   2.721   5.566   9.675 -0.7201 -0.4246  0.6519
  642TIP3    H223562   2.708   5.421   9.633 -0.2614 -0.2657 -0.0530
  643TIP3   OH223563   5.292   1.438   2.039  0.6586  0.2862  0.4390
  643TIP3    H123564   5.317   1.346   2.033  0.1579  0.0228  1.9750
  643TIP3    H223565   5.232   1.442   2.114  0.0696  1.7353 -0.0618
  644TIP3   OH223566   4.201   6.342   2.088 -0.4772  0.7382  0.2121
  644TIP3    H123567   4.144   6.355   2.164 -0.9831 -0.2514  0.0047
  644TIP3    H223568   4.269   6.282   2.119 -0.6425  0.3906 -0.0994
  645TIP3   OH223569   3.095   4.239   3.538  0.8671  0.1582 -0.2130
  645TIP3    H123570   3.091   4.332   3.560  1.9566 -0.1420  1.4517
  645TIP3    H223571   3.057   4.195   3.615  0.1866 -0.7830 -1.0624
  646TIP3   OH223572   0.006   5.496   8.781 -0.1516 -0.1569  0.6010
  646TIP3    H123573   0.096   5.485   8.750 -0.5712  0.2724 -0.8795
  646TIP3    H223574  -0.019   5.410   8.813  0.0547 -0.9011 -1.0944
  647TIP3   OH223575   2.657   4.681   8.893 -0.3088 -0.4116 -0.7551
  647TIP3    H123576   2.578   4.677   8.839 -0.1719  1.4220 -1.1690
  647TIP3    H223577   2.668   4.592   8.926 -1.1392 -1.2831 -2.6720
  648TIP3   OH223578   3.512   4.463   0.258  0.3418  0.1847  0.2957
  648TIP3    H123579   3.490   4.376   0.293 -1.9029  0.7395  0.4202
  648TIP3    H223580   3.450   4.477   0.187  0.2570  1.9155  0.6655
  649TIP3   OH223581   6.116   4.756   0.023 -0.2016  0.8522  0.1009
  649TIP3    H123582   6.052   4.685   0.028  1.2750 -0.4717  1.7618
  649TIP3    H223583   6.200   4.711   0.016  0.6651  2.5053 -0.5816
  650TIP3   OH223584   5.943   0.588   8.581  0.0955  0.2886  0.2963
  650TIP3    H123585   5.997   0.641   8.522 -0.6991  0.8917  0.0799
  650TIP3    H223586   5.915   0.514   8.527 -0.1633  0.5416  0.0731
  651TIP3   OH223587   0.171   5.702   1.115  0.3317  0.5820 -0.0488
  651TIP3    H123588   0.125   5.762   1.056  1.2855  0.3936 -1.0077
  651TIP3    H223589   0.111   5.690   1.189 -1.2871  0.1249 -1.3880
  652TIP3   OH223590   2.706   0.762   0.063 -0.1507  0.1513 -0.6937
  652TIP3    H123591   2.647   0.836   0.080 -0.8166 -0.5878  0.3796
  652TIP3    H223592   2.794   0.799   0.069 -0.4785  1.0940 -1.4066
  653TIP3   OH223593   4.940   0.552   2.156 -0.1257 -0.1067 -0.3426
  653TIP3    H123594   5.006   0.582   2.095  1.3146 -0.7162  0.8633
  653TIP3    H223595   4.902   0.632   2.192 -0.3264  0.2470 -1.3041
  654TIP3   OH223596   4.638   6.302   1.124 -0.4106 -0.3739 -0.6395
  654TIP3    H123597   4.582   6.356   1.179  0.7042 -0.1668  0.3317
  654TIP3    H223598   4.691   6.252   1.186  0.7529 -0.2735 -1.5236
  655TIP3   OH223599   5.268   4.076   1.659  0.0903 -0.0367 -0.6818
  655TIP3    H123600   5.189   4.029   1.685  0.8446 -0.4643  0.9768
  655TIP3    H223601   5.245   4.168   1.664 -0.0536 -0.1285  0.7606
  656TIP3   OH223602   0.152   4.114   2.925 -0.1662 -0.4374  0.5797
  656TIP3    H123603   0.191   4.190   2.881 -3.9255  0.0181 -2.5465
  656TIP3    H223604   0.147   4.140   3.017  1.4517  1.7965  0.1269
  657TIP3   OH223605   4.450   0.563   8.153 -0.0186  0.4472  0.2747
  657TIP3    H123606   4.543   0.587   8.153 -0.1145  0.9261 -0.8803
  657TIP3    H223607   4.430   0.546   8.061 -0.5943 -1.6693  0.7541
  658TIP3   OH223608   1.439   6.314   9.719  0.3060 -0.0149 -0.3053
  658TIP3    H123609   1.403   6.239   9.671  0.6797 -0.1915 -0.3097
  658TIP3    H223610   1.529   6.321   9.688 -0.1403  1.3237 -1.3729
  659TIP3   OH223611   4.161   5.451   1.210  0.0119 -0.1363  0.7245
  659TIP3    H123612   4.213   5.521   1.249 -0.0729  0.8509 -0.8346
  659TIP3    H223613   4.213   5.423   1.134 -1.1264 -0.0125 -0.1150
  660TIP3   OH223614   3.456   3.536   9.104 -0.6966 -0.8235 -0.5434
  660TIP3    H123615   3.398   3.483   9.049  0.3901  0.8763 -3.5405
  660TIP3    H223616   3.402   3.610   9.131 -0.7481 -0.7712 -0.7906
  661TIP3   OH223617   0.608   4.518   9.034 -0.0632  0.1795 -0.2848
  661TIP3    H123618   0.587   4.580   9.103 -1.3193  1.1101 -1.4547
  661TIP3    H223619   0.619   4.434   9.080 -1.3883  0.6637  0.9879
  662TIP3   OH223620   0.570   4.623   0.754 -0.3366  0.5539  0.0397
  662TIP3    H123621   0.581   4.644   0.847 -1.2218 -0.1851  0.3322
  662TIP3    H223622   0.484   4.581   0.750 -0.2912  0.5558 -1.1139
  663TIP3   OH223623   2.430   0.841   9.786  0.0376 -0.0770  0.0821
  663TIP3    H123624   2.492   0.769   9.797 -1.9012 -1.7423  0.8528
  663TIP3    H223625   2.377   0.815   9.710 -0.9529  0.3209  0.6201
  664TIP3   OH223626   4.135   5.219   8.957  0.0834 -0.1967  0.1028
  664TIP3    H123627   4.135   5.216   8.862 -1.7992 -0.6799  0.0961
  664TIP3    H223628   4.224   5.191   8.982 -0.0333 -2.1401 -1.4541
  665TIP3   OH223629   1.528   0.516   8.120  0.0321 -0.6959  0.2037
  665TIP3    H123630   1.571   0.483   8.041 -0.4034 -0.1349 -0.2819
  665TIP3    H223631   1.434   0.499   8.105 -0.1501  0.2882  0.1532
  666TIP3   OH223632   1.739   5.260   7.487 -0.6091  0.0273 -0.1640
  666TIP3    H123633   1.692   5.306   7.556 -1.0487 -1.2422  0.4148
  666TIP3    H223634   1.819   5.311   7.474 -0.0816 -0.1950  1.9240
  667TIP3   OH223635   2.934   0.713   1.866 -0.2715 -0.2453 -0.1244
  667TIP3    H123636   2.922   0.696   1.959 -0.4521 -1.7017 -0.3922
  667TIP3    H223637   2.949   0.807   1.860  0.7117 -0.2814  1.4662
  668TIP3   OH223638   5.411   4.285   1.053 -0.8189 -0.0789  0.2075
  668TIP3    H123639   5.491   4.323   1.089 -0.8417  0.6667 -0.4921
  668TIP3    H223640   5.349   4.286   1.125 -0.0870 -1.0555  0.8855
  669TIP3   OH223641   0.121   3.543   8.824  0.2704 -0.0156  0.7955
  669TIP3    H123642   0.064   3.540   8.747 -0.5980 -0.4941  1.4319
  669TIP3    H223643   0.148   3.635   8.830 -2.3463  0.7892  1.7769
  670TIP3   OH223644   6.356   3.402   2.303 -0.0316  0.0620  0.3818
  670TIP3    H123645   6.360   3.471   2.370  0.2343  0.3339  0.0890
  670TIP3    H223646   6.336   3.448   2.222  1.3211 -0.0427 -0.0328
  671TIP3   OH223647   4.582   6.143   8.568 -0.5985 -0.2731 -0.1175
  671TIP3    H123648   4.674   6.119   8.574  0.2390  2.6883  0.3303
  671TIP3    H223649   4.575   6.191   8.485 -1.1570  1.5049  0.8973
  672TIP3   OH223650   4.676   2.873   8.693 -0.1809 -0.4844  0.5868
  672TIP3    H123651   4.619   2.945   8.720 -1.0147 -1.3644  1.2586
  672TIP3    H223652   4.649   2.853   8.604 -0.3247 -0.3298  0.5953
  673TIP3   OH223653   1.865   2.997   1.050  0.0216 -0.0067 -0.3865
  673TIP3    H123654   1.780   2.973   1.012  0.0221 -0.8156  0.1097
  673TIP3    H223655   1.913   2.915   1.056  0.3448  0.2385  0.5515
  674TIP3   OH223656   0.058   2.545   0.879  0.8535  0.1234 -0.6084
  674TIP3    H123657   0.127   2.577   0.820  1.3758 -2.6167 -1.6648
  674TIP3    H223658   0.106   2.503   0.950  0.2611 -0.1360 -0.3584
  675TIP3   OH223659   2.831   6.243   8.918 -0.5095 -0.2971  0.0217
  675TIP3    H123660   2.761   6.182   8.942 -0.2910 -0.5279  0.0723
  675TIP3    H223661   2.905   6.187   8.894  0.4778 -0.1014  2.3059
  676TIP3   OH223662   1.140   2.724   2.349  0.2066  0.1940  0.1020
  676TIP3    H123663   1.213   2.773   2.313  0.8134 -0.9909 -0.3250
  676TIP3    H223664   1.166   2.703   2.439  1.3116 -1.9057 -0.6344
  677TIP3   OH223665   2.542   4.716   2.459  0.4171  0.2716  0.0019
  677TIP3    H123666   2.450   4.742   2.463  0.1730 -0.2524 -1.7131
  677TIP3    H223667   2.585   4.787   2.411  0.8693  0.3524  0.5106
  678TIP3   OH223668   3.324   4.553   2.810  0.3147  0.5556  0.0832
  678TIP3    H123669   3.337   4.463   2.779 -0.2326  0.7492 -0.7418
  678TIP3    H223670   3.290   4.543   2.899  1.6724 -0.0179  0.5640
  679TIP3   OH223671   0.429   3.042   2.006 -0.3133 -0.1564  0.1864
  679TIP3    H123672   0.353   3.025   1.950 -0.1897  0.7831 -0.2778
  679TIP3    H223673   0.393   3.089   2.082  0.0296  2.0728 -0.9491
  680TIP3   OH223674   2.842   2.266   2.620  0.5480 -0.8535  0.6217
  680TIP3    H123675   2.852   2.200   2.552  0.7756 -1.8711  1.6103
  680TIP3    H223676   2.755   2.252   2.656 -0.0701  0.5043 -0.2787
  681TIP3   OH223677   0.278   0.997   2.008 -0.1149  0.6283  0.4852
  681TIP3    H123678   0.203   1.042   1.970  0.0686  0.4912 -0.0516
  681TIP3    H223679   0.348   1.063   2.006  0.3588  0.1214 -0.9792
  682TIP3   OH223680   2.457   3.363   2.456  0.6172 -0.2285  0.0491
  682TIP3    H123681   2.421   3.309   2.527 -1.3267  0.0100 -0.7060
  682TIP3    H223682   2.461   3.304   2.381  0.2482  0.1924 -0.3025
  683TIP3   OH223683   1.551   2.812   0.767  0.0353 -0.0697  0.6107
  683TIP3    H123684   1.517   2.824   0.679 -1.1824 -0.7535  0.9588
  683TIP3    H223685   1.633   2.861   0.768 -0.1820  0.3713 -0.7360
  684TIP3   OH223686   4.955   1.962   2.105 -0.2316  0.3459  0.1995
  684TIP3    H123687   4.872   1.955   2.153 -0.3021  0.0602  0.0359
  684TIP3    H223688   5.022   1.947   2.171 -0.3421 -0.7475  0.0875
  685TIP3   OH223689   1.965   2.882   9.861  0.1429 -0.1704 -0.2737
  685TIP3    H123690   1.921   2.817   9.808 -0.7139 -0.6463  0.9631
  685TIP3    H223691   1.942   2.966   9.821 -0.6167 -0.5057 -0.5464
  686TIP3   OH223692   5.594   3.059   2.517 -0.0601  0.1562 -0.3445
  686TIP3    H123693   5.507   3.040   2.482  0.3925  0.1340 -1.5093
  686TIP3    H223694   5.578   3.114   2.594 -1.1749 -1.1427  0.4004
  687TIP3   OH223695   4.523   1.517   8.014  0.0769 -0.0198  0.1883
  687TIP3    H123696   4.589   1.449   7.995 -0.0618 -0.1189  0.0640
  687TIP3    H223697   4.471   1.523   7.934 -1.7556 -1.8316  1.1357
  688TIP3   OH223698   3.730   6.282   1.597 -0.0240  0.1656 -0.1753
  688TIP3    H123699   3.807   6.335   1.575 -0.8899  0.5664 -2.4511
  688TIP3    H223700   3.758   6.191   1.584  0.4889  0.2213  0.4952
  689TIP3   OH223701   2.075   2.432   8.999 -0.2702 -0.2087  0.0144
  689TIP3    H123702   2.164   2.464   9.017  0.4331 -2.2835  0.5151
  689TIP3    H223703   2.033   2.428   9.085 -0.7671  0.5147 -0.1907
  690TIP3   OH223704   6.097   2.682   9.917 -0.2397  0.3698 -0.3335
  690TIP3    H123705   6.067   2.678   9.826 -0.7455  0.7237 -0.1882
  690TIP3    H223706   6.145   2.600   9.929  2.9057  1.8306 -1.9242
  691TIP3   OH223707   1.501   2.244   1.716  0.0225 -0.9059  0.0647
  691TIP3    H123708   1.524   2.240   1.808  0.8406  0.5870 -0.0489
  691TIP3    H223709   1.531   2.161   1.680  0.1027 -1.3136  1.0364
  692TIP3   OH223710   1.585   3.128   1.398  0.1145 -0.1996 -0.3821
  692TIP3    H123711   1.624   3.041   1.402 -0.5402 -0.5339 -0.9411
  692TIP3    H223712   1.642   3.177   1.340 -0.4080 -0.7633 -1.4109
  693TIP3   OH223713   5.285   2.853   2.790 -0.1237 -0.2822  0.1965
  693TIP3    H123714   5.218   2.840   2.723  0.6100  1.7673 -1.0201
  693TIP3    H223715   5.270   2.941   2.823  2.7525  0.8244 -1.1153
  694TIP3   OH223716   4.264   0.158   2.286 -0.2968  0.3529 -0.1232
  694TIP3    H123717   4.233   0.079   2.330  1.7643 -0.4935 -0.1136
  694TIP3    H223718   4.184   0.206   2.265 -1.6472 -1.9222 -0.5251
  695TIP3   OH223719   5.594   0.169   0.913 -0.3388 -0.2512 -0.3365
  695TIP3    H123720   5.575   0.232   0.843 -0.7254 -1.4460 -1.3469
  695TIP3    H223721   5.514   0.169   0.966 -0.7217 -0.5704 -0.8918
  696TIP3   OH223722   5.395   1.826   1.143 -0.4006  0.6421 -0.2564
  696TIP3    H123723   5.382   1.748   1.197  0.7303  1.2097  0.9124
  696TIP3    H223724   5.306   1.858   1.126 -0.8296 -0.1149  0.4544
  697TIP3   OH223725   2.757   0.371   0.396 -0.1832  0.2782 -0.4802
  697TIP3    H123726   2.730   0.431   0.327  0.9185 -0.9065 -1.9926
  697TIP3    H223727   2.756   0.285   0.355  2.3654 -0.2410  0.3965
  698TIP3   OH223728   2.081   0.735   9.729  0.1257  0.0752 -0.2943
  698TIP3    H123729   2.120   0.648   9.718  1.2443  0.3852  0.8973
  698TIP3    H223730   2.120   0.789   9.660  0.6503  0.0056 -0.0582
  699TIP3   OH223731   1.057   2.251   0.034  0.3785  0.4023  0.1202
  699TIP3    H123732   0.993   2.287  -0.027  1.1282 -0.3893 -1.1616
  699TIP3    H223733   1.060   2.315   0.106 -0.9849  1.0191 -0.3408
  700TIP3   OH223734   4.370   1.079   2.295 -0.1734  0.0080 -0.0500
  700TIP3    H123735   4.429   1.096   2.368  0.3613 -0.1849 -0.4278
  700TIP3    H223736   4.284   1.107   2.326  0.0820  0.1098  0.5783
  701TIP3   OH223737   2.529   2.129   1.089  0.1806  0.3434 -0.2006
  701TIP3    H123738   2.515   2.055   1.030  1.2132  0.2262 -0.3232
  701TIP3    H223739   2.592   2.096   1.153  1.5175  1.4410 -0.9100
  702TIP3   OH223740   3.176   2.014   9.760 -0.3986 -0.2604  0.0674
  702TIP3    H123741   3.179   2.101   9.721 -1.6264 -0.3320 -0.2212
  702TIP3    H223742   3.246   1.965   9.716  1.2404  0.9550  1.2221
  703TIP3   OH223743   6.313   4.627   3.414  0.5988 -0.4069 -0.0731
  703TIP3    H123744   6.282   4.657   3.499  1.7037 -0.7943  0.4815
  703TIP3    H223745   6.279   4.538   3.405  0.3911 -0.3269 -0.0948
  704TIP3   OH223746   4.773   4.726   1.348  0.4273 -0.5387  0.2810
  704TIP3    H123747   4.840   4.768   1.294 -0.5004  0.7483  0.0997
  704TIP3    H223748   4.696   4.721   1.292  0.0732 -1.0826  0.8121
  705TIP3   OH223749   2.404   1.166   8.922  0.0471  0.0114 -0.2586
  705TIP3    H123750   2.411   1.177   8.827 -0.4043  0.8352 -0.2071
  705TIP3    H223751   2.492   1.188   8.955  0.0849  0.1580 -0.4540
  706TIP3   OH223752   2.571   5.233   1.809 -0.3635  0.2068 -0.2178
  706TIP3    H123753   2.631   5.307   1.813  0.6347 -0.6562  1.6060
  706TIP3    H223754   2.590   5.192   1.725 -0.3489  1.5053 -0.8793
  707TIP3   OH223755   1.848   4.025   0.420 -0.0670 -0.2778  0.6134
  707TIP3    H123756   1.920   3.984   0.373 -1.3058 -1.5557 -0.2572
  707TIP3    H223757   1.816   4.092   0.359 -0.8634 -1.0790  0.1163
  708TIP3   OH223758   2.459   5.538   8.833  0.0047  0.0523 -0.0022
  708TIP3    H123759   2.505   5.548   8.916 -1.5573  0.8353  0.8137
  708TIP3    H223760   2.397   5.466   8.848 -0.8055  0.6874 -0.2312
  709TIP3   OH223761   5.234   0.494   8.130  0.7894  0.7547 -0.8741
  709TIP3    H123762   5.183   0.444   8.195  1.5700  0.0650 -0.7783
  709TIP3    H223763   5.193   0.471   8.046 -0.0159  1.3967 -0.6735
  710TIP3   OH223764   2.101   2.268   0.108  0.2584  0.1046  0.3190
  710TIP3    H123765   2.084   2.349   0.060  1.1593 -0.2370 -0.6288
  710TIP3    H223766   2.036   2.267   0.178 -1.7187  0.2291 -1.3920
  711TIP3   OH223767   5.403   0.170   0.273  0.3548 -0.3481 -0.0454
  711TIP3    H123768   5.459   0.240   0.307 -0.6256  0.1169  0.6838
  711TIP3    H223769   5.323   0.177   0.325 -0.7409 -0.4040 -1.6499
  712TIP3   OH223770   5.764   4.740   2.534  0.8350 -0.1234  0.0057
  712TIP3    H123771   5.700   4.688   2.582 -1.9129  1.2201 -1.9204
  712TIP3    H223772   5.742   4.831   2.554  2.0312  0.3914 -0.8490
  713TIP3   OH223773   5.633   0.414   9.223  0.3796  0.2084 -0.3719
  713TIP3    H123774   5.548   0.370   9.218 -0.1790  1.1971  0.0021
  713TIP3    H223775   5.649   0.426   9.316  0.5824  0.6601 -0.4599
  714TIP3   OH223776   4.207   2.956   0.431  0.0844  0.5821  0.1831
  714TIP3    H123777   4.146   2.955   0.504 -2.1560 -0.2761 -1.5674
  714TIP3    H223778   4.209   3.048   0.402 -1.4587  0.4245 -0.5215
  715TIP3   OH223779   5.539   3.366   9.183 -0.0158 -0.3747 -0.1056
  715TIP3    H123780   5.558   3.443   9.129 -1.4618  0.2412  0.1899
  715TIP3    H223781   5.577   3.293   9.135 -0.8088  0.2131 -1.7360
  716TIP3   OH223782   4.037   5.928   4.022 -0.1708 -0.0455  0.2185
  716TIP3    H123783   3.950   5.934   3.982  0.0608 -1.4804 -0.5842
  716TIP3    H223784   4.041   6.003   4.082 -1.6393  0.5164 -0.3238
  717TIP3   OH223785   6.111   4.358   1.894 -0.2038  0.8351  0.1486
  717TIP3    H123786   6.183   4.418   1.874 -0.0927  1.2133  1.5706
  717TIP3    H223787   6.090   4.317   1.810  1.3804  1.0269 -0.3738
  718TIP3   OH223788   4.440   3.794   2.873  0.2796  0.1332 -0.2900
  718TIP3    H123789   4.375   3.858   2.846  0.5385  0.3952 -0.2898
  718TIP3    H223790   4.444   3.802   2.968 -1.3577 -1.4760 -0.0252
  719TIP3   OH223791   2.083   1.573  10.011  0.0584  0.3994 -0.0769
  719TIP3    H123792   2.007   1.514  10.006  0.8779 -0.6107 -4.0489
  719TIP3    H223793   2.044   1.660  10.021 -1.6999 -0.1040 -1.7826
  720TIP3   OH223794   5.904   0.783   1.929  0.2465 -0.0856  0.4823
  720TIP3    H123795   5.839   0.726   1.971 -0.4341  1.8232  2.1688
  720TIP3    H223796   5.977   0.787   1.991 -0.2045  1.7284  0.9518
  721TIP3   OH223797   2.065   1.394   7.864  0.0621 -0.2275 -0.1964
  721TIP3    H123798   1.983   1.387   7.815  0.5895 -1.4793 -0.9441
  721TIP3    H223799   2.125   1.336   7.818  0.5982 -1.4314  1.8998
  722TIP3   OH223800   5.073   5.802   8.804 -1.0601  0.3080 -0.2173
  722TIP3    H123801   5.055   5.882   8.756  2.0788  0.5788 -1.1372
  722TIP3    H223802   5.047   5.732   8.744 -3.1299  0.5485  0.3106
  723TIP3   OH223803   2.602   0.428   0.610  0.0798  0.3296 -0.3835
  723TIP3    H123804   2.511   0.424   0.581 -0.1982  0.6075  0.4183
  723TIP3    H223805   2.653   0.405   0.532 -0.6833 -0.1587 -0.7536
  724TIP3   OH223806   3.774   0.380   9.057 -0.0560  0.2416 -0.3816
  724TIP3    H123807   3.860   0.340   9.069  0.0336  0.3869 -0.5370
  724TIP3    H223808   3.716   0.307   9.036 -0.2437 -0.0560  1.0206
  725TIP3   OH223809   5.277   2.649   1.839 -0.0959  0.3137  0.0135
  725TIP3    H123810   5.218   2.713   1.799 -2.7368  0.2243  3.2913
  725TIP3    H223811   5.242   2.564   1.813 -0.9131  0.2594  1.2334
  726TIP3   OH223812   5.863   4.004   3.172 -0.2813  0.2757 -0.2627
  726TIP3    H123813   5.853   3.998   3.267 -0.7829  2.3641 -0.1480
  726TIP3    H223814   5.944   4.053   3.159 -0.1213 -0.1585 -0.9217
  727TIP3   OH223815   0.622   1.735   0.585 -0.1191 -0.0226 -0.4844
  727TIP3    H123816   0.673   1.655   0.598 -1.2320 -0.5726  0.6951
  727TIP3    H223817   0.609   1.740   0.491 -1.6810 -2.3385 -0.4876
  728TIP3   OH223818   3.604   4.421   1.508  0.2049  0.0142 -0.1849
  728TIP3    H123819   3.585   4.329   1.526 -0.4652  0.1472 -0.2015
  728TIP3    H223820   3.660   4.449   1.580 -2.3687  0.5361  1.7385
  729TIP3   OH223821   6.188   6.082   3.484  0.2332  0.3365 -0.1766
  729TIP3    H123822   6.274   6.067   3.444  0.0974  2.1239 -1.2697
  729TIP3    H223823   6.183   6.019   3.555  1.0423 -2.1629 -2.1724
  730TIP3   OH223824   1.044   0.403   1.242  0.4182  0.2190  0.8160
  730TIP3    H123825   1.087   0.358   1.315 -0.9242  1.1352  2.2318
  730TIP3    H223826   0.964   0.439   1.280 -1.1030 -0.5446 -1.4754
  731TIP3   OH223827   3.488   0.477   2.013 -0.2003  0.5634 -0.2084
  731TIP3    H123828   3.578   0.503   1.996  0.1056 -0.3787 -0.0782
  731TIP3    H223829   3.487   0.382   1.999 -1.4392  0.7046 -1.4356
  732TIP3   OH223830   5.306   6.419   0.084  0.5111 -0.2472 -0.2096
  732TIP3    H123831   5.349   6.456   0.161 -0.1038 -0.1707  0.1085
  732TIP3    H223832   5.226   6.379   0.119 -0.3726  0.8203 -0.9674
  733TIP3   OH223833   2.767   3.654   1.679  0.4758  0.6043  0.1333
  733TIP3    H123834   2.750   3.720   1.746  0.1152  0.9697 -0.3133
  733TIP3    H223835   2.862   3.655   1.668  0.5452  0.4963  0.6795
  734TIP3   OH223836   4.012   2.904   3.205 -0.0126  0.0597  0.9190
  734TIP3    H123837   3.928   2.861   3.185  1.0812 -1.6364 -0.2897
  734TIP3    H223838   4.045   2.857   3.281  1.4371 -1.7547 -0.7245
  735TIP3   OH223839   1.626   4.038   0.069  0.4149 -0.1395  0.2885
  735TIP3    H123840   1.702   3.989   0.036  0.2708  0.6755 -1.3380
  735TIP3    H223841   1.664   4.116   0.109  0.4982 -0.3864  0.7011
  736TIP3   OH223842   2.373   2.830   8.166 -0.4611  0.0018 -0.1598
  736TIP3    H123843   2.459   2.870   8.173  0.1802 -1.4536  0.7807
  736TIP3    H223844   2.355   2.798   8.254 -0.5960 -2.3909 -0.9878
  737TIP3   OH223845   6.072   0.347   2.648  0.5986  0.0264  0.5751
  737TIP3    H123846   6.155   0.391   2.631  0.3657  0.8643  1.5012
  737TIP3    H223847   6.091   0.287   2.720  0.4626  0.0741  0.6525
  738TIP3   OH223848   2.228   0.482   7.710  0.0552 -0.1943  0.1784
  738TIP3    H123849   2.187   0.517   7.630  1.8853  0.9847 -0.3051
  738TIP3    H223850   2.160   0.428   7.750 -1.6258  0.8864 -1.0746
  739TIP3   OH223851   2.096   3.010   0.508  0.0329  0.1093  0.5633
  739TIP3    H123852   2.151   2.948   0.556  1.8961  0.8055 -0.5359
  739TIP3    H223853   2.058   2.959   0.436 -0.6386 -0.3434  1.2339
  740TIP3   OH223854   2.021   1.691   7.831 -0.1893  0.4457  0.1699
  740TIP3    H123855   2.029   1.680   7.736  1.3065 -0.3713  0.3519
  740TIP3    H223856   2.086   1.758   7.853 -1.0097  1.1362  0.5481
  741TIP3   OH223857   6.319   1.251   2.068  0.3438 -0.4014 -0.0183
  741TIP3    H123858   6.358   1.164   2.070  1.1326 -0.0421  1.0012
  741TIP3    H223859   6.360   1.294   1.993 -0.7510 -1.1922 -1.1177
  742TIP3   OH223860   5.260   2.678   2.999 -0.0740  0.1909 -0.1410
  742TIP3    H123861   5.247   2.731   2.921 -1.0196  1.2326  0.6954
  742TIP3    H223862   5.347   2.704   3.031  0.5948 -0.7085 -1.1731
  743TIP3   OH223863   2.955   2.934   0.614 -0.6627 -0.3103 -0.6249
  743TIP3    H123864   2.968   3.002   0.548 -0.6042  0.8444  0.5330
  743TIP3    H223865   3.039   2.888   0.618 -0.4950 -0.0392 -0.9737
  744TIP3   OH223866   2.546   5.885   0.375 -0.4799  0.2920  0.2537
  744TIP3    H123867   2.527   5.943   0.449  0.5877  2.0352 -0.7586
  744TIP3    H223868   2.628   5.841   0.399 -0.4786  0.3591  0.3735
  745TIP3   OH223869   5.665   2.176   1.279 -0.4538  0.6139 -0.1780
  745TIP3    H123870   5.731   2.125   1.234 -0.8197 -0.7328  0.7383
  745TIP3    H223871   5.591   2.180   1.219  0.2349  1.6638 -0.9855
  746TIP3   OH223872   2.353   4.927   0.675 -0.8101  0.4127 -0.1338
  746TIP3    H123873   2.398   5.007   0.649  1.1935  0.0088  1.8016
  746TIP3    H223874   2.397   4.857   0.627  0.6234  0.0328  1.6374
  747TIP3   OH223875   1.092   0.306   8.812  0.3043  0.6287  0.5429
  747TIP3    H123876   1.174   0.259   8.828 -0.2066  0.1458  1.8275
  747TIP3    H223877   1.031   0.238   8.785  0.0784  0.8579  0.4725
  748TIP3   OH223878   1.132   5.050   1.499 -0.7761 -0.2118  0.2225
  748TIP3    H123879   1.114   5.144   1.500 -0.6953 -0.1922 -0.1160
  748TIP3    H223880   1.123   5.025   1.407 -2.9623 -0.9531  0.5759
  749TIP3   OH223881   3.358   1.364   0.892  0.9597 -0.0268  0.1162
  749TIP3    H123882   3.290   1.329   0.834  1.8916 -2.1175  0.1773
  749TIP3    H223883   3.315   1.436   0.939 -0.9682 -0.7816 -0.3933
  750TIP3   OH223884   3.457   5.435   0.500  0.4064  1.3111 -0.3601
  750TIP3    H123885   3.516   5.467   0.433 -1.8785  3.0179 -1.7114
  750TIP3    H223886   3.381   5.493   0.495 -1.0952 -0.2912  1.7498
  751TIP3   OH223887   4.691   0.304   2.428 -0.0971 -0.4812 -0.1215
  751TIP3    H123888   4.605   0.294   2.388  0.6450 -0.4623 -1.8000
  751TIP3    H223889   4.717   0.216   2.453 -0.5464 -0.5004  0.2848
  752TIP3   OH223890   4.305   1.698   1.491 -0.4340  0.3407 -0.6802
  752TIP3    H123891   4.211   1.686   1.504 -0.1757 -1.3930 -0.2268
  752TIP3    H223892   4.346   1.642   1.556  0.9133 -0.2774 -2.0072
  753TIP3   OH223893   0.723   3.185   1.850  0.3926  0.7653 -0.4098
  753TIP3    H123894   0.634   3.149   1.848  0.6657 -0.0818  1.0267
  753TIP3    H223895   0.727   3.244   1.775 -0.8310 -0.4675 -1.4899
  754TIP3   OH223896   5.847   1.366   8.652 -0.1393 -0.1796  0.3588
  754TIP3    H123897   5.766   1.379   8.603  0.5497 -0.0748 -0.7842
  754TIP3    H223898   5.892   1.296   8.604  1.3519  1.1196 -0.2206
  755TIP3   OH223899   2.039   1.810   0.280 -0.0789 -0.2882 -0.7890
  755TIP3    H123900   2.003   1.823   0.192 -1.0222 -0.3728 -0.4191
  755TIP3    H223901   2.013   1.888   0.329  0.5548 -0.1812 -0.6052
  756TIP3   OH223902   3.915   5.293   8.468  0.1020  0.7977 -0.1086
  756TIP3    H123903   3.999   5.301   8.422  0.8734 -1.1939  0.8224
  756TIP3    H223904   3.884   5.205   8.446 -1.3559  1.1895  0.2412
  757TIP3   OH223905   2.950   0.656   7.992  0.2171  0.2050  0.5632
  757TIP3    H123906   2.940   0.572   7.947  0.0211  1.4900 -1.9903
  757TIP3    H223907   3.003   0.709   7.932  1.7063  1.4316  2.8248
  758TIP3   OH223908   2.821   3.455   2.762  0.1630 -0.6702  0.6130
  758TIP3    H123909   2.807   3.533   2.816  3.2655  0.8910 -0.5620
  758TIP3    H223910   2.766   3.469   2.685 -1.1236 -0.8582  1.4764
  759TIP3   OH223911   6.115   3.028   3.650 -0.4312  1.1450  0.9057
  759TIP3    H123912   6.173   2.992   3.583 -0.0102  0.3830  1.6610
  759TIP3    H223913   6.130   3.122   3.647 -0.0410  1.0683  0.2808
  760TIP3   OH223914   3.249   3.157   2.102 -0.1917  0.2455  0.6291
  760TIP3    H123915   3.269   3.243   2.137  0.3205 -0.1539  1.3519
  760TIP3    H223916   3.274   3.096   2.172 -0.1664 -0.5068 -0.0188
  761TIP3   OH223917   1.484   3.986   1.789  0.2577 -0.0454  0.0139
  761TIP3    H123918   1.501   3.895   1.762 -1.6092 -0.6895  0.8078
  761TIP3    H223919   1.544   4.038   1.736 -0.3113 -1.5418 -2.2803
  762TIP3   OH223920   5.884   3.673   3.582  0.2037 -0.0737  0.2596
  762TIP3    H123921   5.817   3.611   3.609  0.7218 -1.8641 -2.1685
  762TIP3    H223922   5.957   3.658   3.642  0.7506 -2.7457 -0.9554
  763TIP3   OH223923   4.549   5.774   9.618 -0.2198 -0.0920 -0.3571
  763TIP3    H123924   4.496   5.694   9.624 -0.2113 -0.0535  0.3419
  763TIP3    H223925   4.613   5.755   9.549  1.0429 -1.4763  1.0876
  764TIP3   OH223926   0.267   3.339   2.466  0.1146  0.9538 -0.7841
  764TIP3    H123927   0.254   3.247   2.492 -0.6403  1.2968  0.1155
  764TIP3    H223928   0.187   3.383   2.493  1.2612  2.2812  0.6278
  765TIP3   OH223929   0.910   2.555   2.710  0.1145 -0.2823  0.1678
  765TIP3    H123930   0.873   2.643   2.717 -0.7437 -0.5801 -0.4132
  765TIP3    H223931   0.960   2.543   2.791 -0.3479  0.4595  0.5744
  766TIP3   OH223932   0.590   3.082   1.220 -0.4823  0.0894 -0.3477
  766TIP3    H123933   0.594   3.072   1.316  0.0460 -0.1967 -0.3908
  766TIP3    H223934   0.551   3.000   1.189  0.6747 -0.4413 -0.4663
  767TIP3   OH223935   5.202   3.845   2.506  0.1607 -0.5857 -0.5183
  767TIP3    H123936   5.152   3.921   2.475  1.2145 -0.3244 -1.6390
  767TIP3    H223937   5.196   3.782   2.434 -0.8684 -1.6646  0.4796
  768TIP3   OH223938   3.166   3.224   1.570 -0.1965 -0.2175  0.3880
  768TIP3    H123939   3.089   3.275   1.545 -0.6069 -1.0998 -0.2144
  768TIP3    H223940   3.222   3.286   1.617 -1.0662  0.5514  0.4372
  769TIP3   OH223941   6.229   4.968   2.181  0.1175 -0.1099 -0.2415
  769TIP3    H123942   6.309   5.001   2.139 -0.1622  1.5282  0.4186
  769TIP3    H223943   6.184   5.047   2.212 -0.6575 -1.1355  1.3924
  770TIP3   OH223944   4.148   2.113   9.176 -0.1999  0.0235 -0.4546
  770TIP3    H123945   4.240   2.116   9.151 -0.1700 -2.2584 -0.7834
  770TIP3    H223946   4.134   2.194   9.225  2.2873 -0.1237  0.6416
  771TIP3   OH223947   2.901   0.208   9.332 -0.2966  0.5742  0.5226
  771TIP3    H123948   2.886   0.127   9.282 -1.2263  0.6521  0.6584
  771TIP3    H223949   2.920   0.178   9.421  1.8052  0.4160  0.0584
  772TIP3   OH223950   5.191   4.826   0.269 -0.6176  0.1375 -0.1137
  772TIP3    H123951   5.228   4.738   0.258 -2.3264 -0.4859 -1.2756
  772TIP3    H223952   5.221   4.875   0.193  2.3130  1.4138  1.6596
  773TIP3   OH223953   5.627   1.775   2.804 -0.0364  0.6752 -0.4994
  773TIP3    H123954   5.707   1.726   2.784 -1.3334 -1.2210 -1.2214
  773TIP3    H223955   5.659   1.858   2.840  2.3010  0.8878 -2.7578
  774TIP3   OH223956   0.151   0.996   7.713 -0.4884  0.6015 -0.4899
  774TIP3    H123957   0.059   0.970   7.703 -0.7563  0.9679  0.8499
  774TIP3    H223958   0.184   0.942   7.784 -0.2028  1.7671  0.2850
  775TIP3   OH223959   4.107   4.794   1.195  0.8858  0.1884 -0.2969
  775TIP3    H123960   4.150   4.763   1.115 -0.7037  2.4948 -2.1789
  775TIP3    H223961   4.053   4.720   1.223 -0.0889 -0.0675 -2.5952
  776TIP3   OH223962   4.805   6.096   8.981 -0.1704  0.3326  0.5839
  776TIP3    H123963   4.786   6.179   9.024 -1.1767  0.6427 -0.4042
  776TIP3    H223964   4.847   6.043   9.048  0.4091  1.6019  1.2496
  777TIP3   OH223965   3.469   1.728   1.533 -0.1851  0.0290  0.1665
  777TIP3    H123966   3.400   1.787   1.505  0.0465 -0.7463 -2.2526
  777TIP3    H223967   3.546   1.755   1.482  0.1392 -1.7642 -0.3716
  778TIP3   OH223968   2.256   5.971   1.168  0.5115 -0.1775  0.0209
  778TIP3    H123969   2.176   5.918   1.176  1.6151 -1.8516  0.2909
  778TIP3    H223970   2.283   5.960   1.077  0.3822  0.5026 -0.1066
  779TIP3   OH223971   4.410   4.188   1.768  0.3397  0.4015 -0.4521
  779TIP3    H123972   4.351   4.138   1.712  1.8946 -0.9991 -0.9192
  779TIP3    H223973   4.451   4.122   1.824  0.4161  1.5175  0.8734
  780TIP3   OH223974   1.210   4.254   7.931 -0.3400 -0.5162 -0.4493
  780TIP3    H123975   1.202   4.238   7.837 -0.2855  0.3490 -0.6090
  780TIP3    H223976   1.167   4.339   7.945  0.8891  0.0524  0.0604
  781TIP3   OH223977   0.566   3.797   1.120 -0.1809  0.4525 -0.8521
  781TIP3    H123978   0.548   3.752   1.038 -0.4400 -0.6717 -0.2098
  781TIP3    H223979   0.641   3.854   1.101 -1.5590  1.8314 -2.4026
  782TIP3   OH223980   1.293   0.502   1.167  0.2562 -0.1288 -0.4512
  782TIP3    H123981   1.232   0.430   1.183  0.9240 -0.4925  0.5643
  782TIP3    H223982   1.246   0.580   1.197  0.0901 -0.3412 -0.1478
  783TIP3   OH223983   5.071   0.042   8.952  0.3658 -0.3514  0.0463
  783TIP3    H123984   5.060  -0.003   8.868  1.5273 -1.0153  0.2212
  783TIP3    H223985   5.118  -0.021   9.007 -1.0244 -0.2139  1.4587
  784TIP3   OH223986   3.715   2.413   1.756 -0.3665  0.3011  0.4313
  784TIP3    H123987   3.783   2.347   1.743  0.5778  1.2825  0.2217
  784TIP3    H223988   3.648   2.368   1.807  1.0709 -0.3109  1.8867
  785TIP3   OH223989   4.761   1.973   9.336 -0.3453  0.1320 -0.6139
  785TIP3    H123990   4.742   1.926   9.255 -0.0152 -0.0037 -0.6177
  785TIP3    H223991   4.827   2.037   9.311  3.7261 -3.1671  0.4222
  786TIP3   OH223992   2.024   1.300   2.045  0.0339  0.4981 -0.7186
  786TIP3    H123993   2.080   1.372   2.074 -0.5948  1.0250 -0.8050
  786TIP3    H223994   1.954   1.296   2.109 -0.1605  0.2299 -0.9440
  787TIP3   OH223995   0.153   3.669   9.479 -0.5316  0.4689 -0.6344
  787TIP3    H123996   0.233   3.617   9.469 -1.1139 -0.8486  1.0931
  787TIP3    H223997   0.082   3.606   9.466 -1.2709  0.6591  1.8834
  788TIP3   OH223998   5.643   5.247   2.604 -0.6246  0.1117 -0.1450
  788TIP3    H123999   5.602   5.288   2.528  1.2852  1.0817 -0.7130
  788TIP3    H224000   5.668   5.321   2.660  0.5260 -0.4296  0.0742
  789TIP3   OH224001   0.311   0.626   9.281  0.5610 -1.0588 -0.1690
  789TIP3    H124002   0.372   0.682   9.232 -1.1833 -0.3366 -1.6211
  789TIP3    H224003   0.241   0.607   9.219 -1.3783 -0.7759  1.8152
  790TIP3   OH224004   1.487   1.440   0.653  0.2271  0.1703 -0.0849
  790TIP3    H124005   1.425   1.387   0.704  0.8907 -2.9798 -2.2918
  790TIP3    H224006   1.573   1.410   0.681  0.6554  0.6951 -0.8058
  791TIP3   OH224007   1.050   2.591   0.626 -0.0589  0.7785 -0.2089
  791TIP3    H124008   1.116   2.609   0.692  0.3900 -0.4299 -0.3152
  791TIP3    H224009   1.072   2.505   0.591 -1.5062  0.4716 -0.4631
  792TIP3   OH224010   6.227   2.629   9.610  0.5014 -0.5045 -0.2538
  792TIP3    H124011   6.176   2.559   9.651  0.4594 -0.4486 -0.2100
  792TIP3    H224012   6.217   2.614   9.516  1.6110 -1.3771 -0.2630
  793TIP3   OH224013   0.293   0.264   1.493 -0.2721 -0.4885  0.4128
  793TIP3    H124014   0.372   0.289   1.445  0.6817 -1.5926  1.3362
  793TIP3    H224015   0.222   0.280   1.432  0.3772  2.7670  0.3586
  794TIP3   OH224016   4.093   0.834   1.361 -0.0759  0.3861 -0.4548
  794TIP3    H124017   4.072   0.749   1.322 -0.6519 -0.1087  0.8552
  794TIP3    H224018   4.022   0.892   1.331 -1.2440 -0.3092  0.8256
  795TIP3   OH224019   1.237   6.010   7.745 -0.0146 -0.7145  0.2777
  795TIP3    H124020   1.285   5.967   7.674  0.1745  0.4909 -0.3613
  795TIP3    H224021   1.274   6.098   7.748 -1.4166 -0.1122  0.5228
  796TIP3   OH224022   3.076   6.182   9.287  1.4579 -0.2593  0.1817
  796TIP3    H124023   3.062   6.232   9.207 -0.2000 -2.1666 -0.8057
  796TIP3    H224024   3.100   6.248   9.352  0.7268  1.6376 -1.3559
  797TIP3   OH224025   3.727   3.546   1.664 -0.3042 -0.0603  0.3364
  797TIP3    H124026   3.685   3.462   1.684 -2.0293  0.7704  0.4052
  797TIP3    H224027   3.763   3.534   1.576 -2.7374 -0.1454 -0.7376
  798TIP3   OH224028   0.568   4.376   0.167 -0.7309 -0.3314  0.3207
  798TIP3    H124029   0.573   4.444   0.099 -0.3219 -0.7780 -0.0996
  798TIP3    H224030   0.532   4.422   0.243  1.3570  0.8610  0.6854
  799TIP3   OH224031   6.333   1.263   9.695  0.7144  0.2124 -0.2904
  799TIP3    H124032   6.270   1.197   9.666  1.7105 -0.2424 -1.5067
  799TIP3    H224033   6.290   1.346   9.676 -0.7223 -0.0258  1.6377
  800TIP3   OH224034   1.446   5.850   9.012 -0.5424  0.2737 -0.0779
  800TIP3    H124035   1.412   5.847   8.923 -0.3609 -0.7413 -0.1198
  800TIP3    H224036   1.384   5.799   9.064  0.6596 -1.2655 -0.0883
  801TIP3   OH224037   2.158   3.562   3.289  0.1593 -0.3971  0.5221
  801TIP3    H124038   2.097   3.565   3.363  0.0434 -1.9114  0.5111
  801TIP3    H224039   2.223   3.497   3.314  0.7428 -0.1214 -0.2525
  802TIP3   OH224040   5.097   2.314   1.321 -0.1733  0.6712 -0.0380
  802TIP3    H124041   5.033   2.353   1.262  0.4712  0.9871 -0.5352
  802TIP3    H224042   5.118   2.230   1.282  0.0098  0.7374 -0.0814
  803TIP3   OH224043   4.823   4.333   4.354 -0.0803 -0.0461  0.1042
  803TIP3    H124044   4.852   4.278   4.281 -0.1095  0.2427 -0.1249
  803TIP3    H224045   4.902   4.348   4.406  0.0521  0.2068 -0.1695
  804TIP3   OH224046   0.624   2.350   8.721 -0.8981  0.0894 -0.1701
  804TIP3    H124047   0.583   2.267   8.697  1.1572 -1.0954  0.1100
  804TIP3    H224048   0.588   2.372   8.806 -3.4238  0.9330 -1.3613
  805TIP3   OH224049   5.002   1.415   1.475 -0.0127 -0.5846 -0.9380
  805TIP3    H124050   5.002   1.406   1.380 -1.3786  0.1447 -1.0420
  805TIP3    H224051   4.945   1.490   1.492  0.3423 -0.5960  0.4522
  806TIP3   OH224052   3.434   2.432   1.890 -0.0214 -0.2147 -0.0332
  806TIP3    H124053   3.464   2.342   1.884 -2.4874 -1.3798  2.6707
  806TIP3    H224054   3.491   2.472   1.956 -0.9125 -0.8423  1.1673
  807TIP3   OH224055   0.364   4.864   7.635 -0.4393 -0.0093  0.4020
  807TIP3    H124056   0.362   4.957   7.616  0.8236  0.1091  0.7561
  807TIP3    H224057   0.279   4.831   7.605 -0.6482  1.1306 -0.3073
  808TIP3   OH224058   6.192   1.559   1.493 -0.1057 -0.2110  0.3214
  808TIP3    H124059   6.129   1.497   1.529 -0.1141 -0.6394 -0.3962
  808TIP3    H224060   6.162   1.574   1.403  0.6069 -0.1406  0.0856
  809TIP3   OH224061   6.417   5.698   8.425  0.5525 -0.7531  0.7873
  809TIP3    H124062   6.425   5.606   8.448 -1.6534 -1.2090 -0.0422
  809TIP3    H224063   6.473   5.709   8.348  0.0730 -1.6508  0.2936
  810TIP3   OH224064   1.128   4.575   1.425  0.3651  0.3850 -0.1827
  810TIP3    H124065   1.176   4.610   1.500 -2.0978  2.8142  0.4147
  810TIP3    H224066   1.142   4.480   1.430 -0.9087  0.1973  4.3108
  811TIP3   OH224067   6.278   1.826   8.935  0.0081  0.6405  0.4494
  811TIP3    H124068   6.257   1.874   9.015 -4.2803 -1.9925  1.2337
  811TIP3    H224069   6.196   1.785   8.910  2.1481 -2.0629 -3.0126
  812TIP3   OH224070   3.782   4.743   9.956 -0.4824  0.3583 -0.3266
  812TIP3    H124071   3.821   4.662   9.923 -0.7864 -0.2522  0.7601
  812TIP3    H224072   3.848   4.810   9.941 -0.0827 -0.1579 -0.9091
  813TIP3   OH224073   4.375   3.109   2.617 -0.0297 -0.2807 -0.0406
  813TIP3    H124074   4.304   3.103   2.681 -0.0240 -1.4135 -0.1299
  813TIP3    H224075   4.434   3.037   2.639  0.5845  0.0370 -0.5965
  814TIP3   OH224076   3.590   0.171   1.280  0.3545  0.1028 -0.1013
  814TIP3    H124077   3.677   0.175   1.242  0.2043  1.5072 -0.3506
  814TIP3    H224078   3.566   0.262   1.296  0.0040 -0.3571  2.4558
  815TIP3   OH224079   3.964   4.944   0.626 -0.3695  0.4221 -0.2037
  815TIP3    H124080   3.948   4.896   0.545 -2.5594  0.3076  0.2435
  815TIP3    H224081   3.903   5.018   0.622  0.9373  1.5672  0.4278
  816TIP3   OH224082   5.962   1.888   2.529 -0.5111  0.5706 -0.4284
  816TIP3    H124083   5.924   1.942   2.598 -2.0807 -1.7210  0.6498
  816TIP3    H224084   5.899   1.817   2.518  0.6517 -0.1677 -2.8987
  817TIP3   OH224085   2.921   3.954   2.334  0.6577 -0.1179  0.0594
  817TIP3    H124086   2.883   4.042   2.330  0.7614 -0.0894 -0.3280
  817TIP3    H224087   2.860   3.900   2.284  1.9155  0.2159 -1.9047
  818TIP3   OH224088   0.555   3.049   8.629 -0.1042  0.2061 -0.0274
  818TIP3    H124089   0.511   3.051   8.545  0.6509  0.4720 -0.4312
  818TIP3    H224090   0.506   3.109   8.684 -0.2273  0.5165 -0.4749
  819TIP3   OH224091   2.404   2.828   9.238 -0.4589 -0.1432 -0.3059
  819TIP3    H124092   2.320   2.866   9.263 -0.7511 -2.0037  1.8591
  819TIP3    H224093   2.382   2.749   9.189  0.1001  0.4864 -1.6371
  820TIP3   OH224094   2.356   5.046   1.838  0.3730  0.3458 -0.6639
  820TIP3    H124095   2.276   5.097   1.829  0.2831  0.0071 -2.0427
  820TIP3    H224096   2.424   5.110   1.856 -0.1821  0.6383  0.5200
  821TIP3   OH224097   4.503   1.027   9.819 -0.0909 -0.3884  0.1148
  821TIP3    H124098   4.408   1.024   9.807  0.0072 -0.0260 -0.8203
  821TIP3    H224099   4.526   1.119   9.812  0.1900 -0.3330  1.5839
  822TIP3   OH224100   6.059   0.057   2.184 -0.3422  0.2658  0.4109
  822TIP3    H124101   6.126   0.037   2.249 -0.8763  2.1050  1.6011
  822TIP3    H224102   6.090   0.138   2.142 -1.4991  0.8029  0.5542
  823TIP3   OH224103   5.924   1.361   7.275 -0.2418 -0.2624  0.6503
  823TIP3    H124104   5.986   1.297   7.241  0.6298  1.4032 -1.0946
  823TIP3    H224105   5.978   1.424   7.322 -0.8304  0.2106  0.7113
  824TIP3   OH224106   1.757   0.010   9.190 -0.0275 -0.0456 -0.4563
  824TIP3    H124107   1.682  -0.010   9.246  1.3897 -3.7711  0.3143
  824TIP3    H224108   1.797   0.087   9.230 -1.0636 -0.4960  1.5555
  825TIP3   OH224109   4.579   3.576   9.592 -0.2323 -0.1511  0.1249
  825TIP3    H124110   4.619   3.643   9.536 -0.5301  0.1781  0.2964
  825TIP3    H224111   4.631   3.497   9.577 -0.7649 -0.2695 -1.1812
  826TIP3   OH224112   2.833   0.448   1.401 -0.0639  0.4614 -0.1692
  826TIP3    H124113   2.805   0.463   1.491 -0.6778 -0.4451 -0.1952
  826TIP3    H224114   2.752   0.451   1.350  0.4606  2.8819 -1.0004
  827TIP3   OH224115   5.383   5.630   0.383  0.2190 -0.2677  0.6578
  827TIP3    H124116   5.386   5.724   0.370 -0.1814 -0.0966  1.6797
  827TIP3    H224117   5.299   5.603   0.344  0.4409 -0.2442  0.1571
  828TIP3   OH224118   3.191   2.580   1.050 -0.5759  0.2251 -0.7475
  828TIP3    H124119   3.161   2.565   1.140  0.0605  0.6678 -0.4592
  828TIP3    H224120   3.283   2.604   1.058 -0.0069 -1.4317 -1.6393
  829TIP3   OH224121   0.896   3.439   9.760  0.1487  0.3994 -0.1344
  829TIP3    H124122   0.841   3.388   9.820  0.0505 -0.1698 -0.6999
  829TIP3    H224123   0.985   3.422   9.790  0.0556  0.8820  0.4385
  830TIP3   OH224124   3.901   2.207   1.723  0.1307 -0.1964  0.2492
  830TIP3    H124125   3.986   2.185   1.686 -0.5471  0.5335 -1.8870
  830TIP3    H224126   3.864   2.122   1.750  0.1642 -0.9974 -1.9788
  831TIP3   OH224127   1.092   3.159   0.173 -0.6622  0.0706  0.5044
  831TIP3    H124128   1.182   3.177   0.203 -0.2656 -1.1833  0.1241
  831TIP3    H224129   1.036   3.202   0.238  0.1648  3.3498 -0.7257
  832TIP3   OH224130   6.172   4.300   8.761 -0.1234  0.3205 -0.1134
  832TIP3    H124131   6.095   4.357   8.766 -0.9729 -0.7877 -0.2163
  832TIP3    H224132   6.223   4.335   8.689  0.1029  1.8277  0.7472
  833TIP3   OH224133   2.125   0.479   0.894  0.0444  0.3761  0.4961
  833TIP3    H124134   2.147   0.559   0.942  1.5048 -0.6685  1.6419
  833TIP3    H224135   2.168   0.489   0.810  0.0349  0.8812  0.5476
  834TIP3   OH224136   1.046   5.892   1.604 -0.0044 -0.5184  0.2534
  834TIP3    H124137   0.966   5.897   1.657  0.5815  0.0955  1.1113
  834TIP3    H224138   1.104   5.834   1.653  0.4839 -0.0771  0.2127
  835TIP3   OH224139   5.816   1.332   7.580 -0.2781  0.1414  0.0259
  835TIP3    H124140   5.734   1.324   7.531  1.6183 -0.4836 -3.2794
  835TIP3    H224141   5.823   1.426   7.599 -1.0937  0.4085 -0.9123
  836TIP3   OH224142   4.679   2.993   2.225 -0.1972  0.2072  0.1057
  836TIP3    H124143   4.731   3.063   2.185  0.5889 -0.8665 -0.8171
  836TIP3    H224144   4.655   3.027   2.311 -0.7560  2.0304 -0.7289
  837TIP3   OH224145   4.635   0.192   8.878  0.5777  0.2526  0.3975
  837TIP3    H124146   4.647   0.286   8.862  1.0984  0.1748  0.3042
  837TIP3    H224147   4.630   0.185   8.973  1.3214  0.2908  0.4445
  838TIP3   OH224148   2.910   2.242   9.621 -0.4126 -0.0935  0.5491
  838TIP3    H124149   2.859   2.321   9.639 -0.3815 -0.0120  0.2870
  838TIP3    H224150   2.904   2.231   9.526  0.3851  0.1414  0.4608
  839TIP3   OH224151   2.527   2.252   9.184 -0.0310  0.2478  0.0526
  839TIP3    H124152   2.461   2.311   9.148  1.5528  1.6367 -0.7094
  839TIP3    H224153   2.586   2.235   9.111  0.7747 -0.5008  0.8559
  840TIP3   OH224154   2.020   3.624   0.823 -0.0185  0.2602 -0.1134
  840TIP3    H124155   2.016   3.703   0.877  2.3951 -0.5404  1.3926
  840TIP3    H224156   1.941   3.576   0.845 -0.0908  0.9245  1.1522
  841TIP3   OH224157   0.603   3.353   0.773  0.4701 -0.1975 -0.7298
  841TIP3    H124158   0.533   3.359   0.838 -0.9594  0.2881 -2.2316
  841TIP3    H224159   0.676   3.313   0.820 -0.8081 -0.7446  0.9072
  842TIP3   OH224160   6.371   1.881   0.966 -0.7879  0.0250 -0.0457
  842TIP3    H124161   6.277   1.881   0.985 -0.4371  1.4489  2.1628
  842TIP3    H224162   6.384   1.960   0.913 -1.1496 -1.6017 -2.6817
  843TIP3   OH224163   0.396   3.939   9.164  0.3617 -0.0005 -0.0712
  843TIP3    H124164   0.461   3.948   9.094  0.0355 -2.0972 -0.6910
  843TIP3    H224165   0.441   3.888   9.232 -0.1399 -0.1301  0.1684
  844TIP3   OH224166   5.071   4.990   8.588 -0.0104  0.1146  0.3427
  844TIP3    H124167   5.031   4.919   8.638  2.4486 -1.9500 -0.3897
  844TIP3    H224168   5.063   4.962   8.497 -3.9712  3.5741 -0.6877
  845TIP3   OH224169   5.692   1.510   0.691 -0.7953  0.5751  0.0529
  845TIP3    H124170   5.631   1.581   0.712  0.4145  2.1647 -1.5557
  845TIP3    H224171   5.643   1.453   0.631 -1.2572  0.8846  0.1355
  846TIP3   OH224172   0.715   2.745   2.748  0.4475  0.3708  0.1230
  846TIP3    H124173   0.630   2.730   2.705  0.7168  0.5497 -0.4742
  846TIP3    H224174   0.691   2.781   2.834 -0.0624  1.9010 -0.6208
  847TIP3   OH224175   5.299   5.109   3.046  0.0760  0.4993 -0.6697
  847TIP3    H124176   5.332   5.183   2.996 -1.9283  3.6195  2.2165
  847TIP3    H224177   5.370   5.085   3.105  0.0750  1.4402 -0.2822
  848TIP3   OH224178   3.241   1.401   2.818 -0.0598  0.0151  0.2967
  848TIP3    H124179   3.205   1.488   2.799  1.6190  0.6172 -0.2740
  848TIP3    H224180   3.309   1.417   2.883 -0.7977 -1.1061  1.3902
  849TIP3   OH224181   5.529   0.317   0.686 -0.1117  0.6004 -0.4782
  849TIP3    H124182   5.516   0.385   0.620 -0.7943 -0.3242 -1.3395
  849TIP3    H224183   5.509   0.235   0.640  4.0031 -0.5998 -0.5277
  850TIP3   OH224184   5.846   0.588   0.045  0.2201 -0.1249 -0.5571
  850TIP3    H124185   5.837   0.588   0.141  0.5778 -1.8030 -0.4841
  850TIP3    H224186   5.936   0.558   0.029 -0.0218 -0.4291 -1.4116
  851TIP3   OH224187   3.843   4.099   0.151  0.1303 -0.5971 -0.4794
  851TIP3    H124188   3.809   4.182   0.119 -0.3966 -1.2473 -1.6857
  851TIP3    H224189   3.928   4.090   0.107  1.4650  0.4888  1.6568
  852TIP3   OH224190   0.165   4.393   1.513  0.4689  0.0719 -0.0479
  852TIP3    H124191   0.179   4.482   1.546 -1.4718  0.7294 -0.8114
  852TIP3    H224192   0.198   4.395   1.424 -1.3334  0.6870 -0.7601
  853TIP3   OH224193   1.486   6.175   8.594  0.5620  0.1103  0.1350
  853TIP3    H124194   1.553   6.226   8.550  0.4893 -0.3252 -0.4882
  853TIP3    H224195   1.412   6.174   8.533  0.0074  0.5210  0.7776
  854TIP3   OH224196   4.434   3.165   3.305  0.3015  0.0583  0.2283
  854TIP3    H124197   4.460   3.114   3.382 -0.5891  1.0194  1.1970
  854TIP3    H224198   4.346   3.195   3.325 -0.8347 -1.3982 -2.0613
  855TIP3   OH224199   2.096   5.637   9.625 -0.0356  0.3495 -0.0526
  855TIP3    H124200   2.045   5.716   9.642 -0.3482  0.1013  0.1815
  855TIP3    H224201   2.031   5.567   9.617  0.2150  0.1733 -0.6137
  856TIP3   OH224202   5.900   0.618   9.303 -0.0168  0.1344  0.2120
  856TIP3    H124203   5.903   0.679   9.377 -0.7935  0.4139  0.0215
  856TIP3    H224204   5.806   0.607   9.285  0.1798  0.9989 -1.5103
  857TIP3   OH224205   2.538   3.162   0.061  0.5537  0.1843 -0.8607
  857TIP3    H124206   2.468   3.100   0.078  0.4190 -0.2175 -2.6719
  857TIP3    H224207   2.598   3.115   0.003  0.8649  1.4650 -1.6141
  858TIP3   OH224208   5.810   2.514   1.683 -0.2482 -0.4772 -0.6743
  858TIP3    H124209   5.760   2.496   1.763 -0.1669  0.0547 -0.4993
  858TIP3    H224210   5.812   2.430   1.637  1.9492 -1.5545  1.1437
  859TIP3   OH224211   6.014   6.044   7.392 -0.3200 -0.0901  0.0792
  859TIP3    H124212   6.041   5.955   7.415  0.8622  0.1362 -0.3469
  859TIP3    H224213   6.086   6.099   7.424  0.5829  0.3934 -2.5518
  860TIP3   OH224214   1.185   1.031   8.806 -0.0382 -0.0948 -0.3828
  860TIP3    H124215   1.115   1.038   8.870  1.6735 -0.6264  1.6385
  860TIP3    H224216   1.145   1.058   8.723 -2.0123  1.7925  1.0967
  861TIP3   OH224217   5.961   0.026   0.215 -0.3537 -0.1566 -0.1766
  861TIP3    H124218   5.968   0.047   0.309 -2.1072  1.5842 -0.3735
  861TIP3    H224219   5.867   0.016   0.199 -0.0832 -0.4178 -1.7677
  862TIP3   OH224220   5.825   5.785   0.114 -0.2469  0.3474  0.2824
  862TIP3    H124221   5.842   5.860   0.170 -1.7107  1.7502 -1.0367
  862TIP3    H224222   5.760   5.816   0.051  0.7516 -1.3528 -1.7308
  863TIP3   OH224223   1.053   3.126   8.377  0.3211  0.4491 -0.1533
  863TIP3    H124224   1.130   3.100   8.428  0.5076  0.6844 -0.3121
  863TIP3    H224225   1.024   3.044   8.335 -0.0265  0.1937  0.5747
  864TIP3   OH224226   0.726   2.589   8.668 -0.4849 -0.5021 -0.3599
  864TIP3    H124227   0.717   2.494   8.670  0.2585 -0.5740  0.9047
  864TIP3    H224228   0.654   2.619   8.612 -1.6399 -1.7045  0.4159
  865TIP3   OH224229   3.020   0.942   1.152  0.4150  0.4389 -0.0007
  865TIP3    H124230   3.056   0.878   1.091  0.4584 -0.2095  0.6907
  865TIP3    H224231   2.979   1.008   1.096 -1.1152 -1.0412 -0.7246
  866TIP3   OH224232   6.278   1.159   9.126 -0.1323  0.7322 -0.0640
  866TIP3    H124233   6.338   1.103   9.077 -1.1048 -0.2375 -0.1704
  866TIP3    H224234   6.261   1.233   9.067 -1.6779 -0.6651 -1.4697
  867TIP3   OH224235   4.619   2.553   1.675 -0.4568  0.0841 -0.1711
  867TIP3    H124236   4.700   2.600   1.697 -0.8562  0.2880  0.8873
  867TIP3    H224237   4.643   2.461   1.682  0.0957  0.1101 -1.4096
  868TIP3   OH224238   1.710   2.086   1.833  0.3496 -0.3479 -0.7256
  868TIP3    H124239   1.757   2.160   1.870  1.9585 -0.6680 -2.0092
  868TIP3    H224240   1.646   2.062   1.901  1.5073  0.5873  0.7661
  869TIP3   OH224241   3.342   0.633   0.990  0.3909  0.0637 -0.5010
  869TIP3    H124242   3.326   0.571   1.061  0.5801  1.6160  0.9748
  869TIP3    H224243   3.355   0.579   0.913  0.8026 -1.7329  0.7651
  870TIP3   OH224244   0.315   3.075   8.817 -0.0514  0.2656  0.2956
  870TIP3    H124245   0.340   3.168   8.815 -1.0109  0.5314  0.0912
  870TIP3    H224246   0.264   3.063   8.737 -1.0294 -0.1230  0.9616
  871TIP3   OH224247   5.970   5.813   8.602  0.0137 -0.2938  0.4878
  871TIP3    H124248   5.940   5.777   8.685  1.3296 -0.5881  0.8498
  871TIP3    H224249   6.002   5.737   8.553  1.1866  0.1288  0.5666
  872TIP3   OH224250   3.122   3.959   9.906 -0.2245 -0.4149 -0.1405
  872TIP3    H124251   3.101   3.892   9.841 -0.1070 -0.8782  0.2903
  872TIP3    H224252   3.148   4.035   9.854 -1.9821 -0.1311 -0.6759
  873TIP3   OH224253   0.173   0.829   1.077 -0.4026 -0.1179 -0.0068
  873TIP3    H124254   0.198   0.805   1.167  1.7365  1.4168 -0.0930
  873TIP3    H224255   0.221   0.767   1.022  0.6534  0.7467 -0.1025
  874TIP3   OH224256   2.311   2.705   1.393 -0.1955  0.4537  0.3098
  874TIP3    H124257   2.343   2.699   1.303 -0.8217  1.7824 -0.0174
  874TIP3    H224258   2.232   2.650   1.393 -0.4341  0.7877 -0.0745
  875TIP3   OH224259   4.924   4.262   4.106 -0.5207 -0.8468 -0.2323
  875TIP3    H124260   4.891   4.196   4.044  0.6770 -1.3803 -0.3445
  875TIP3    H224261   4.986   4.314   4.054 -0.2463 -0.6648  0.2746
  876TIP3   OH224262   3.404   2.014   0.550  0.4241 -0.0609  0.1785
  876TIP3    H124263   3.371   2.020   0.460  0.8030  1.1585  0.1038
  876TIP3    H224264   3.378   2.097   0.591  0.7212 -0.3821  1.0368
  877TIP3   OH224265   2.105   5.793   0.120  0.1547  0.3753  0.4639
  877TIP3    H124266   2.102   5.710   0.168  0.2271  0.2684  0.2853
  877TIP3    H224267   2.090   5.860   0.187 -1.8136  0.1220  0.3304
  878TIP3   OH224268   3.308   4.700   0.474  0.4105  0.5284  0.1509
  878TIP3    H124269   3.350   4.782   0.500  1.4450  0.3652 -0.9132
  878TIP3    H224270   3.279   4.715   0.384 -0.4805  0.1231  0.3588
  879TIP3   OH224271   5.837   3.754   9.798  0.2023 -0.1118 -0.2314
  879TIP3    H124272   5.873   3.842   9.788 -2.4764  1.1285  0.0213
  879TIP3    H224273   5.855   3.730   9.889  3.0643 -0.9507 -0.9219
  880TIP3   OH224274   2.439   0.302   0.236  0.2808 -0.3567 -0.5576
  880TIP3    H124275   2.352   0.314   0.198 -0.5126  0.3242  1.3409
  880TIP3    H224276   2.490   0.376   0.203 -0.4123  0.2606 -0.2707
  881TIP3   OH224277   2.307   4.373   1.496 -0.7224 -0.4016  0.3859
  881TIP3    H124278   2.257   4.292   1.505 -0.7699 -0.3664  0.4382
  881TIP3    H224279   2.248   4.441   1.529 -0.7223 -0.3325  0.2426
  882TIP3   OH224280   2.178   4.839   3.839 -0.1628  0.0027 -0.3180
  882TIP3    H124281   2.256   4.848   3.785 -0.3453 -0.6737 -0.7126
  882TIP3    H224282   2.167   4.744   3.849 -1.9077  0.0010 -1.7382
  883TIP3   OH224283   0.185   4.139   2.273  0.5393 -0.3173  0.5433
  883TIP3    H124284   0.162   4.185   2.192  0.4267  0.3645  0.9482
  883TIP3    H224285   0.139   4.055   2.268  0.3531 -0.1845  0.0043
  884TIP3   OH224286   2.405   2.867   0.848  0.1764 -0.4785 -0.2009
  884TIP3    H124287   2.383   2.859   0.755  1.5344 -2.4858 -0.4277
  884TIP3    H224288   2.426   2.959   0.861 -0.4259 -0.0991 -1.7883
  885TIP3   OH224289   2.973   5.724   8.404 -0.2902  0.0494  0.3026
  885TIP3    H124290   2.938   5.643   8.365 -0.8033  0.8864 -1.0430
  885TIP3    H224291   3.058   5.698   8.440 -0.3727 -1.0576 -0.2469
  886TIP3   OH224292   6.359   1.361   7.790  0.5199 -0.0278 -0.1791
  886TIP3    H124293   6.331   1.450   7.771  0.0112 -0.1300  0.0878
  886TIP3    H224294   6.280   1.308   7.781  1.2250 -0.8112 -2.5178
  887TIP3   OH224295   4.984   1.924   9.692  0.4545  0.1906  0.4027
  887TIP3    H124296   4.910   1.965   9.737  0.5191  0.9420 -0.1732
  887TIP3    H224297   4.971   1.830   9.706 -0.4106  0.3350  0.6002
  888TIP3   OH224298   0.242   4.497   1.881 -0.7181 -0.3187 -0.3014
  888TIP3    H124299   0.335   4.507   1.862 -0.2399 -1.4430  1.2973
  888TIP3    H224300   0.218   4.413   1.843 -1.2784  0.2764 -1.3127
  889TIP3   OH224301   5.070   0.738   1.471  0.4038 -0.4121 -0.0351
  889TIP3    H124302   5.028   0.696   1.546  0.0788  0.4597  0.2919
  889TIP3    H224303   5.092   0.826   1.502 -1.5479  0.6841 -1.5356
  890TIP3   OH224304   1.812   2.942   3.291  0.4146  0.3241 -0.7715
  890TIP3    H124305   1.818   2.957   3.385  0.4844  0.5229 -0.8084
  890TIP3    H224306   1.741   2.878   3.281 -1.5036  2.3297 -0.7963
  891TIP3   OH224307   0.516   6.226   0.435  0.0025  0.5575 -0.1764
  891TIP3    H124308   0.470   6.229   0.519  1.2637  1.1471  0.5181
  891TIP3    H224309   0.570   6.147   0.441 -1.0551 -0.2804 -1.0956
  892TIP3   OH224310   0.311   1.158   8.064 -0.2489  0.0278 -0.1519
  892TIP3    H124311   0.229   1.110   8.049  0.5178 -0.9504 -1.3014
  892TIP3    H224312   0.372   1.093   8.097 -0.0940  0.9080  1.4407
  893TIP3   OH224313   2.756   5.996   8.804 -0.3212  0.6383 -0.0853
  893TIP3    H124314   2.830   6.036   8.758  0.0615  0.8454  0.6902
  893TIP3    H224315   2.722   5.931   8.743  0.0082  1.0800 -0.7613
  894TIP3   OH224316   5.311   4.586   0.259 -0.2191  0.0450  0.3084
  894TIP3    H124317   5.399   4.573   0.224 -0.8797  0.9312 -1.8828
  894TIP3    H224318   5.274   4.498   0.266 -0.1647 -0.1815 -1.6747
  895TIP3   OH224319   2.578   4.062   1.063  0.8921  0.3417 -0.2932
  895TIP3    H124320   2.493   4.102   1.081  0.3802 -1.2192  1.0461
  895TIP3    H224321   2.638   4.102   1.125  0.7932  0.3296 -0.1898
  896TIP3   OH224322   2.533   4.584   0.782 -0.1003  0.0329 -0.4079
  896TIP3    H124323   2.464   4.614   0.841 -1.6768 -3.1259 -0.4347
  896TIP3    H224324   2.614   4.597   0.831 -0.9239  1.5964  0.6203
  897TIP3   OH224325   2.043   5.478   8.124 -0.3017 -0.1406  0.4533
  897TIP3    H124326   2.071   5.415   8.057  1.4784  1.3192 -0.2868
  897TIP3    H224327   2.120   5.490   8.179 -0.5259  1.4632  0.4763
  898TIP3   OH224328   2.274   0.691   1.041 -0.0478  0.0203  0.1903
  898TIP3    H124329   2.353   0.704   1.094 -0.4002  2.5912  0.2049
  898TIP3    H224330   2.202   0.693   1.104 -0.3204  0.8683 -0.1414
  899TIP3   OH224331   3.182   2.210   2.608 -0.3771 -0.0317  0.7465
  899TIP3    H124332   3.201   2.118   2.588  3.6683  0.8928 -0.7879
  899TIP3    H224333   3.138   2.243   2.529 -0.2110 -0.2989  0.5381
  900TIP3   OH224334   2.464   6.121   0.210 -0.5720  0.5036  0.6238
  900TIP3    H124335   2.439   6.124   0.302 -0.3837 -0.5435  0.7217
  900TIP3    H224336   2.476   6.028   0.191  0.0314  0.7500 -0.2886
  901TIP3   OH224337   6.084   5.810   8.928 -0.8678  0.9433  0.8455
  901TIP3    H124338   6.146   5.795   8.857 -1.0045 -0.0127  0.9033
  901TIP3    H224339   6.014   5.745   8.912 -0.6516  0.3686  2.1214
  902TIP3   OH224340   2.846   3.839   7.914  0.1365 -0.3367 -0.0231
  902TIP3    H124341   2.843   3.777   7.987  0.7535 -0.7824 -0.3662
  902TIP3    H224342   2.785   3.802   7.850  0.2381 -0.4045 -0.0815
  903TIP3   OH224343   2.740   3.932   9.926 -0.1686 -0.4806 -0.5105
  903TIP3    H124344   2.797   4.006   9.908  2.2944 -1.9386  0.7451
  903TIP3    H224345   2.751   3.874   9.851 -1.6090  0.0748 -1.1940
  904TIP3   OH224346   5.036   0.288   1.307 -0.0523 -0.0612 -0.3859
  904TIP3    H124347   5.102   0.298   1.238  0.3295 -0.0019 -0.0148
  904TIP3    H224348   5.058   0.205   1.349 -0.4820 -0.2548 -0.5440
  905TIP3   OH224349   4.568   2.190   2.491  0.2680  0.0345  0.1923
  905TIP3    H124350   4.511   2.206   2.567 -0.5297  1.2064 -0.6203
  905TIP3    H224351   4.613   2.108   2.512  0.2951  0.4938  2.0615
  906TIP3   OH224352   1.745   5.728   1.769 -0.7507 -0.2258  0.1285
  906TIP3    H124353   1.808   5.702   1.702  0.0969  1.2717  0.3032
  906TIP3    H224354   1.738   5.651   1.826  1.1885 -0.3222  0.2967
  907TIP3   OH224355   0.379   4.000   9.935  0.6056 -0.6579  0.5608
  907TIP3    H124356   0.468   3.996   9.900 -0.1967 -0.1688 -1.7182
  907TIP3    H224357   0.352   3.908   9.942  0.5647 -0.7660 -0.8258
  908TIP3   OH224358   2.918   4.688   1.388  0.5372 -0.2107  0.0272
  908TIP3    H124359   2.916   4.759   1.324 -1.4775 -0.4563 -0.2384
  908TIP3    H224360   3.011   4.674   1.405  1.0089  2.1409 -0.2724
  909TIP3   OH224361   3.472   5.858   9.299  0.3178 -0.3727  0.9690
  909TIP3    H124362   3.424   5.886   9.377  1.9823 -0.6610  2.1724
  909TIP3    H224363   3.538   5.797   9.333  2.0008  0.5684 -0.4745
  910TIP3   OH224364   1.927   1.345   1.781 -0.1703 -0.1408  0.2387
  910TIP3    H124365   1.952   1.437   1.773 -2.4950  0.5557  0.1205
  910TIP3    H224366   1.982   1.311   1.851  1.2713  1.1086 -0.2209
  911TIP3   OH224367   5.410   4.821   2.584  0.2567 -0.5018  0.5375
  911TIP3    H124368   5.332   4.808   2.530  1.0014  0.6028 -0.8612
  911TIP3    H224369   5.456   4.738   2.580 -0.1153 -0.6971  0.1653
  912TIP3   OH224370   0.777   6.102   1.273 -0.5435 -0.3925  0.3740
  912TIP3    H124371   0.768   6.009   1.296  1.1062 -0.6859 -0.0174
  912TIP3    H224372   0.693   6.141   1.298 -0.1414 -1.3458  3.6463
  913TIP3   OH224373   2.746   4.066   2.597  0.5971  0.0750  0.2292
  913TIP3    H124374   2.823   4.098   2.644  0.8366  1.6657 -1.1622
  913TIP3    H224375   2.737   4.125   2.522 -1.6385 -0.4245  0.0229
  914TIP3   OH224376   4.366   4.821  10.009  0.4886  0.5398  0.2454
  914TIP3    H124377   4.452   4.820   9.966 -0.4971  0.4614 -1.8300
  914TIP3    H224378   4.341   4.913  10.009 -1.1105  0.2159 -2.8517
  915TIP3   OH224379   0.258   5.120   2.095 -0.0880 -0.2343  1.0766
  915TIP3    H124380   0.299   5.034   2.087 -1.3977 -0.8459  0.6833
  915TIP3    H224381   0.253   5.153   2.005  0.1354  0.1292  1.1933
  916TIP3   OH224382   3.881   1.978   0.842 -0.4854  0.3849  0.5544
  916TIP3    H124383   3.876   1.915   0.770 -0.0973 -0.6776  1.4082
  916TIP3    H224384   3.792   1.980   0.879 -0.4789  0.2624  0.5776
  917TIP3   OH224385   2.936   3.500   9.708  0.0227  0.0005 -0.8354
  917TIP3    H124386   2.863   3.448   9.674  1.0414 -1.4838 -0.8224
  917TIP3    H224387   3.011   3.442   9.704  0.6679  0.5279  1.8007
  918TIP3   OH224388   5.816   1.529   1.310 -0.0144  0.3426 -0.6076
  918TIP3    H124389   5.808   1.623   1.292 -0.8749  0.7798  1.6676
  918TIP3    H224390   5.730   1.493   1.291  0.7397 -0.3535 -3.0072
  919TIP3   OH224391   3.719   3.305   1.233 -0.2256 -0.3739 -0.3598
  919TIP3    H124392   3.682   3.299   1.321  0.0513  0.1455 -0.2049
  919TIP3    H224393   3.645   3.327   1.177 -0.0799  1.1659  0.0213
  920TIP3   OH224394   0.897   3.291   8.195 -0.8957 -0.0582 -0.7952
  920TIP3    H124395   0.883   3.232   8.121  1.0661  0.9464 -2.0398
  920TIP3    H224396   0.947   3.239   8.258 -1.6764 -0.5918 -0.6005
  921TIP3   OH224397   0.925   3.861   8.744  0.6814  0.5796 -0.4035
  921TIP3    H124398   0.931   3.935   8.684  1.2362  0.7505 -0.1404
  921TIP3    H224399   0.895   3.899   8.826 -1.4083  0.1580 -0.9041
  922TIP3   OH224400   3.669   1.169   1.236  0.5077  0.0223 -0.0841
  922TIP3    H124401   3.660   1.249   1.288  0.5150  0.5549 -0.8825
  922TIP3    H224402   3.594   1.171   1.176  0.9150 -0.1788 -0.6147
  923TIP3   OH224403   3.689   2.023   1.269  0.1083  0.4598  0.1490
  923TIP3    H124404   3.606   2.042   1.225  0.7815  2.0665 -0.5204
  923TIP3    H224405   3.714   2.107   1.308  1.6556  0.1210 -0.0806
  924TIP3   OH224406   0.712   4.349   0.429  0.1573  0.0243  0.1849
  924TIP3    H124407   0.690   4.338   0.336 -1.0255 -0.8959  0.5537
  924TIP3    H224408   0.806   4.335   0.433  0.1270 -0.5385 -0.8026
  925TIP3   OH224409   5.941   0.812   9.483 -0.5092  0.0739 -0.4037
  925TIP3    H124410   5.931   0.888   9.426  0.1922  1.6590  1.4632
  925TIP3    H224411   6.002   0.841   9.550 -0.8652 -1.8837  0.8253
  926TIP3   OH224412   2.614   4.238   9.768 -0.3978 -0.1158 -0.1082
  926TIP3    H124413   2.600   4.167   9.705 -0.6818  0.3954 -0.6378
  926TIP3    H224414   2.708   4.237   9.785 -0.5755 -1.4194  0.8625
  927TIP3   OH224415   5.031   2.678   0.085 -0.0003 -0.6751 -0.1005
  927TIP3    H124416   5.000   2.662   0.174  1.2453 -3.4475 -0.0933
  927TIP3    H224417   4.965   2.737   0.048 -0.0763  1.3464  2.8852
  928TIP3   OH224418   0.780   4.236   2.676  0.0551  0.4361 -0.1763
  928TIP3    H124419   0.835   4.303   2.716  0.7000 -0.5070  0.5679
  928TIP3    H224420   0.842   4.174   2.638 -0.5394  0.7167 -1.6721
  929TIP3   OH224421   6.200   0.906   2.891 -0.1007 -0.0030 -0.3508
  929TIP3    H124422   6.183   0.900   2.985  0.8563 -0.3628 -0.1859
  929TIP3    H224423   6.199   0.815   2.861 -1.4750  0.1670 -0.9133
  930TIP3   OH224424   3.780   2.530   1.329 -0.1398 -0.3243  0.0955
  930TIP3    H124425   3.778   2.571   1.242  0.3389 -0.3299  0.0783
  930TIP3    H224426   3.784   2.604   1.390  0.9536 -0.3296  0.0568
  931TIP3   OH224427   1.754   1.723   1.492 -0.0342 -0.2725 -0.2044
  931TIP3    H124428   1.806   1.651   1.456  0.4681  0.0099 -0.0616
  931TIP3    H224429   1.720   1.689   1.575  1.9510  0.3314  0.9375
  932TIP3   OH224430   5.317   4.103   8.597  0.2302 -0.5131  0.0219
  932TIP3    H124431   5.388   4.061   8.549  0.5263  1.0549 -0.9758
  932TIP3    H224432   5.353   4.186   8.626 -1.0982  0.1957 -0.2576
  933TIP3   OH224433   4.148   5.181   9.816 -0.1042 -0.3547 -0.2022
  933TIP3    H124434   4.067   5.233   9.811  0.3388  0.2810 -0.8919
  933TIP3    H224435   4.127   5.100   9.769  0.4349  0.8594 -2.6703
  934TIP3   OH224436   0.078   3.041   7.947 -0.5980 -0.4185  0.2191
  934TIP3    H124437   0.071   2.952   7.980 -0.3853 -0.7349 -0.5606
  934TIP3    H224438   0.133   3.086   8.010  0.3558 -1.1863 -0.0316
  935TIP3   OH224439   0.312   1.203   8.465  0.5802  0.0827 -0.4107
  935TIP3    H124440   0.354   1.279   8.427  1.2271  0.5427  1.1375
  935TIP3    H224441   0.260   1.238   8.538 -1.0417 -0.6916 -1.1406
  936TIP3   OH224442   5.759   0.757   9.888 -0.4236  0.0130  0.5900
  936TIP3    H124443   5.821   0.737   9.818  2.6107  3.8511  1.7927
  936TIP3    H224444   5.772   0.687   9.952 -1.0821 -1.9164 -1.2545
  937TIP3   OH224445   3.461   1.778   0.969  0.1315  0.4446 -0.3855
  937TIP3    H124446   3.516   1.832   0.912  0.8291  0.9436  0.7303
  937TIP3    H224447   3.413   1.720   0.909  0.4528  1.3078 -1.5024
  938TIP3   OH224448   5.692   2.835   0.706  0.4676 -0.1517 -0.1410
  938TIP3    H124449   5.624   2.789   0.657 -1.2243 -0.8020  2.5762
  938TIP3    H224450   5.644   2.900   0.757  1.8343 -0.6133  1.8479
  939TIP3   OH224451   5.260   5.805   9.557  0.4230  0.2418  0.8699
  939TIP3    H124452   5.302   5.873   9.504  0.5874 -0.2215  0.4037
  939TIP3    H224453   5.249   5.731   9.498 -0.2829  0.0565  1.2170
  940TIP3   OH224454   1.054   4.965   1.182 -0.3110  0.2707 -0.1469
  940TIP3    H124455   1.094   5.047   1.152 -0.6840  0.4726 -0.0943
  940TIP3    H224456   1.120   4.898   1.164 -0.6825  0.3203 -1.8112
  941TIP3   OH224457   4.514   0.264   2.188  0.0777 -0.6897  0.2569
  941TIP3    H124458   4.492   0.283   2.096  0.7844  2.3944  0.6214
  941TIP3    H224459   4.443   0.207   2.218 -1.6642  0.4550 -1.4718
  942TIP3   OH224460   0.413   3.556   2.747 -0.5226  0.4932 -0.1186
  942TIP3    H124461   0.486   3.575   2.688  0.2910  0.5990  0.8872
  942TIP3    H224462   0.340   3.532   2.689  1.1810 -2.9515 -1.1324
  943TIP3   OH224463   5.399   2.021   3.361 -0.2396 -0.3033  1.1387
  943TIP3    H124464   5.364   2.101   3.400  0.7164  1.3323 -1.1263
  943TIP3    H224465   5.488   2.013   3.397  0.7175  1.3145 -0.6864
  944TIP3   OH224466   5.020   3.470   9.969 -0.6256 -0.1408 -0.3538
  944TIP3    H124467   4.940   3.416   9.968  0.3201 -1.5971 -0.4800
  944TIP3    H224468   5.032   3.496   9.878 -0.7885 -0.1754 -0.3855
  945TIP3   OH224469   3.266   2.829   7.873 -0.0833 -0.3084 -0.4772
  945TIP3    H124470   3.348   2.807   7.917  0.5053 -0.5587 -1.6705
  945TIP3    H224471   3.203   2.766   7.907  0.3150 -0.3992  0.1129
  946TIP3   OH224472   1.949   1.962   1.464 -0.1563  0.1243 -0.1761
  946TIP3    H124473   1.879   1.902   1.439 -0.8666  1.1549 -0.7300
  946TIP3    H224474   2.013   1.954   1.393  1.4044 -2.4382  1.3721
  947TIP3   OH224475   3.376   5.464   0.915  0.5122  0.2742 -0.2165
  947TIP3    H124476   3.439   5.501   0.853 -1.2897  1.4764 -1.3939
  947TIP3    H224477   3.360   5.534   0.978  0.3392 -0.0363  0.0897
  948TIP3   OH224478   2.539   1.822   2.519 -0.3873 -0.1059 -0.3801
  948TIP3    H124479   2.599   1.803   2.447  0.5478  0.6673  0.1819
  948TIP3    H224480   2.595   1.850   2.591 -1.5233  3.0276 -0.5702
  949TIP3   OH224481   1.652   1.540   1.992  0.3489  0.1031 -0.7109
  949TIP3    H124482   1.630   1.457   2.033 -0.1890  0.0964 -1.0048
  949TIP3    H224483   1.719   1.578   2.049  0.4387 -0.4264 -0.4563
  950TIP3   OH224484   6.280   5.404   1.076  0.2679 -0.4108  0.2003
  950TIP3    H124485   6.228   5.472   1.117  1.7513  0.5196  0.6097
  950TIP3    H224486   6.248   5.400   0.985  0.8496  1.5827 -0.1303
  951TIP3   OH224487   6.068   4.440   0.957  0.0355  0.3270  0.2442
  951TIP3    H124488   6.074   4.358   0.909 -0.5025  1.3338 -1.6306
  951TIP3    H224489   6.084   4.508   0.891  0.8446  1.7281  1.8084
  952TIP3   OH224490   5.616   2.135   2.585  0.3743 -0.3945  0.0646
  952TIP3    H124491   5.669   2.203   2.544 -0.2927 -0.4335 -0.9030
  952TIP3    H224492   5.672   2.097   2.653  0.3594  1.9319  1.4780
  953TIP3   OH224493   2.617   5.263   2.122 -0.3490  0.1186 -0.3974
  953TIP3    H124494   2.597   5.212   2.043  2.6946 -2.0750  0.0692
  953TIP3    H224495   2.650   5.199   2.185  1.5485  2.3433  1.0691
  954TIP3   OH224496   3.591   3.698   3.351  0.2145  0.0559 -0.2837
  954TIP3    H124497   3.528   3.734   3.414 -0.0250 -0.8847  0.0345
  954TIP3    H224498   3.543   3.695   3.268 -0.3293 -1.0759  0.0545
  955TIP3   OH224499   2.116   4.364   9.869  0.6359 -0.1706 -0.5347
  955TIP3    H124500   2.065   4.362   9.950  1.3552  0.1062 -0.0653
  955TIP3    H224501   2.052   4.378   9.800 -0.2338 -2.1987 -0.2191
  956TIP3   OH224502   0.912   5.223   0.115  0.0246  0.3705 -0.3273
  956TIP3    H124503   0.877   5.162   0.180 -0.2914 -1.3916 -2.0570
  956TIP3    H224504   0.975   5.171   0.065 -0.0005  1.5557 -1.6483
  957TIP3   OH224505   2.260   4.666   9.880 -0.5086  0.0581 -0.0986
  957TIP3    H124506   2.169   4.638   9.886 -0.0618 -1.7979 -1.1670
  957TIP3    H224507   2.310   4.585   9.891  0.8987  0.4874 -2.6463
  958TIP3   OH224508   5.313   3.317   0.845 -0.1411 -0.5760  0.3477
  958TIP3    H124509   5.302   3.300   0.752  0.6452  1.0006 -0.0760
  958TIP3    H224510   5.406   3.341   0.854 -0.3894  0.0575  1.4014
  959TIP3   OH224511   0.926   2.704   2.993  0.1128 -0.0821 -0.5966
  959TIP3    H124512   0.846   2.750   3.020 -0.1466  0.3416 -2.0084
  959TIP3    H224513   0.908   2.612   3.012 -1.2276 -0.1547 -2.0085
  960TIP3   OH224514   5.219   1.223   1.774  0.0440 -0.2815  0.1541
  960TIP3    H124515   5.256   1.176   1.850 -0.5232  1.4878  1.5809
  960TIP3    H224516   5.287   1.286   1.750 -0.5383  0.4382  0.3901
  961TIP3   OH224517   5.475   0.111   2.973  0.1539  0.1791 -0.0819
  961TIP3    H124518   5.390   0.150   2.991  0.5773  0.6945  0.8808
  961TIP3    H224519   5.489   0.126   2.879 -0.0601  1.6171  0.0928
  962TIP3   OH224520   1.382   2.469   9.567  0.4684  0.2438 -0.0447
  962TIP3    H124521   1.302   2.497   9.611 -0.3435 -0.5577 -0.9689
  962TIP3    H224522   1.396   2.379   9.597  0.7446  0.2133 -0.2640
  963TIP3   OH224523   2.848   1.004   1.503  0.2379  0.1474  0.2365
  963TIP3    H124524   2.936   0.973   1.484 -0.1647 -1.2126  0.4158
  963TIP3    H224525   2.845   1.093   1.470  0.6752 -0.8496 -2.7848
  964TIP3   OH224526   1.789   5.001   2.762 -0.6026 -0.2912  0.5002
  964TIP3    H124527   1.697   5.019   2.781 -0.4149  0.1820  1.0000
  964TIP3    H224528   1.828   4.989   2.849 -0.5461 -2.3291  0.2500
  965TIP3   OH224529   1.645   1.001   9.214  0.0827 -0.2233 -0.0203
  965TIP3    H124530   1.626   0.937   9.146  0.2945 -0.9477  0.5913
  965TIP3    H224531   1.737   0.985   9.237  0.4976  1.0807 -0.6779
  966TIP3   OH224532   6.202   5.051   9.053 -0.3968 -0.5061  0.3436
  966TIP3    H124533   6.247   4.975   9.090 -0.2518 -0.0461  1.1108
  966TIP3    H224534   6.178   5.105   9.128 -0.2299  0.3677 -0.2152
  967TIP3   OH224535   4.806   5.453   2.544 -0.3159  0.4807  0.3919
  967TIP3    H124536   4.830   5.433   2.453 -1.4438  0.9510 -0.0153
  967TIP3    H224537   4.830   5.374   2.592 -0.4439 -0.0753 -0.4397
  968TIP3   OH224538   2.748   5.429  10.010  0.4533 -0.4439 -0.7147
  968TIP3    H124539   2.653   5.433  10.021  0.6353 -0.5872  1.4811
  968TIP3    H224540   2.763   5.453   9.919 -1.5257  1.8965 -0.5221
  969TIP3   OH224541   4.298   2.846   3.700  0.5435 -0.0178  1.1083
  969TIP3    H124542   4.252   2.762   3.699  1.3260 -0.4685  1.5053
  969TIP3    H224543   4.354   2.841   3.778  1.4215  0.4064  0.5240
  970TIP3   OH224544   4.572   1.848   2.823 -0.7185 -0.4672  0.0018
  970TIP3    H124545   4.637   1.853   2.893 -0.3424  0.4941 -0.3897
  970TIP3    H224546   4.492   1.817   2.866 -0.0231 -1.6537  0.4961
  971TIP3   OH224547   1.288   4.505   8.872  0.3178  0.3071  0.7606
  971TIP3    H124548   1.249   4.589   8.846  1.4464  0.8189  0.6340
  971TIP3    H224549   1.328   4.524   8.958 -1.2465 -0.6924  1.7505
  972TIP3   OH224550   3.021   3.747   3.408  0.1816 -0.0020  0.2009
  972TIP3    H124551   3.108   3.785   3.393 -0.6743  2.0157 -0.0457
  972TIP3    H224552   3.007   3.757   3.502 -0.5178  1.4864 -0.0316
  973TIP3   OH224553   0.003   3.801   0.778 -0.1882 -0.2922 -0.3413
  973TIP3    H124554  -0.070   3.819   0.720 -1.8109 -2.7095  0.7771
  973TIP3    H224555   0.007   3.877   0.836 -0.2930  0.8978 -1.8314
  974TIP3   OH224556   0.813   4.915   1.034  0.0656 -0.0807  0.0906
  974TIP3    H124557   0.855   4.958   1.109 -0.1137  0.3968 -0.0813
  974TIP3    H224558   0.871   4.841   1.014  0.2815 -0.0274  0.5018
  975TIP3   OH224559   3.519   0.623   9.446 -0.0695  0.0253 -0.3652
  975TIP3    H124560   3.593   0.605   9.388  0.2313  0.4119 -0.1086
  975TIP3    H224561   3.448   0.568   9.413  0.5161 -0.8265 -0.2327
  976TIP3   OH224562   4.453   2.968   1.029  0.8237  0.9147  0.2223
  976TIP3    H124563   4.509   2.903   1.072  0.6088  1.0300  0.6848
  976TIP3    H224564   4.491   2.979   0.942 -0.0112 -0.9399 -0.4168
  977TIP3   OH224565   6.207   5.888   9.244 -0.3164 -0.2357  0.4361
  977TIP3    H124566   6.219   5.979   9.215 -1.6456 -0.5414 -1.2731
  977TIP3    H224567   6.161   5.895   9.328  0.5333  0.6723  0.8385
  978TIP3   OH224568   2.722   1.372   0.935  0.3117 -0.3048 -0.5867
  978TIP3    H124569   2.757   1.283   0.926  0.1851 -0.2588 -1.6633
  978TIP3    H224570   2.798   1.426   0.955  0.4705 -0.5726 -0.4572
  979TIP3   OH224571   0.081   4.273   8.726 -0.4594  0.0662 -0.3541
  979TIP3    H124572   0.045   4.330   8.659  1.0732  2.6592  0.8558
  979TIP3    H224573   0.037   4.299   8.807 -0.5771 -1.3365  0.0677
  980TIP3   OH224574   1.728   3.003   9.737 -0.1904 -0.5209  0.6062
  980TIP3    H124575   1.698   2.995   9.647  1.9583 -1.6024 -0.0926
  980TIP3    H224576   1.677   2.938   9.785  0.9704 -2.3812 -0.5443
  981TIP3   OH224577   0.696   2.130   0.180 -0.3296 -0.2465 -0.0010
  981TIP3    H124578   0.754   2.094   0.114  2.4456  1.7982  1.1330
  981TIP3    H224579   0.726   2.091   0.263 -1.6784 -0.3757  0.4592
  982TIP3   OH224580   2.795   2.152   0.039 -0.3843 -0.4286 -0.1425
  982TIP3    H124581   2.882   2.152  -0.002 -0.5818 -0.3385 -0.5628
  982TIP3    H224582   2.786   2.239   0.078 -0.4959 -0.2631 -0.5421
  983TIP3   OH224583   2.870   3.797   2.087 -0.0288  0.1033 -0.2488
  983TIP3    H124584   2.949   3.841   2.056  0.3298  0.0939  0.6330
  983TIP3    H224585   2.892   3.703   2.083  1.3821  0.1345  3.3787
  984TIP3   OH224586   2.155   5.694   0.992  0.2218  0.1504  0.4465
  984TIP3    H124587   2.112   5.611   0.970  0.2146  0.2110  0.2236
  984TIP3    H224588   2.246   5.681   0.966 -0.0991  0.7732 -1.1665
  985TIP3   OH224589   0.278   1.222   7.705  0.1693 -0.3834  0.2037
  985TIP3    H124590   0.245   1.135   7.729 -2.5927  0.6869  0.6389
  985TIP3    H224591   0.206   1.263   7.659  1.3214  1.7945  0.2236
  986TIP3   OH224592   2.396   3.695   2.706 -0.6729  0.6689 -0.4988
  986TIP3    H124593   2.484   3.659   2.697  0.0577  2.6275 -2.0465
  986TIP3    H224594   2.350   3.666   2.627  0.1037  3.3185 -2.0718
  987TIP3   OH224595   0.105   5.332   0.947  0.4004 -0.2103  0.1211
  987TIP3    H124596   0.029   5.368   0.993  1.3062  0.4239  1.1778
  987TIP3    H224597   0.115   5.244   0.981 -0.8978 -0.9599 -1.3332
  988TIP3   OH224598   6.374   1.489   0.194 -0.3924 -0.1354 -0.2549
  988TIP3    H124599   6.323   1.462   0.118 -0.7065  1.2622 -0.5773
  988TIP3    H224600   6.342   1.433   0.265 -0.4899 -1.0736 -1.0119
  989TIP3   OH224601   2.021   4.096   7.577  0.0448 -0.5512 -0.7373
  989TIP3    H124602   2.005   4.019   7.631 -1.8056  0.0255 -0.4091
  989TIP3    H224603   1.941   4.147   7.583  0.5932  0.5818 -2.3231
  990TIP3   OH224604   2.180   1.722   1.918  0.0545  0.2344 -0.0312
  990TIP3    H124605   2.248   1.667   1.957 -0.9442 -0.5250  0.6499
  990TIP3    H224606   2.139   1.767   1.992 -0.3587  0.4985 -0.4137
  991TIP3   OH224607   2.944   1.114   9.486  0.3018  0.1296 -0.1319
  991TIP3    H124608   2.987   1.106   9.571  0.9265  0.6681 -0.3972
  991TIP3    H224609   3.006   1.075   9.424 -0.3533 -0.7003 -0.2923
  992TIP3   OH224610   0.208   4.261   8.996  0.2086 -0.4412 -0.6544
  992TIP3    H124611   0.226   4.315   9.073 -1.9526 -1.0625  0.3566
  992TIP3    H224612   0.256   4.304   8.925  1.1783  0.9172  0.7582
  993TIP3   OH224613   6.084   3.791   9.516  0.3878 -0.2835  0.3666
  993TIP3    H124614   5.998   3.830   9.506  0.0394 -1.2261 -0.5090
  993TIP3    H224615   6.145   3.858   9.486  0.0121  0.5999  1.5305
  994TIP3   OH224616   1.229   5.905   8.148 -0.8782 -0.1371  0.2738
  994TIP3    H124617   1.273   5.824   8.120 -0.2871  0.8917 -2.0639
  994TIP3    H224618   1.138   5.892   8.122 -0.5808  0.2994 -1.1018
  995TIP3   OH224619   3.572   3.058   3.279  0.4691  0.2490  0.1102
  995TIP3    H124620   3.651   3.037   3.329  1.3471  1.3761 -0.7372
  995TIP3    H224621   3.537   3.135   3.323  2.6056  2.7888 -2.2901
  996TIP3   OH224622   5.512   3.243   1.228 -0.0758 -0.4545 -0.0129
  996TIP3    H124623   5.460   3.293   1.291 -1.4681 -2.3886  0.4377
  996TIP3    H224624   5.576   3.196   1.281  1.7623  1.3481 -0.5033
  997TIP3   OH224625   2.774   2.620   0.405 -0.1271  0.1844  0.0525
  997TIP3    H124626   2.867   2.635   0.416 -0.3356  0.9379  0.8685
  997TIP3    H224627   2.765   2.525   0.408  0.5438  0.1297  0.5700
  998TIP3   OH224628   0.899   4.665   3.036  0.0381  0.2239  0.2917
  998TIP3    H124629   0.860   4.591   3.083 -0.6348  0.0621 -0.4867
  998TIP3    H224630   0.992   4.643   3.030 -0.2920 -1.0503 -0.7581
  999TIP3   OH224631   4.332   5.727   2.877  0.2061 -0.6576  0.6536
  999TIP3    H124632   4.340   5.637   2.846  1.2673  0.2097 -1.8766
  999TIP3    H224633   4.250   5.759   2.839  0.8163 -0.0008 -0.1702
 1000TIP3   OH224634   0.333   1.530   0.907  0.0141 -0.1270  0.3235
 1000TIP3    H124635   0.390   1.561   0.976  0.6492 -2.2743  0.8513
 1000TIP3    H224636   0.244   1.540   0.941  0.3018 -0.6815  1.2595
 1001TIP3   OH224637   6.190   0.835   7.204 -0.1745  0.6647 -0.1579
 1001TIP3    H124638   6.161   0.746   7.227 -2.1736  0.5841 -2.5511
 1001TIP3    H224639   6.216   0.874   7.287 -0.0821 -1.8459  1.1008
 1002TIP3   OH224640   5.864   4.712   0.693  0.2019  0.5215  0.2664
 1002TIP3    H124641   5.934   4.758   0.739  0.6680 -0.3110  0.4205
 1002TIP3    H224642   5.784   4.756   0.720  0.6295  1.2283  0.4101
 1003TIP3   OH224643   0.173   0.914   7.967 -0.0443 -0.3083 -0.3298
 1003TIP3    H124644   0.117   0.925   8.044  1.8908  1.8061  0.8903
 1003TIP3    H224645   0.247   0.861   7.998  0.4245 -0.0134 -0.9198
 1004TIP3   OH224646   5.332   6.017  10.003  0.1492  0.4123 -0.0991
 1004TIP3    H124647   5.267   6.004  10.073  0.5870  1.0870  0.4452
 1004TIP3    H224648   5.288   5.985   9.924  0.9295 -4.0209  0.9538
 1005TIP3   OH224649   3.390   5.379   8.664 -0.3007  0.2621  0.0316
 1005TIP3    H124650   3.370   5.302   8.610  1.1369 -1.6600  2.0327
 1005TIP3    H224651   3.422   5.444   8.602  0.3470 -1.4804 -1.5660
 1006TIP3   OH224652   2.943   3.156   9.926  0.1064 -0.1127 -0.0185
 1006TIP3    H124653   2.877   3.087   9.920  2.1704 -2.1254 -1.1236
 1006TIP3    H224654   2.947   3.194   9.838  2.1350 -1.8094 -0.7472
 1007TIP3   OH224655   3.557   1.395   1.891 -0.1077 -0.5953  0.3584
 1007TIP3    H124656   3.629   1.370   1.949 -0.0296 -0.0504  0.4940
 1007TIP3    H224657   3.517   1.471   1.933 -1.3550 -1.4464  0.7813
 1008TIP3   OH224658   5.188   1.671   1.262 -0.2467  0.0428  0.0666
 1008TIP3    H124659   5.253   1.624   1.315  0.2921 -0.7935 -1.2947
 1008TIP3    H224660   5.107   1.664   1.312  0.1051 -1.2412  0.4998
 1009TIP3   OH224661   5.556   3.648   0.077 -0.4880 -0.4057  0.2501
 1009TIP3    H124662   5.577   3.696   0.157  1.2667  0.2695 -0.5650
 1009TIP3    H224663   5.634   3.596   0.059 -0.2966  0.4810 -1.7282
 1010TIP3   OH224664   1.592   3.670   9.392  0.0355  0.5052 -0.8581
 1010TIP3    H124665   1.545   3.616   9.455 -1.3519  1.4037 -1.0666
 1010TIP3    H224666   1.614   3.611   9.320  1.2425 -0.4266  0.2406
 1011TIP3   OH224667   2.466   0.988   0.156 -0.0433  0.1822  0.1885
 1011TIP3    H124668   2.509   1.063   0.116 -0.5247  0.4069  0.0891
 1011TIP3    H224669   2.375   1.015   0.168  0.2308  0.3744  2.1036
 1012TIP3   OH224670   4.320   0.419   1.513  0.0831  0.0370  0.1888
 1012TIP3    H124671   4.403   0.398   1.554  0.9852  0.2560 -1.4380
 1012TIP3    H224672   4.312   0.514   1.522 -0.1065 -0.0080  0.5256
 1013TIP3   OH224673   5.451   4.458   2.092  0.3106  0.1096 -0.1440
 1013TIP3    H124674   5.413   4.386   2.042  0.5971  0.3360 -0.6997
 1013TIP3    H224675   5.392   4.470   2.166 -0.7358  0.4818 -1.0049
 1014TIP3   OH224676   4.927   3.344   0.189  0.4161 -0.0626  0.1765
 1014TIP3    H124677   4.848   3.395   0.209  0.8974 -0.3486  3.2094
 1014TIP3    H224678   4.998   3.393   0.229  1.3972 -1.2830 -0.0152
 1015TIP3   OH224679   4.617   0.639   9.977 -0.9623  0.1197  0.1872
 1015TIP3    H124680   4.696   0.591   9.952 -2.4746 -1.5399 -1.7923
 1015TIP3    H224681   4.590   0.598  10.060 -0.2858  0.0590  0.3903
 1016TIP3   OH224682   5.365   3.090   2.966  0.5133 -0.7107 -0.3762
 1016TIP3    H124683   5.298   3.091   3.034  0.4277 -1.0961 -0.4536
 1016TIP3    H224684   5.407   3.177   2.972 -0.6362 -0.0900 -0.9772
 1017TIP3   OH224685   1.347   1.441   0.421  0.7201 -0.0818  0.1255
 1017TIP3    H124686   1.396   1.449   0.502  0.1394 -0.0983  0.4893
 1017TIP3    H224687   1.384   1.364   0.377  0.1768 -0.8681  1.0015
 1018TIP3   OH224688   3.387   5.699   9.093  0.3016 -0.0918 -0.2842
 1018TIP3    H124689   3.427   5.761   9.154 -0.8313  0.7186 -0.3225
 1018TIP3    H224690   3.293   5.709   9.108  0.0355 -0.5087 -1.5553
 1019TIP3   OH224691   2.404   6.316   9.219 -0.3006  0.1055 -0.5594
 1019TIP3    H124692   2.374   6.333   9.130  0.9172  1.2125 -0.7954
 1019TIP3    H224693   2.474   6.251   9.209  0.0925  0.5076 -0.4606
 1020TIP3   OH224694   2.995   2.833   9.990 -0.4441 -0.7547 -0.7694
 1020TIP3    H124695   2.918   2.887  10.008  0.4400 -0.1790  1.6692
 1020TIP3    H224696   3.021   2.857   9.901 -0.4381  2.5017 -0.0231
 1021TIP3   OH224697   1.628   4.380   1.771  0.2012 -0.2954 -0.0620
 1021TIP3    H124698   1.671   4.367   1.855 -0.2660  1.0378  0.4084
 1021TIP3    H224699   1.597   4.471   1.773 -1.6241 -0.8571 -0.8430
 1022TIP3   OH224700   2.605   2.296   9.903  0.0733  0.3221 -0.0310
 1022TIP3    H124701   2.517   2.294   9.939 -1.3354  0.0565 -3.1849
 1022TIP3    H224702   2.644   2.213   9.931 -0.0654  1.0698  2.5934
 1023TIP3   OH224703   1.842   2.804   8.756 -0.0517 -0.3682  0.5519
 1023TIP3    H124704   1.794   2.821   8.837 -2.0532 -1.1512 -0.4082
 1023TIP3    H224705   1.887   2.721   8.772  1.4593  0.6045  1.6274
 1024TIP3   OH224706   1.023   1.250   0.919 -0.4657 -0.3269  0.1101
 1024TIP3    H124707   1.058   1.318   0.860 -0.9483  1.2885  1.5822
 1024TIP3    H224708   0.930   1.270   0.926 -0.7299 -1.5184  0.1278
 1025TIP3   OH224709   0.942   4.361   2.348 -0.3440  0.1418  0.0628
 1025TIP3    H124710   0.891   4.324   2.419 -0.3794  0.6092  0.2902
 1025TIP3    H224711   1.032   4.360   2.380 -0.5852  2.2530  0.9986
 1026TIP3   OH224712   3.012   1.042   0.499  0.5059  0.3285  0.2135
 1026TIP3    H124713   3.053   0.980   0.438  1.1644  0.9874 -0.0255
 1026TIP3    H224714   3.039   1.011   0.585  1.5738  0.7775  0.0590
 1027TIP3   OH224715   3.554   4.745   9.603 -0.7830  0.4053 -0.0897
 1027TIP3    H124716   3.482   4.691   9.570  0.5958 -0.0802 -2.4852
 1027TIP3    H224717   3.623   4.683   9.623  0.6539  1.1464 -2.4210
 1028TIP3   OH224718   5.463   0.489   0.482 -0.2288  0.9175 -0.6369
 1028TIP3    H124719   5.538   0.460   0.430  0.5581  2.1408 -0.2240
 1028TIP3    H224720   5.474   0.584   0.489 -3.0935  1.5046 -2.5485
 1029TIP3   OH224721   3.378   5.188   0.467 -0.4141  0.0275 -0.1542
 1029TIP3    H124722   3.348   5.187   0.376 -0.7081 -0.8634 -0.0601
 1029TIP3    H224723   3.408   5.278   0.481 -3.3268  1.0937 -0.1514
 1030TIP3   OH224724   4.880   4.790   9.749 -0.3260 -0.2426  0.5218
 1030TIP3    H124725   4.819   4.829   9.686  1.0548 -0.4390 -1.0033
 1030TIP3    H224726   4.963   4.836   9.734  0.2384 -0.8183  1.6912
 1031TIP3   OH224727   4.582   4.789   3.247  0.0575 -0.7481 -0.0622
 1031TIP3    H124728   4.631   4.755   3.172 -1.0528  1.3206 -1.8250
 1031TIP3    H224729   4.494   4.805   3.214 -0.0667  1.7059  1.1771
 1032TIP3   OH224730   3.448   6.276   0.194  0.1759 -0.2423 -0.4219
 1032TIP3    H124731   3.517   6.303   0.255 -0.9010  1.6672  0.0259
 1032TIP3    H224732   3.465   6.328   0.115 -0.7794  0.3292 -0.2669
 1033TIP3   OH224733   4.254   5.131   2.063 -0.0383  0.8935 -0.3758
 1033TIP3    H124734   4.287   5.053   2.108 -1.4099  0.8921  0.7120
 1033TIP3    H224735   4.277   5.117   1.971 -0.9646 -1.1908 -0.3529
 1034TIP3   OH224736   5.919   1.955   7.997  0.4382  0.0267 -0.1735
 1034TIP3    H124737   6.006   1.925   8.024  0.5601  0.1637 -0.4149
 1034TIP3    H224738   5.895   1.899   7.924 -0.1020 -0.6674  0.5152
 1035TIP3   OH224739   5.551   3.309   2.966 -0.6868 -0.2318  0.1816
 1035TIP3    H124740   5.606   3.305   3.044  1.7604  2.0130 -1.2560
 1035TIP3    H224741   5.516   3.398   2.966 -1.2253 -0.4287 -0.8847
 1036TIP3   OH224742   0.202   4.330   8.060 -0.2482  0.1000  0.1137
 1036TIP3    H124743   0.261   4.391   8.017 -1.3427  0.4676 -0.9574
 1036TIP3    H224744   0.241   4.244   8.045  0.1000  0.3524 -0.4484
 1037TIP3   OH224745   5.112   2.584   3.276  1.1531 -0.2763 -0.1050
 1037TIP3    H124746   5.157   2.597   3.359 -1.1330 -2.0765  1.5453
 1037TIP3    H224747   5.023   2.614   3.292  0.4278 -1.4861 -1.6051
 1038TIP3   OH224748   2.204   5.507   9.296 -0.1427  0.2954 -0.2922
 1038TIP3    H124749   2.285   5.538   9.336  0.0292 -0.3048 -0.1656
 1038TIP3    H224750   2.199   5.553   9.212 -0.1648  1.0572  0.1260
 1039TIP3   OH224751   5.470   1.120   7.761  0.1286 -0.1346 -0.1299
 1039TIP3    H124752   5.387   1.162   7.784  0.5155  0.8414 -0.4542
 1039TIP3    H224753   5.537   1.184   7.786  0.7804 -0.8693  0.0365
 1040TIP3   OH224754   1.356   2.242   9.857 -0.6287 -0.0227  0.6828
 1040TIP3    H124755   1.264   2.264   9.871 -0.1532  1.7647  1.2278
 1040TIP3    H224756   1.405   2.310   9.904  0.9817 -1.6199  1.4256
 1041TIP3   OH224757   4.224   4.741   9.098  0.2796  0.4111  0.4471
 1041TIP3    H124758   4.214   4.653   9.061 -0.0024  0.6041  0.0649
 1041TIP3    H224759   4.304   4.735   9.151  0.3941 -0.0075  0.2340
 1042TIP3   OH224760   5.574   3.773   0.350  0.0871  0.3967 -0.0175
 1042TIP3    H124761   5.621   3.784   0.433  1.7876 -0.7405 -0.7720
 1042TIP3    H224762   5.624   3.825   0.287  0.7155 -1.2530 -0.9567
 1043TIP3   OH224763   2.864   2.286   8.785 -0.3845  0.0162  0.6028
 1043TIP3    H124764   2.932   2.263   8.721 -0.8446 -0.1075  0.1500
 1043TIP3    H224765   2.867   2.381   8.789  1.5631 -0.0635  2.5223
 1044TIP3   OH224766   1.776   5.740   8.478  0.8114 -0.0969 -0.1324
 1044TIP3    H124767   1.775   5.770   8.569  3.6073  2.1629 -0.7141
 1044TIP3    H224768   1.743   5.815   8.429 -0.5506 -1.2527 -1.0559
 1045TIP3   OH224769   6.332   5.071   8.429 -0.0412 -0.4605  0.2792
 1045TIP3    H124770   6.327   5.115   8.344 -0.3437 -1.2434 -0.1152
 1045TIP3    H224771   6.247   5.087   8.469  0.5646  1.1026  1.0664
 1046TIP3   OH224772   2.801   6.220   1.892  0.4358 -0.2832  0.2738
 1046TIP3    H124773   2.758   6.149   1.939  0.0882 -0.2630 -0.0054
 1046TIP3    H224774   2.841   6.274   1.960  0.2527 -0.4552  0.5175
 1047TIP3   OH224775   1.530   5.072   2.851  0.5239 -0.7914  0.6050
 1047TIP3    H124776   1.498   5.162   2.841 -1.5841 -1.5556 -0.1430
 1047TIP3    H224777   1.555   5.066   2.943 -2.3279 -0.2843  1.4995
 1048TIP3   OH224778   1.453   4.606   7.479  0.1902  0.3678 -0.6601
 1048TIP3    H124779   1.471   4.615   7.572 -0.9457 -1.2684 -0.2295
 1048TIP3    H224780   1.496   4.524   7.454 -1.5108 -0.4879 -0.9658
 1049TIP3   OH224781   3.759   5.129   1.962  0.2054 -0.4948 -0.5145
 1049TIP3    H124782   3.835   5.136   2.019 -1.0515 -0.4881  1.2342
 1049TIP3    H224783   3.709   5.209   1.979 -0.1066 -0.3827 -1.8091
 1050TIP3   OH224784   1.115   1.712  10.018 -0.1851 -0.0949 -0.4606
 1050TIP3    H124785   1.184   1.701   9.952 -0.7654 -1.0754 -0.9408
 1050TIP3    H224786   1.041   1.747   9.969 -0.3490 -0.0267 -0.1626
 1051TIP3   OH224787   4.463   0.509   7.890 -0.3788  0.5468 -0.2826
 1051TIP3    H124788   4.498   0.504   7.801  0.1381 -0.5978 -0.0252
 1051TIP3    H224789   4.396   0.441   7.895 -1.2804  1.4043 -0.1486
 1052TIP3   OH224790   0.095   3.816   2.465  0.6705  0.0930 -0.1580
 1052TIP3    H124791   0.109   3.902   2.504 -0.1933  0.9452 -1.6225
 1052TIP3    H224792   0.000   3.808   2.457  0.7978 -0.0270 -2.0335
 1053TIP3   OH224793   2.333   2.684   8.404 -0.5852 -0.2519  0.2292
 1053TIP3    H124794   2.385   2.604   8.412  1.2349  0.7806 -0.7215
 1053TIP3    H224795   2.336   2.724   8.491  0.6459  0.0245  0.0777
 1054TIP3   OH224796   2.369   3.746   1.153  0.3164  0.4125 -0.2768
 1054TIP3    H124797   2.301   3.803   1.188  0.9639  1.0589 -0.0222
 1054TIP3    H224798   2.346   3.658   1.181  0.4311  0.8208  1.1557
 1055TIP3   OH224799   3.850   2.453   9.096  0.3552 -0.3479  0.5312
 1055TIP3    H124800   3.832   2.546   9.081 -1.2742 -0.9193 -1.6433
 1055TIP3    H224801   3.877   2.421   9.010  0.7673 -1.9125  1.2206
 1056TIP3   OH224802   2.059   0.157   2.031 -0.1946  0.2889  0.0639
 1056TIP3    H124803   1.971   0.184   2.005  0.1984  1.5070 -0.0566
 1056TIP3    H224804   2.046   0.073   2.075 -1.6499  1.3006  1.6863
 1057TIP3   OH224805   4.059   5.898   0.482  0.5731  0.0968 -0.4000
 1057TIP3    H124806   4.126   5.895   0.551 -0.3530  0.6873  0.5603
 1057TIP3    H224807   4.002   5.970   0.508  0.1686  0.2971 -1.7817
 1058TIP3   OH224808   5.068   2.225   8.489 -0.0800  0.0385  0.4615
 1058TIP3    H124809   5.012   2.297   8.518 -1.8199 -1.2599  0.4410
 1058TIP3    H224810   5.143   2.269   8.449 -1.2563  1.8454  0.1073
 1059TIP3   OH224811   3.148   0.976   9.318 -0.2225 -0.2350 -0.5482
 1059TIP3    H124812   3.221   1.027   9.353 -0.4400 -1.2392  1.4731
 1059TIP3    H224813   3.171   0.885   9.337 -2.2838 -0.5416  0.7634
 1060TIP3   OH224814   1.243   5.796   6.965 -0.5433  0.0247  0.0647
 1060TIP3    H124815   1.294   5.876   6.980 -0.1205 -0.0961 -0.6561
 1060TIP3    H224816   1.291   5.750   6.896 -1.1712 -0.5083 -0.0250
 1061TIP3   OH224817   0.508   5.701   7.393 -0.1561 -0.6136  0.2598
 1061TIP3    H124818   0.547   5.685   7.479  1.3272 -0.4850 -0.3515
 1061TIP3    H224819   0.456   5.623   7.375  0.7348 -1.3136  0.6495
 1062TIP3   OH224820   0.993   1.538   9.789  0.2561  0.1873 -0.3374
 1062TIP3    H124821   0.957   1.504   9.707  1.0258  0.6789 -0.8942
 1062TIP3    H224822   1.085   1.512   9.788  0.9900  2.5745 -0.9956
 1063TIP3   OH224823   2.480   0.033   0.292 -0.2825 -0.0814  0.3114
 1063TIP3    H124824   2.523   0.015   0.208  0.2353  0.1413  0.5297
 1063TIP3    H224825   2.460   0.127   0.289  1.0980  0.2673  1.0525
 1064TIP3   OH224826   4.649   2.410   2.352  0.0667 -0.5675  0.1448
 1064TIP3    H124827   4.618   2.399   2.262  1.6237 -1.7794 -0.2910
 1064TIP3    H224828   4.617   2.332   2.398  1.6431 -1.4120 -0.1097
 1065TIP3   OH224829   0.836   0.157   0.934  0.1932 -0.0086 -0.2836
 1065TIP3    H124830   0.857   0.075   0.977  0.6602  0.0963 -0.3069
 1065TIP3    H224831   0.785   0.206   0.999 -1.8261 -1.0911 -0.9512
 1066TIP3   OH224832   0.190   3.995   0.286  0.6478  0.3895 -0.0858
 1066TIP3    H124833   0.178   4.024   0.376 -0.7328 -0.7346  0.1476
 1066TIP3    H224834   0.170   4.072   0.233 -1.1140  0.4346  0.5416
 1067TIP3   OH224835   2.345   1.420   1.099  0.0108  0.3992  0.2244
 1067TIP3    H124836   2.322   1.327   1.088 -2.0119  0.7581  1.0209
 1067TIP3    H224837   2.406   1.421   1.172 -0.5780 -0.2518  0.7432
 1068TIP3   OH224838   1.780   1.683   9.484  0.5628 -0.4819 -0.1029
 1068TIP3    H124839   1.802   1.775   9.476  0.8399 -0.5535 -0.1958
 1068TIP3    H224840   1.703   1.670   9.429 -0.3383 -0.0097  1.0190
 1069TIP3   OH224841   0.218   2.370   2.314  0.0050  0.3617  0.0614
 1069TIP3    H124842   0.185   2.347   2.401  2.2277 -0.9128  0.6539
 1069TIP3    H224843   0.298   2.420   2.332  1.0484 -0.7705 -1.1817
 1070TIP3   OH224844   2.473   3.483   3.145  0.5541  0.0785  0.3496
 1070TIP3    H124845   2.429   3.428   3.210 -2.0509  1.1926 -0.3386
 1070TIP3    H224846   2.436   3.456   3.061  1.0324  1.2362 -0.2579
 1071TIP3   OH224847   2.649   0.682   9.779  0.4016  0.3180  0.2478
 1071TIP3    H124848   2.719   0.741   9.753  0.3969  0.2688  0.1227
 1071TIP3    H224849   2.677   0.648   9.865 -0.0860  1.2820  0.7952
 1072TIP3   OH224850   1.741   2.074   2.605  0.7864  0.4252 -0.6515
 1072TIP3    H124851   1.833   2.073   2.628  0.3376  0.7184  1.3384
 1072TIP3    H224852   1.724   2.163   2.576  0.7381  0.9765  0.9445
 1073TIP3   OH224853   0.779   4.954   9.242  0.1682 -0.0402  0.5046
 1073TIP3    H124854   0.684   4.967   9.252  0.3616  0.6127  1.6073
 1073TIP3    H224855   0.791   4.947   9.147 -1.1342 -1.4225  0.4035
 1074TIP3   OH224856   1.116   4.162   1.016  0.8641 -0.2146  0.1077
 1074TIP3    H124857   1.174   4.093   0.984  1.2695 -0.0381  0.4517
 1074TIP3    H224858   1.162   4.243   0.994  0.1266 -0.0303 -0.8124
 1075TIP3   OH224859   3.091   2.612   2.836 -0.4920  0.5967  0.4164
 1075TIP3    H124860   3.130   2.648   2.916  0.6648 -0.1879  0.2284
 1075TIP3    H224861   3.165   2.596   2.778 -1.1957  0.0068 -0.3514
 1076TIP3   OH224862   5.793   5.820   8.026 -0.4797 -0.9069 -0.1313
 1076TIP3    H124863   5.766   5.910   8.006  0.4525 -0.1872  1.6130
 1076TIP3    H224864   5.868   5.804   7.969  0.8640  0.3586  1.1638
 1077TIP3   OH224865   2.560   2.019   9.665 -0.3131  0.3785  0.6139
 1077TIP3    H124866   2.554   2.080   9.592  0.5959 -1.0760 -0.7406
 1077TIP3    H224867   2.653   2.017   9.687 -0.4146 -0.0818  1.0249
 1078TIP3   OH224868   0.092   1.186   0.347  0.1521  0.3765 -0.0454
 1078TIP3    H124869   0.132   1.136   0.418 -1.5760 -0.8707  0.1107
 1078TIP3    H224870   0.033   1.247   0.392  0.0262  0.4882 -0.3620
 1079TIP3   OH224871   0.632   5.575   8.233  0.1029  0.2295 -0.2589
 1079TIP3    H124872   0.646   5.495   8.182  1.0623  0.5432 -0.5240
 1079TIP3    H224873   0.691   5.566   8.308 -0.5900  0.2040  0.2859
 1080TIP3   OH224874   5.280   4.871   9.434  0.6661 -0.2010  0.4086
 1080TIP3    H124875   5.272   4.883   9.340 -0.8202  0.8757  0.6445
 1080TIP3    H224876   5.336   4.794   9.444  1.1247 -0.1206 -1.3349
 1081TIP3   OH224877   4.413   4.282   0.699 -0.5564  0.2341 -0.0944
 1081TIP3    H124878   4.366   4.259   0.619  0.6748  2.2424 -1.4757
 1081TIP3    H224879   4.502   4.300   0.670 -0.1080  1.1554  1.7279
 1082TIP3   OH224880   0.800   2.015   8.798  0.2862 -0.3200 -0.3129
 1082TIP3    H124881   0.752   1.963   8.734  1.4772 -0.6488 -0.9727
 1082TIP3    H224882   0.746   2.012   8.877  0.0567 -2.1214 -0.5025
 1083TIP3   OH224883   1.764   4.845   1.024  0.2114  0.5905 -0.1949
 1083TIP3    H124884   1.747   4.818   1.114  2.6993  1.4558  0.6136
 1083TIP3    H224885   1.857   4.866   1.022  0.1086  1.1800 -2.8390
 1084TIP3   OH224886   3.600   3.069   0.115 -0.8225 -0.2543 -0.0117
 1084TIP3    H124887   3.578   2.985   0.073 -1.0466 -1.1496  1.8086
 1084TIP3    H224888   3.518   3.118   0.116 -0.6237  0.1638 -1.3662
 1085TIP3   OH224889   0.073   1.152   0.072  0.0639  0.0188 -0.3300
 1085TIP3    H124890   0.080   1.060   0.094  0.0949  0.4256  1.4974
 1085TIP3    H224891   0.067   1.197   0.156  2.6383  1.9053 -1.0148
 1086TIP3   OH224892   6.032   5.454   9.405  0.2122 -0.0912 -0.3589
 1086TIP3    H124893   5.940   5.455   9.431  0.4927 -1.0408  0.7900
 1086TIP3    H224894   6.080   5.476   9.485  1.0655 -2.0221 -0.2703
 1087TIP3   OH224895   4.893   0.508   1.376 -0.1778 -0.4769 -0.3093
 1087TIP3    H124896   4.914   0.419   1.347 -0.1083 -0.7777  0.6478
 1087TIP3    H224897   4.978   0.549   1.391 -0.1013  0.5203 -2.8864
 1088TIP3   OH224898   6.288   4.240   2.469  0.3621 -0.6370 -0.1384
 1088TIP3    H124899   6.242   4.184   2.406  1.0701 -0.3585 -0.9377
 1088TIP3    H224900   6.301   4.322   2.422  1.1491 -0.5200  0.2667
 1089TIP3   OH224901   4.169   5.583   3.430 -0.2617  0.8530  0.5769
 1089TIP3    H124902   4.256   5.594   3.470  0.6220 -2.0818 -0.2644
 1089TIP3    H224903   4.168   5.645   3.357  2.2325 -0.7245 -0.9499
 1090TIP3   OH224904   4.533   1.293   1.925  0.4475  0.3510 -0.2802
 1090TIP3    H124905   4.595   1.335   1.984  0.6083  1.2047 -1.0441
 1090TIP3    H224906   4.452   1.285   1.977  0.9253  0.0057  0.4322
 1091TIP3   OH224907   2.861   3.654   8.101 -0.2932 -0.1109  0.0023
 1091TIP3    H124908   2.904   3.679   8.183 -1.5262 -2.0175  1.3286
 1091TIP3    H224909   2.799   3.585   8.127 -0.5373 -0.9682 -2.5964
 1092TIP3   OH224910   2.218   2.782   0.631 -0.9814 -0.0339 -0.9005
 1092TIP3    H124911   2.303   2.785   0.586 -1.0494  0.0431 -1.0268
 1092TIP3    H224912   2.180   2.698   0.605 -0.3047 -0.7510  0.3520
 1093TIP3   OH224913   5.976   4.337   1.620 -0.1319  0.4601 -0.0708
 1093TIP3    H124914   6.042   4.272   1.598  0.0522  0.1361  1.3510
 1093TIP3    H224915   6.001   4.414   1.569  1.8041  0.5910  0.9623
 1094TIP3   OH224916   4.246   5.163   1.777  0.2004  0.6912 -0.1712
 1094TIP3    H124917   4.282   5.160   1.688  0.8396  2.2230  0.0127
 1094TIP3    H224918   4.268   5.250   1.809  0.8104 -0.1614  1.8582
 1095TIP3   OH224919   3.063   5.612   1.145 -0.5722 -0.0175  0.2693
 1095TIP3    H124920   3.030   5.699   1.168 -0.5916  0.4170 -1.2952
 1095TIP3    H224921   3.137   5.628   1.088 -2.2053 -0.9672 -2.3033
 1096TIP3   OH224922   5.385   0.140   1.099  0.0012 -0.4454 -0.8781
 1096TIP3    H124923   5.310   0.198   1.105  0.7497  0.4496  0.1043
 1096TIP3    H224924   5.347   0.052   1.098 -1.0544 -0.0107 -0.3676
 1097TIP3   OH224925   2.113   6.342   8.572  0.1214  0.2133 -0.6200
 1097TIP3    H124926   2.083   6.253   8.554 -1.2392  0.5286 -0.0598
 1097TIP3    H224927   2.200   6.347   8.532  2.0381 -2.5972  2.6744
 1098TIP3   OH224928   4.095   6.067   8.240  0.6235 -0.8598 -0.1909
 1098TIP3    H124929   4.145   6.135   8.194 -1.1674  0.2650 -0.5832
 1098TIP3    H224930   4.055   6.015   8.170  0.1020 -0.8488  0.0918
 1099TIP3   OH224931   3.882   5.412   3.245  0.1798  0.0897  0.4779
 1099TIP3    H124932   3.825   5.335   3.254  0.4216 -0.2168 -0.5004
 1099TIP3    H224933   3.824   5.486   3.259 -0.5664 -0.2053 -0.8145
 1100TIP3   OH224934   3.391   5.505   1.657  0.4754 -0.0722  0.3379
 1100TIP3    H124935   3.451   5.508   1.584 -1.7650 -0.6848 -1.6583
 1100TIP3    H224936   3.336   5.583   1.647 -1.8688 -1.7177 -0.5874
 1101TIP3   OH224937   5.848   2.262   2.412  0.4235 -0.0511  0.3236
 1101TIP3    H124938   5.842   2.174   2.375 -2.2831  0.4648 -0.6762
 1101TIP3    H224939   5.934   2.294   2.383  0.7244 -1.7142 -0.7712
 1102TIP3   OH224940   5.860   3.060   1.176  0.0226 -0.1998  0.4406
 1102TIP3    H124941   5.878   2.984   1.120  1.0270 -0.4561  1.0950
 1102TIP3    H224942   5.845   3.022   1.263 -0.0468  0.3134  0.6516
 1103TIP3   OH224943   3.211   1.562   1.055  0.2033  0.3745  0.0879
 1103TIP3    H124944   3.237   1.608   1.135  1.1851  1.6254 -0.9144
 1103TIP3    H224945   3.183   1.631   0.995  2.0792 -0.2270 -1.6025
 1104TIP3   OH224946   6.336   1.251   8.077 -0.3459  0.3175  0.3130
 1104TIP3    H124947   6.345   1.297   7.994 -0.0824 -0.3127 -0.0078
 1104TIP3    H224948   6.306   1.319   8.138  2.5158  1.5566  0.4841
 1105TIP3   OH224949   0.496   3.033   2.865  0.2407  0.0748  0.1296
 1105TIP3    H124950   0.591   3.028   2.877  0.2215  0.0548  0.2772
 1105TIP3    H224951   0.469   2.941   2.855 -0.0815 -0.1597  2.5969
 1106TIP3   OH224952   3.337   5.656   8.827 -0.4318 -0.5434 -0.0146
 1106TIP3    H124953   3.336   5.560   8.820  2.3857 -0.6632  0.3352
 1106TIP3    H224954   3.353   5.672   8.920  2.3972  0.1217 -0.5304
 1107TIP3   OH224955   4.188   0.913   1.003  0.4842 -0.0904 -0.3688
 1107TIP3    H124956   4.254   0.869   0.950  0.1597 -1.8558  0.6195
 1107TIP3    H224957   4.238   0.964   1.067  0.8716  0.2403 -0.9305
 1108TIP3   OH224958   4.834   1.649   9.745  0.0624  0.1276  0.0054
 1108TIP3    H124959   4.779   1.690   9.677 -0.3035  0.0489  0.2500
 1108TIP3    H224960   4.783   1.660   9.825  1.2113  1.6728  0.5759
 1109TIP3   OH224961   5.170   5.088   8.838 -0.0832 -0.1562 -0.4238
 1109TIP3    H124962   5.146   5.029   8.766 -0.6838 -2.1885  1.3569
 1109TIP3    H224963   5.089   5.136   8.857  0.0602  0.3424 -1.0210
 1110TIP3   OH224964   4.731   0.069   9.579  0.3736  0.3869 -0.0851
 1110TIP3    H124965   4.690   0.101   9.659 -0.0705  1.5266 -0.7481
 1110TIP3    H224966   4.665   0.085   9.511  1.5364  1.3529 -1.0167
 1111TIP3   OH224967   3.666   5.402   2.993 -0.2793  0.0353 -0.0663
 1111TIP3    H124968   3.678   5.307   2.995 -1.1032 -0.0638  0.4943
 1111TIP3    H224969   3.670   5.428   3.085  3.4620  1.0305 -0.3655
 1112TIP3   OH224970   1.697   0.023   0.876  0.6335  0.1496  0.0380
 1112TIP3    H124971   1.631  -0.031   0.832  1.3145 -1.2876  0.7296
 1112TIP3    H224972   1.729   0.082   0.808  0.8444 -1.2444 -1.1079
 1113TIP3   OH224973   2.356   5.929   0.921 -0.7436  0.2368 -0.2144
 1113TIP3    H124974   2.301   5.942   0.844  0.3879 -0.7514 -1.2283
 1113TIP3    H224975   2.406   5.849   0.902 -0.7102 -0.2606  1.7155
 1114TIP3   OH224976   1.200   4.859   0.565  0.0428 -0.3254  0.1117
 1114TIP3    H124977   1.215   4.946   0.602 -1.6283  0.7445 -1.5534
 1114TIP3    H224978   1.255   4.856   0.487 -0.4025 -0.4822 -0.2001
 1115TIP3   OH224979   3.692   3.203   4.003 -0.1248  0.4851  0.3497
 1115TIP3    H124980   3.630   3.159   3.944  0.0452  0.4240  0.2168
 1115TIP3    H224981   3.753   3.248   3.944  0.8274 -0.6418  0.4485
 1116TIP3   OH224982   4.176   2.288   1.023  0.6353 -0.2209  0.1117
 1116TIP3    H124983   4.159   2.379   0.998  1.2747  0.3256  1.5550
 1116TIP3    H224984   4.097   2.241   0.998 -0.9011  1.2707  1.9446
 1117TIP3   OH224985   1.506   1.400   1.501 -0.5578  0.3977 -0.7614
 1117TIP3    H124986   1.544   1.421   1.586 -0.1011  2.4218 -1.4082
 1117TIP3    H224987   1.530   1.308   1.486  0.4537  0.3894  0.6869
 1118TIP3   OH224988   4.452   1.162   2.836 -0.4973 -0.4312  0.1008
 1118TIP3    H124989   4.452   1.174   2.931  0.7610 -2.2155  0.3937
 1118TIP3    H224990   4.428   1.070   2.824 -0.2718 -0.3298 -1.2730
 1119TIP3   OH224991   0.997   5.220   2.633 -0.1362  0.1764 -0.1188
 1119TIP3    H124992   1.016   5.143   2.580  0.6944  0.2730  0.0264
 1119TIP3    H224993   0.908   5.206   2.665  0.2206 -1.0017  0.3918
 1120TIP3   OH224994   4.938   3.033   9.851 -0.3182 -0.5728 -0.4457
 1120TIP3    H124995   5.032   3.027   9.867 -0.3436 -1.7880 -0.6971
 1120TIP3    H224996   4.929   3.105   9.789  0.3707  0.0032  0.1064
 1121TIP3   OH224997   5.101   0.877   1.191  0.0553 -0.6753  0.0838
 1121TIP3    H124998   5.167   0.867   1.259  1.1887 -0.1258 -0.9001
 1121TIP3    H224999   5.066   0.965   1.203  1.0009 -0.1859 -0.6719
 1122TIP3   OH225000   0.376   4.915   0.570 -0.1478  0.3568 -0.8294
 1122TIP3    H125001   0.385   4.901   0.664 -0.9570 -1.4616 -0.9662
 1122TIP3    H225002   0.428   4.993   0.551  2.2378 -0.7395  0.6998
 1123TIP3   OH225003   6.268   1.985   9.687  0.0598 -0.0868  0.7738
 1123TIP3    H125004   6.323   1.919   9.731  0.4991 -0.8108 -0.7902
 1123TIP3    H225005   6.183   1.943   9.678  0.7083 -1.0917 -1.4871
 1124TIP3   OH225006   5.576   5.606   9.453  0.5974 -0.0417 -0.2383
 1124TIP3    H125007   5.644   5.542   9.472  0.2901 -0.6035 -1.0074
 1124TIP3    H225008   5.570   5.608   9.358 -1.8651 -1.5278 -0.1897
 1125TIP3   OH225009   5.766   1.485   0.969 -0.2472  0.0325  0.6259
 1125TIP3    H125010   5.760   1.396   1.005  3.0134  0.4067  2.5380
 1125TIP3    H225011   5.760   1.472   0.874  1.8862 -2.5718  0.7031
 1126TIP3   OH225012   1.517   5.062   9.008  1.0544 -0.2346 -0.3964
 1126TIP3    H125013   1.534   5.155   9.026  2.9847 -0.7428  0.6482
 1126TIP3    H225014   1.496   5.060   8.914 -3.8037  1.8046  0.3580
 1127TIP3   OH225015   2.039   2.776   7.940  0.2856  0.0296 -0.0633
 1127TIP3    H125016   2.086   2.742   8.016 -0.8188  2.2174  1.6833
 1127TIP3    H225017   2.096   2.845   7.905 -1.1664  2.2380  1.6688
 1128TIP3   OH225018   5.384   0.235   9.966 -0.0774 -0.1343 -0.5320
 1128TIP3    H125019   5.373   0.150  10.007 -1.4154  0.7871  1.1545
 1128TIP3    H225020   5.298   0.276   9.971  0.6623  1.5562 -0.6974
 1129TIP3   OH225021   2.080   5.177   1.883 -0.8202  0.3485 -0.1446
 1129TIP3    H125022   2.139   5.252   1.891 -0.5633  0.2862 -1.3211
 1129TIP3    H225023   1.998   5.215   1.853 -1.4069  0.4295  1.4552
 1130TIP3   OH225024   1.322   6.136   8.850 -0.3124  0.3434  0.5888
 1130TIP3    H125025   1.261   6.068   8.820  1.1436 -0.6287 -0.3178
 1130TIP3    H225026   1.382   6.147   8.777 -1.8005  4.3586 -0.2711
 1131TIP3   OH225027   5.075   4.911   8.338  0.4006 -0.5489 -0.0779
 1131TIP3    H125028   5.042   4.983   8.283  2.0230  1.0329  0.8854
 1131TIP3    H225029   5.165   4.898   8.308  0.9077 -0.4982  1.3576
 1132TIP3   OH225030   2.793   2.350   9.251  0.1060 -0.0342  0.5937
 1132TIP3    H125031   2.709   2.382   9.217  1.6145  1.5330 -2.0258
 1132TIP3    H225032   2.831   2.302   9.178  1.6755 -0.3821  1.5985
 1133TIP3   OH225033   3.664   4.843   0.756 -0.2703 -0.8413  0.5042
 1133TIP3    H125034   3.672   4.799   0.841  1.2536 -1.2742  0.1731
 1133TIP3    H225035   3.698   4.931   0.771  0.4760 -1.0735  0.2580
 1134TIP3   OH225036   2.444   4.059   1.828  0.4425 -0.1528  0.0727
 1134TIP3    H125037   2.354   4.071   1.795 -0.0882  1.1756  1.8722
 1134TIP3    H225038   2.494   4.130   1.787  0.4043 -0.1462  0.0368
 1135TIP3   OH225039   1.424   3.187   8.759 -0.1208 -0.0868  0.8691
 1135TIP3    H125040   1.473   3.269   8.754 -1.3957  0.6880  0.8556
 1135TIP3    H225041   1.401   3.178   8.852  0.4234 -0.6883  0.9553
 1136TIP3   OH225042   4.162   4.333   2.831 -0.3184  0.0052 -0.1550
 1136TIP3    H125043   4.124   4.278   2.762 -2.2821  0.7653  0.2656
 1136TIP3    H225044   4.095   4.335   2.899  1.3028 -0.1674  1.4972
 1137TIP3   OH225045   5.495   3.598   2.969  0.4664  0.7632 -0.4674
 1137TIP3    H125046   5.583   3.635   2.974  0.2417  1.3553 -0.8261
 1137TIP3    H225047   5.450   3.651   2.903 -0.1416  0.4287 -0.3306
 1138TIP3   OH225048   2.878   3.998   9.196 -0.7217 -0.3577 -0.1625
 1138TIP3    H125049   2.965   4.014   9.161  0.2676  0.7264  2.5094
 1138TIP3    H225050   2.894   3.967   9.286 -3.0757 -1.1388  0.0557
 1139TIP3   OH225051   4.275   1.743   2.991  0.1214 -0.3759  0.2617
 1139TIP3    H125052   4.209   1.813   2.989 -0.2588 -0.7429 -0.1181
 1139TIP3    H225053   4.257   1.696   3.073 -2.1165 -2.3878 -1.2647
 1140TIP3   OH225054   1.499   0.281   1.393 -0.1883 -0.0744 -0.1185
 1140TIP3    H125055   1.560   0.245   1.457  1.6358  3.2445  0.2551
 1140TIP3    H225056   1.530   0.249   1.309  1.6969  0.8765  0.1453
 1141TIP3   OH225057   3.662   0.740   9.936 -0.3350 -0.4940 -0.1431
 1141TIP3    H125058   3.636   0.689   9.860 -1.8980 -2.2161  1.4356
 1141TIP3    H225059   3.683   0.675  10.003  1.1158  0.9523  0.8887
 1142TIP3   OH225060   4.671   3.938   2.842 -0.8098  0.5156  0.6933
 1142TIP3    H125061   4.598   3.880   2.864 -0.1300  0.7965  4.4376
 1142TIP3    H225062   4.645   4.023   2.875 -0.1968  1.5049 -1.2165
 1143TIP3   OH225063   0.441   0.387   7.178 -0.2892 -0.3581 -0.0541
 1143TIP3    H125064   0.471   0.463   7.130 -2.8295 -0.7673 -2.5349
 1143TIP3    H225065   0.424   0.321   7.111 -1.6529 -1.8428  1.6539
 1144TIP3   OH225066   1.719   4.788   0.058  0.5563 -0.3235 -0.0767
 1144TIP3    H125067   1.789   4.731   0.091 -0.8015  0.0892  4.2801
 1144TIP3    H225068   1.644   4.729   0.046  0.3975 -0.1366 -0.0250
 1145TIP3   OH225069   2.614   0.645   0.823  0.2377 -0.2296  0.0184
 1145TIP3    H125070   2.606   0.562   0.776  0.7046 -0.4143  0.2511
 1145TIP3    H225071   2.541   0.698   0.792 -1.7597 -1.6993  1.8341
 1146TIP3   OH225072   2.506   4.197   0.525 -0.3319  0.0773  0.3022
 1146TIP3    H125073   2.556   4.123   0.490 -1.6911 -0.5401 -0.3725
 1146TIP3    H225074   2.563   4.273   0.512 -0.2569 -0.3335 -2.0729
 1147TIP3   OH225075   6.356   4.310   1.363 -0.1397  0.1088 -0.5561
 1147TIP3    H125076   6.417   4.362   1.415 -0.1150 -0.8831  0.4338
 1147TIP3    H225077   6.300   4.267   1.427 -0.0025 -1.2753 -1.3368
 1148TIP3   OH225078   1.173   2.463   0.888  0.0663 -0.5047  0.2121
 1148TIP3    H125079   1.238   2.428   0.949 -0.0969 -1.4722 -0.1524
 1148TIP3    H225080   1.129   2.386   0.854 -0.9251  0.1178  0.0577
 1149TIP3   OH225081   1.835   3.121   2.530 -0.2814  0.5775  0.1529
 1149TIP3    H125082   1.884   3.039   2.521  1.2991  1.4794  0.1149
 1149TIP3    H225083   1.897   3.181   2.571 -1.3240  1.8223 -0.0487
 1150TIP3   OH225084   1.118   3.325   9.920 -0.3100 -0.1237  0.0159
 1150TIP3    H125085   1.122   3.346  10.013  1.5314 -1.1224  0.2031
 1150TIP3    H225086   1.210   3.319   9.892 -0.7954 -1.5422 -1.4655
 1151TIP3   OH225087   2.708   3.007   9.922  0.3749  0.4295 -0.1458
 1151TIP3    H125088   2.675   3.016   9.833  0.3544  0.0757 -0.1760
 1151TIP3    H225089   2.662   2.931   9.957  1.8267 -0.6566 -0.5104
 1152TIP3   OH225090   5.900   5.604   8.237 -0.3372  0.5864 -0.6613
 1152TIP3    H125091   5.909   5.526   8.182 -1.0208  0.3681 -0.4672
 1152TIP3    H225092   5.860   5.670   8.180 -1.2131  0.3042 -0.3834
 1153TIP3   OH225093   5.941   1.663   9.549 -0.2694 -0.2227 -0.6912
 1153TIP3    H125094   5.871   1.652   9.613  0.4218 -0.8185 -0.0115
 1153TIP3    H225095   5.931   1.589   9.490  2.5930 -3.2687  2.1727
 1154TIP3   OH225096   3.602   0.616   9.700 -0.0192 -0.4257 -0.2999
 1154TIP3    H125097   3.686   0.586   9.665  0.2622 -0.1400  0.1150
 1154TIP3    H225098   3.545   0.621   9.623  0.0988 -1.4194 -0.4660
 1155TIP3   OH225099   3.100   3.426   3.203  0.3011 -0.3353 -0.4864
 1155TIP3    H125100   3.107   3.491   3.134  1.4679  1.4391  1.1890
 1155TIP3    H225101   3.011   3.436   3.237  0.6230  0.7729  0.0759
 1156TIP3   OH225102   3.738   4.358   0.098 -0.4891 -0.1280  0.2349
 1156TIP3    H125103   3.732   4.403   0.182 -1.0519 -1.5628  0.9974
 1156TIP3    H225104   3.688   4.412   0.037 -1.8775 -0.1406  1.3157
 1157TIP3   OH225105   1.786   5.448   1.530 -0.2347  0.2877  0.3239
 1157TIP3    H125106   1.835   5.526   1.555  0.1280 -0.3362  1.6515
 1157TIP3    H225107   1.777   5.455   1.435  1.7245  0.8391  0.1280
 1158TIP3   OH225108   3.559   0.045   0.954  0.0824 -0.3653 -0.3514
 1158TIP3    H125109   3.497   0.040   1.027  2.2955  1.1771  1.8084
 1158TIP3    H225110   3.602  -0.040   0.952 -0.2327 -0.5312 -0.0529
 1159TIP3   OH225111   1.699   3.405   2.434  0.6757 -0.4455  0.3325
 1159TIP3    H125112   1.779   3.450   2.403  0.7842 -0.4744  0.5688
 1159TIP3    H225113   1.680   3.341   2.366 -1.3651  2.1228 -1.7076
 1160TIP3   OH225114   1.292   1.711   0.719  0.1399 -0.5537 -0.0436
 1160TIP3    H125115   1.355   1.640   0.704 -1.5937 -1.7485 -2.3875
 1160TIP3    H225116   1.311   1.775   0.651 -2.0953 -1.7522 -1.9894
 1161TIP3   OH225117   2.095   3.859   9.735  0.4855  0.2832 -0.3100
 1161TIP3    H125118   2.100   3.897   9.648  1.5805  1.5141  0.2514
 1161TIP3    H225119   2.037   3.783   9.725 -1.4085  1.8071 -1.5852
 1162TIP3   OH225120   6.126   4.052   1.033  0.1456  0.3059  0.2009
 1162TIP3    H125121   6.201   3.997   1.052 -0.2797 -1.3988 -2.4682
 1162TIP3    H225122   6.140   4.081   0.943 -2.3828 -0.1300 -0.4100
 1163TIP3   OH225123   2.714   3.327   9.650  1.0281 -0.2957 -0.2862
 1163TIP3    H125124   2.732   3.235   9.630 -1.5729 -0.8312 -0.5058
 1163TIP3    H225125   2.689   3.365   9.566 -1.0679 -0.2487  0.3098
 1164TIP3   OH225126   5.227   1.378   7.651  0.7159 -0.4475 -0.0113
 1164TIP3    H125127   5.300   1.383   7.588 -0.4776  0.6525 -1.3686
 1164TIP3    H225128   5.150   1.404   7.601 -0.5727 -1.1690  1.5030
 1165TIP3   OH225129   0.717   4.181   0.059 -0.6624  0.0771 -0.8762
 1165TIP3    H125130   0.654   4.245   0.092  0.3465  0.7071 -0.0919
 1165TIP3    H225131   0.800   4.229   0.056 -0.4821 -0.2848 -3.3135
 1166TIP3   OH225132   4.769   5.770   9.456  0.3349 -0.3729  0.2818
 1166TIP3    H125133   4.840   5.825   9.489  0.7600  0.0298 -1.2126
 1166TIP3    H225134   4.807   5.723   9.381 -0.6160 -1.1271  0.2380
 1167TIP3   OH225135   0.823   4.582   2.013  0.6469  0.0814 -0.2567
 1167TIP3    H125136   0.761   4.537   2.070  0.4314  1.8781  1.0519
 1167TIP3    H225137   0.859   4.652   2.069  2.4448  0.2476 -1.5487
 1168TIP3   OH225138   0.468   6.043   1.622 -0.3600  0.1300  1.0385
 1168TIP3    H125139   0.398   6.095   1.662 -0.6943  1.0921 -0.6959
 1168TIP3    H225140   0.422   5.977   1.570  0.0625 -0.8022  1.8231
 1169TIP3   OH225141   1.455   0.750   1.835 -0.0047 -0.1278  0.1886
 1169TIP3    H125142   1.421   0.668   1.871 -0.4181  0.4090  1.0476
 1169TIP3    H225143   1.520   0.779   1.899  0.9850 -0.3569 -0.6815
 1170TIP3   OH225144   0.307   5.906   1.454 -0.0895 -0.0415 -0.3186
 1170TIP3    H125145   0.263   5.823   1.437 -0.5956 -0.0037  0.7414
 1170TIP3    H225146   0.269   5.967   1.391  0.5039 -0.6623 -1.3109
 1171TIP3   OH225147   4.142   0.213   1.156 -0.5448  0.3232  0.1464
 1171TIP3    H125148   4.158   0.140   1.216 -2.3829 -0.9998 -0.8795
 1171TIP3    H225149   4.217   0.272   1.169  0.1617 -0.9269  2.1814
 1172TIP3   OH225150   2.649   5.723   8.742 -0.0590  0.2564  0.0676
 1172TIP3    H125151   2.632   5.727   8.648 -0.2474  0.1162  0.0963
 1172TIP3    H225152   2.583   5.663   8.777 -0.1890  0.5540  0.3365
 1173TIP3   OH225153   2.114   3.756   0.074  0.0537 -0.1804  0.1501
 1173TIP3    H125154   2.185   3.814   0.098  0.5301 -0.9732  0.7208
 1173TIP3    H225155   2.043   3.814   0.047  0.8941  0.6221 -0.3862
 1174TIP3   OH225156   1.903   5.529   0.063  0.0685  0.4919 -0.5096
 1174TIP3    H125157   1.970   5.501   0.125 -0.2980  0.6942 -0.0195
 1174TIP3    H225158   1.952   5.556  -0.015  0.5085 -0.0863 -0.4405
 1175TIP3   OH225159   5.619   4.703   9.852  0.0972 -0.1043  0.0850
 1175TIP3    H125160   5.706   4.674   9.881  0.1700 -0.5287 -0.5241
 1175TIP3    H225161   5.637   4.758   9.776 -0.0302  1.7578  1.3503
 1176TIP3   OH225162   0.593   4.690   9.293  1.0320  0.1611  0.2918
 1176TIP3    H125163   0.563   4.767   9.244  1.7140 -0.0184 -0.4451
 1176TIP3    H225164   0.603   4.720   9.383 -1.5869  0.1482  0.6490
 1177TIP3   OH225165   5.643   1.410   7.316  0.4626  0.3146  0.1459
 1177TIP3    H125166   5.732   1.392   7.284  0.5370 -0.9227  0.9650
 1177TIP3    H225167   5.586   1.370   7.251  0.4803  1.2759 -0.4814
 1178TIP3   OH225168   3.886   5.156   8.859  0.6763 -0.0156 -0.3638
 1178TIP3    H125169   3.935   5.110   8.790 -0.3553 -1.6920 -0.0495
 1178TIP3    H225170   3.951   5.172   8.927  0.9859 -1.5999 -0.2295
 1179TIP3   OH225171   4.112   1.303   1.637 -0.3321 -0.5030  0.0852
 1179TIP3    H125172   4.104   1.391   1.599  0.0516 -1.2645 -1.8356
 1179TIP3    H225173   4.203   1.279   1.622 -0.6483 -1.5755 -0.1722
 1180TIP3   OH225174   4.989   5.172   2.191 -0.5723  0.2514  0.1447
 1180TIP3    H125175   4.969   5.251   2.140  0.1304  1.0127  1.0273
 1180TIP3    H225176   5.066   5.134   2.148  0.5729  1.3858  1.1429
 1181TIP3   OH225177   4.370   2.474   0.459  0.3818 -0.3164 -0.3770
 1181TIP3    H125178   4.322   2.414   0.402 -0.3923  0.7017 -0.8152
 1181TIP3    H225179   4.319   2.476   0.540 -1.1840  1.8412 -1.3244
 1182TIP3   OH225180   0.663   0.319   9.852 -0.2720  0.0263  0.1349
 1182TIP3    H125181   0.683   0.320   9.758 -2.0769  0.9928 -0.2873
 1182TIP3    H225182   0.570   0.342   9.857  0.2818  2.2687  2.2634
 1183TIP3   OH225183   1.968   3.879   0.919 -0.2821 -0.4190 -0.1695
 1183TIP3    H125184   1.876   3.907   0.911 -0.2853 -0.2327  0.4633
 1183TIP3    H225185   2.017   3.946   0.872 -0.3583  0.2588  0.6868
 1184TIP3   OH225186   4.158   5.455  10.007 -0.7716 -0.4466  0.2154
 1184TIP3    H125187   4.088   5.431   9.946 -0.4974 -2.3195  0.5877
 1184TIP3    H225188   4.216   5.511   9.955 -1.3945 -0.6729 -0.7548
 1185TIP3   OH225189   3.364   4.262   0.076 -0.6778  0.0492  0.2679
 1185TIP3    H125190   3.451   4.265   0.035 -0.4267 -1.3792  0.6617
 1185TIP3    H225191   3.374   4.202   0.149 -1.2389  2.1724  2.2146
 1186TIP3   OH225192   5.490   0.003   8.553 -0.0847 -0.2495  0.0793
 1186TIP3    H125193   5.548  -0.001   8.477 -0.5056 -1.6970 -0.1889
 1186TIP3    H225194   5.510   0.087   8.594  0.1005  0.6020 -1.6659
 1187TIP3   OH225195   6.091   3.359   8.689 -0.0386  0.1748  0.2751
 1187TIP3    H125196   6.181   3.355   8.656  0.8919  1.7406  2.4201
 1187TIP3    H225197   6.061   3.268   8.687  1.1729 -0.2429 -1.4909
 1188TIP3   OH225198   4.236   0.282   8.514  0.3071 -0.6885  0.0942
 1188TIP3    H125199   4.244   0.192   8.483  0.2435 -1.0202  0.9926
 1188TIP3    H225200   4.172   0.322   8.456 -0.7650 -1.6530  0.5604
 1189TIP3   OH225201   3.356   2.971   9.949 -0.5599  0.0264  0.7691
 1189TIP3    H125202   3.348   2.910  10.023 -0.8118  0.1983  0.8823
 1189TIP3    H225203   3.272   3.017   9.946 -0.7064 -0.2700  0.1211
 1190TIP3   OH225204   4.687   0.905  10.023  0.1821  0.3819  0.3799
 1190TIP3    H125205   4.638   0.948   9.953  1.2228  0.3410 -0.4014
 1190TIP3    H225206   4.670   0.811  10.010 -0.0289  0.4024  0.4997
 1191TIP3   OH225207   1.697   4.915   9.843 -0.6466  0.3851 -0.3417
 1191TIP3    H125208   1.602   4.928   9.852 -0.5121  1.2903 -0.1971
 1191TIP3    H225209   1.718   4.851   9.911 -1.2374 -0.2359 -0.7308
 1192TIP3   OH225210   2.601   6.139   9.145  0.4030  0.9981  0.3791
 1192TIP3    H125211   2.520   6.110   9.104  1.2376  1.1808 -1.5444
 1192TIP3    H225212   2.633   6.062   9.193  0.6225 -0.0784 -1.4034
 1193TIP3   OH225213   6.218   2.817   9.339  0.5122  0.3690 -1.0240
 1193TIP3    H125214   6.155   2.890   9.343 -0.7388 -0.7038 -0.6837
 1193TIP3    H225215   6.273   2.839   9.263  0.8514  2.1830 -0.3184
 1194TIP3   OH225216   0.196   2.469   3.451  0.0882 -0.4344 -0.4481
 1194TIP3    H125217   0.179   2.562   3.466  0.0389 -0.5057 -0.0685
 1194TIP3    H225218   0.114   2.436   3.415  0.9192  0.2421 -3.2665
 1195TIP3   OH225219   5.169   5.922   8.236  0.0099  0.1386  0.1200
 1195TIP3    H125220   5.107   5.968   8.180 -0.1441  0.1890  0.3305
 1195TIP3    H225221   5.137   5.937   8.325 -0.3953 -0.8861  0.1571
 1196TIP3   OH225222   5.820   6.088   2.376  0.1289  0.1890  0.3593
 1196TIP3    H125223   5.855   6.073   2.288 -1.9670  2.3794 -0.9495
 1196TIP3    H225224   5.749   6.024   2.384  0.2255  0.0891  0.4343
 1197TIP3   OH225225   4.245   4.036   0.603 -0.2261 -0.2931 -0.0827
 1197TIP3    H125226   4.151   4.025   0.591 -0.4658  1.3000  0.1567
 1197TIP3    H225227   4.256   4.053   0.697  0.3071 -0.5079 -0.0980
 1198TIP3   OH225228   6.216   3.191   1.993  0.5213 -0.2693 -0.1331
 1198TIP3    H125229   6.159   3.204   2.069  1.0490 -0.6713  0.3412
 1198TIP3    H225230   6.179   3.248   1.925 -1.2859 -1.5514 -0.2982
 1199TIP3   OH225231   0.812   3.410   0.396 -0.0110 -0.2303 -0.2681
 1199TIP3    H125232   0.739   3.404   0.334 -0.2131 -0.0307 -0.0505
 1199TIP3    H225233   0.774   3.451   0.474  0.2751 -0.3595 -0.0612
 1200TIP3   OH225234   0.441   0.192   9.409 -0.9992  0.1027 -0.1475
 1200TIP3    H125235   0.385   0.173   9.485  2.0706 -1.2334  1.9696
 1200TIP3    H225236   0.445   0.287   9.406 -1.5432  0.1837  1.0797
 1201TIP3   OH225237   6.318   2.899   0.832  0.2100  0.4440 -0.3703
 1201TIP3    H125238   6.256   2.889   0.904 -0.3372  1.7023 -0.6468
 1201TIP3    H225239   6.271   2.948   0.765  1.0626  0.2271 -1.1562
 1202TIP3   OH225240   4.827   5.290   9.635 -0.5580 -0.5548  0.1365
 1202TIP3    H125241   4.848   5.334   9.717 -2.7908  0.4682  0.2509
 1202TIP3    H225242   4.911   5.261   9.600  0.9501  2.6638  0.7383
 1203TIP3   OH225243   2.895   1.648   0.385 -0.1173 -0.0529  0.2496
 1203TIP3    H125244   2.906   1.553   0.378  0.6419  0.1054 -0.9163
 1203TIP3    H225245   2.915   1.681   0.298 -0.3547  1.1890  0.6488
 1204TIP3   OH225246   4.985   0.500   7.987 -0.6820  0.2048 -0.0285
 1204TIP3    H125247   4.893   0.475   7.985 -1.4847  2.8398  0.3570
 1204TIP3    H225248   4.999   0.549   7.905 -0.7114  2.9776  1.5001
 1205TIP3   OH225249   0.317   2.156   9.680 -0.3104 -0.2486  0.6536
 1205TIP3    H125250   0.339   2.072   9.720  0.1749  0.8027  2.7426
 1205TIP3    H225251   0.309   2.137   9.586  1.1647 -2.3342  0.8887
 1206TIP3   OH225252   5.592   5.744   1.024  0.5906  0.3020  0.0778
 1206TIP3    H125253   5.621   5.701   0.944  3.1075  1.4448  0.2686
 1206TIP3    H225254   5.650   5.710   1.092 -0.3293  0.6841  1.0928
 1207TIP3   OH225255   2.341   2.423   1.244 -0.3256 -0.1171  0.1649
 1207TIP3    H125256   2.433   2.442   1.262 -0.5693  0.0677  1.3047
 1207TIP3    H225257   2.329   2.332   1.273 -1.1730  0.7665  2.9349
 1208TIP3   OH225258   1.354   2.146   9.242  0.6960 -0.6383 -0.2686
 1208TIP3    H125259   1.310   2.231   9.248  1.2015 -0.2660 -1.5440
 1208TIP3    H225260   1.313   2.103   9.166 -0.9629 -2.4068  1.5002
 1209TIP3   OH225261   4.014   4.341   0.396 -0.2353  0.4259 -0.4258
 1209TIP3    H125262   4.090   4.381   0.438 -1.1479  2.0564 -0.2493
 1209TIP3    H225263   3.955   4.415   0.379 -2.4477 -0.9724  0.8182
 1210TIP3   OH225264   5.858   3.324   9.784 -0.6231  0.4842  0.1056
 1210TIP3    H125265   5.939   3.314   9.833 -1.9670 -0.0631  2.3726
 1210TIP3    H225266   5.872   3.400   9.729  2.0630 -0.6894 -0.9994
 1211TIP3   OH225267   4.872   4.041   9.839  0.3392  0.0360 -0.3745
 1211TIP3    H125268   4.877   4.077   9.928 -0.4621 -0.0112 -0.3084
 1211TIP3    H225269   4.877   4.118   9.782 -0.2440  0.1677 -0.2582
 1212TIP3   OH225270   1.914   0.879   8.956  0.0983 -0.0911 -0.1728
 1212TIP3    H125271   1.901   0.962   8.911  2.1742  0.8949  0.9044
 1212TIP3    H225272   1.939   0.817   8.887 -0.3273  0.4543 -0.8287
 1213TIP3   OH225273   4.312   4.874   2.159  0.0573  0.2276 -0.4585
 1213TIP3    H125274   4.403   4.857   2.182 -0.0164 -1.1812 -1.0985
 1213TIP3    H225275   4.262   4.811   2.211 -0.5643  1.0439 -0.0497
 1214TIP3   OH225276   5.158   4.311   0.102  0.0489  0.5210  0.1145
 1214TIP3    H125277   5.237   4.296   0.154 -0.4108 -0.9237  0.4415
 1214TIP3    H225278   5.091   4.334   0.166 -0.1722  0.1719  0.0110
 1215TIP3   OH225279   1.850   0.423   1.789 -0.6745 -0.1939  0.5139
 1215TIP3    H125280   1.945   0.435   1.793 -0.7538  0.5861  0.1529
 1215TIP3    H225281   1.813   0.501   1.830 -1.1817  0.4300 -1.0426
 1216TIP3   OH225282   3.818   2.400   2.119 -0.1792 -0.2106  0.2951
 1216TIP3    H125283   3.735   2.445   2.129  0.5441  0.7772  2.7150
 1216TIP3    H225284   3.800   2.329   2.058 -2.1338  1.4492 -1.2053
 1217TIP3   OH225285   5.663   4.886   0.766  0.4242  0.3488  0.0449
 1217TIP3    H125286   5.577   4.882   0.809  0.8346  0.3515  0.8982
 1217TIP3    H225287   5.707   4.959   0.810  0.5656  0.8804 -0.9666
 1218TIP3   OH225288   5.954   2.982   3.115 -0.1253 -0.2579  0.5663
 1218TIP3    H125289   5.971   2.897   3.156 -1.9583 -0.2977  1.3559
 1218TIP3    H225290   5.858   2.989   3.114 -0.0105  2.0956  1.1569
 1219TIP3   OH225291   4.032   0.531   8.781 -0.5328  0.1573  0.2968
 1219TIP3    H125292   3.970   0.460   8.794 -0.5616  0.1767  0.2677
 1219TIP3    H225293   4.118   0.490   8.784 -0.5929 -0.1274 -1.2237
 1220TIP3   OH225294   0.651   4.910   2.596 -0.2155 -0.1273 -0.6784
 1220TIP3    H125295   0.708   4.986   2.609 -0.3353 -0.3098  1.1170
 1220TIP3    H225296   0.658   4.860   2.677 -0.5717 -1.7660 -1.6120
 1221TIP3   OH225297   5.170   3.324   2.835  0.2094 -0.2719  0.3471
 1221TIP3    H125298   5.200   3.344   2.924  1.8599  0.6364 -0.3907
 1221TIP3    H225299   5.177   3.229   2.829 -0.7221 -0.4428  1.4409
 1222TIP3   OH225300   4.991   0.062   1.587  0.2071  0.5894  0.5969
 1222TIP3    H125301   4.952   0.024   1.509  0.1067  1.6383  0.1252
 1222TIP3    H225302   5.078   0.022   1.593  0.2782  0.6358 -0.1428
 1223TIP3   OH225303   4.949   3.448   1.235 -0.1742  0.5065  0.3937
 1223TIP3    H125304   5.040   3.469   1.213 -0.4999  3.1448  1.2220
 1223TIP3    H225305   4.897   3.495   1.169 -0.9548  2.2892  2.1635
 1224TIP3   OH225306   2.299   5.968   0.026 -0.0076 -0.3925  0.0285
 1224TIP3    H125307   2.232   5.904   0.051  1.3731 -0.9027  2.8223
 1224TIP3    H225308   2.303   6.028   0.100  2.8582 -0.6279  0.1824
 1225TIP3   OH225309   1.184   5.307   1.882 -0.2250  0.4267  0.1752
 1225TIP3    H125310   1.179   5.226   1.933  0.7933  1.2269  1.6020
 1225TIP3    H225311   1.261   5.352   1.916 -2.0560  3.1167  1.1532
 1226TIP3   OH225312   5.218   6.328   1.573 -0.3638  0.5801  0.8036
 1226TIP3    H125313   5.234   6.309   1.480  3.1135  0.7014  1.2528
 1226TIP3    H225314   5.163   6.256   1.603  0.2014 -0.6138 -0.8948
 1227TIP3   OH225315   6.286   2.179   3.161  0.0447 -0.8767 -0.3057
 1227TIP3    H125316   6.228   2.240   3.116  1.3825  0.6131 -0.1264
 1227TIP3    H225317   6.373   2.219   3.152  0.9447 -2.6696  0.0140
 1228TIP3   OH225318   0.775   3.886   9.596 -0.0205 -0.2451  0.0365
 1228TIP3    H125319   0.816   3.799   9.605  0.3236 -0.0081  0.8436
 1228TIP3    H225320   0.825   3.928   9.526  0.7838 -0.1551  0.6514
 1229TIP3   OH225321   6.146   1.823   8.058  0.1451  0.5876 -0.5948
 1229TIP3    H125322   6.151   1.797   7.966  2.7385 -5.8509  0.8144
 1229TIP3    H225323   6.236   1.845   8.082  0.5930 -2.5936  1.1848
 1230TIP3   OH225324   5.992   5.947   9.877 -0.4050  0.5914  0.0153
 1230TIP3    H125325   5.997   6.015   9.943  2.2498  1.4693 -0.9290
 1230TIP3    H225326   5.905   5.909   9.887 -0.5107  1.3973  3.2262
 1231TIP3   OH225327   4.645   0.890   2.575  0.1009 -0.1578  0.0824
 1231TIP3    H125328   4.640   0.891   2.670 -2.1558 -0.2529  0.0090
 1231TIP3    H225329   4.594   0.965   2.546 -0.1234 -0.7145 -1.0652
 1232TIP3   OH225330   1.410   6.059   8.019 -0.0110 -0.6071 -0.4919
 1232TIP3    H125331   1.436   6.008   7.942 -0.2486  0.2647 -1.1685
 1232TIP3    H225332   1.331   6.015   8.051 -0.6589 -0.2251 -1.5233
 1233TIP3   OH225333   1.894   6.359   8.243 -0.4760  0.0161  0.2969
 1233TIP3    H125334   1.821   6.378   8.302 -0.4474  1.4686 -0.0977
 1233TIP3    H225335   1.967   6.410   8.278 -0.2253  0.2149 -0.4968
 1234TIP3   OH225336   0.872   1.827   0.220  0.4955  0.0537 -0.4828
 1234TIP3    H125337   0.916   1.818   0.135 -0.5233  1.2890 -1.1636
 1234TIP3    H225338   0.901   1.912   0.253  1.4478 -0.7238  0.7699
 1235TIP3   OH225339   0.743   0.535   7.882 -0.1580  0.0193 -0.2138
 1235TIP3    H125340   0.838   0.521   7.883  0.0210  0.9477 -1.5165
 1235TIP3    H225341   0.727   0.589   7.804 -1.1998  3.7267  2.2489
 1236TIP3   OH225342   4.820   0.885   8.439  0.1340 -0.1284  0.1502
 1236TIP3    H125343   4.787   0.797   8.460  3.6922 -1.3047  1.6127
 1236TIP3    H225344   4.904   0.890   8.484  0.7911  3.5099 -1.1674
 1237TIP3   OH225345   0.138   4.619   0.601  0.5821 -0.1924 -0.6478
 1237TIP3    H125346   0.052   4.653   0.576  1.4569  2.5010 -0.2561
 1237TIP3    H225347   0.195   4.640   0.527  1.1724 -0.9375 -0.4218
 1238TIP3   OH225348   6.387   3.138   0.947  0.1739 -0.1633  0.1088
 1238TIP3    H125349   6.451   3.111   1.013  0.3584 -0.9862 -0.3830
 1238TIP3    H225350   6.383   3.064   0.886  0.3230  0.7359 -1.0341
 1239TIP3   OH225351   6.146   4.049   3.143  0.2499  0.2923 -0.1044
 1239TIP3    H125352   6.171   4.140   3.126  1.8662 -0.2817 -1.0149
 1239TIP3    H225353   6.195   4.024   3.221 -0.7668  0.3994  0.5898
 1240TIP3   OH225354   1.575   4.358   2.692  0.5273  0.0917  0.0260
 1240TIP3    H125355   1.645   4.342   2.755  0.4927 -1.3209 -0.2611
 1240TIP3    H225356   1.615   4.341   2.607  0.0722  0.1871 -0.2101
 1241TIP3   OH225357   3.793   1.958   1.745 -0.4031 -0.0711 -0.2598
 1241TIP3    H125358   3.822   1.906   1.820  2.8553  1.6929 -0.1335
 1241TIP3    H225359   3.842   1.923   1.671 -0.7357  0.6342 -0.8262
 1242TIP3   OH225360   2.272   0.876   1.265 -0.4650 -0.0662  0.0635
 1242TIP3    H125361   2.338   0.918   1.209 -0.9375  1.0269  0.3010
 1242TIP3    H225362   2.318   0.804   1.306  0.5343  0.5532  0.0603
 1243TIP3   OH225363   2.665   2.695   2.189 -0.0134  0.4310  0.4563
 1243TIP3    H125364   2.588   2.674   2.135 -1.3063  0.2153  2.2827
 1243TIP3    H225365   2.735   2.641   2.152 -1.1710 -0.6896 -0.2128
 1244TIP3   OH225366   2.926   0.651   2.168  0.0507  0.2578  0.1259
 1244TIP3    H125367   3.002   0.710   2.166  0.1008  0.2165 -2.7747
 1244TIP3    H225368   2.949   0.584   2.233  2.8603 -0.1620 -1.1806
 1245TIP3   OH225369   2.805   3.611   9.185 -0.3320 -0.3155 -0.3489
 1245TIP3    H125370   2.883   3.624   9.132 -0.5396 -1.0276 -0.8405
 1245TIP3    H225371   2.734   3.646   9.131 -0.1953  1.7664  0.7295
 1246TIP3   OH225372   0.859   6.186   7.708 -0.2658  0.2189 -0.4665
 1246TIP3    H125373   0.864   6.148   7.796 -0.1354  0.6078 -0.3020
 1246TIP3    H225374   0.897   6.273   7.718 -0.4623  0.3506 -0.8590
 1247TIP3   OH225375   5.141   4.921   9.663 -0.2142  0.2920  0.1593
 1247TIP3    H125376   5.202   4.862   9.708 -0.9802 -0.7126 -0.0771
 1247TIP3    H225377   5.168   4.916   9.571  0.0616  0.7508  0.2106
 1248TIP3   OH225378   0.421   6.171   0.727  0.1130  0.3017 -0.1951
 1248TIP3    H125379   0.414   6.092   0.673  2.2882  0.0741 -0.2200
 1248TIP3    H225380   0.340   6.172   0.778  0.3640 -2.4525  0.4357
 1249TIP3   OH225381   4.108   5.794   9.676 -0.5077  0.3755 -0.1420
 1249TIP3    H125382   4.177   5.728   9.666 -2.2278 -1.4930 -0.4267
 1249TIP3    H225383   4.094   5.828   9.588 -1.0259 -0.4339 -0.3838
 1250TIP3   OH225384   3.925   1.218   9.344  0.2615  0.2514  0.1252
 1250TIP3    H125385   3.845   1.265   9.367 -1.0339 -1.0059 -1.5438
 1250TIP3    H225386   3.938   1.156   9.415 -1.6205 -1.1193 -0.6469
 1251TIP3   OH225387   0.130   2.217   9.878  0.0826 -0.2412  0.3774
 1251TIP3    H125388   0.178   2.286   9.923 -1.1652  3.4513 -3.3848
 1251TIP3    H225389   0.194   2.180   9.816  0.2182 -1.2689  1.0934
 1252TIP3   OH225390   5.639   4.881   0.472  0.2108 -0.0416  0.2554
 1252TIP3    H125391   5.554   4.925   0.474 -0.6753 -1.5742 -1.1795
 1252TIP3    H225392   5.673   4.891   0.561 -1.5863  0.4054  0.9354
 1253TIP3   OH225393   0.993   3.551   2.742 -0.4820 -0.4745 -0.0430
 1253TIP3    H125394   0.921   3.515   2.794 -0.8192  0.0415 -0.1431
 1253TIP3    H225395   0.962   3.638   2.715 -0.1999 -0.6144 -0.8611
 1254TIP3   OH225396   6.336   2.508   1.685  0.1410 -0.1588  0.1895
 1254TIP3    H125397   6.259   2.460   1.656  0.4711 -0.2162 -0.6429
 1254TIP3    H225398   6.410   2.455   1.656  0.5185 -0.9061  2.3570
 1255TIP3   OH225399   4.304   0.703   2.126  0.0104 -0.3410  0.1358
 1255TIP3    H125400   4.253   0.781   2.102  0.7342 -0.2537 -1.1938
 1255TIP3    H225401   4.241   0.631   2.119 -0.2494 -0.0788 -0.2709
 1256TIP3   OH225402   5.677   4.081   0.684  0.2094 -0.4188  0.0776
 1256TIP3    H125403   5.582   4.073   0.687 -0.0663  0.6525 -2.7159
 1256TIP3    H225404   5.709   3.993   0.666 -0.1564 -0.9304  1.8136
 1257TIP3   OH225405   4.281   4.353   9.328 -0.3108 -0.2846  0.3689
 1257TIP3    H125406   4.256   4.290   9.261  0.5582  0.1174 -0.3534
 1257TIP3    H225407   4.237   4.434   9.302  0.1443 -0.0902  0.2057
 1258TIP3   OH225408   5.944   1.927   1.616 -0.5861 -0.0837 -0.0034
 1258TIP3    H125409   5.861   1.973   1.603 -0.5772 -0.1208 -0.2026
 1258TIP3    H225410   5.923   1.835   1.603 -1.1289 -0.4535  2.8460
 1259TIP3   OH225411   3.829   0.904   0.409 -0.5987 -0.0053  0.3060
 1259TIP3    H125412   3.840   0.957   0.330  0.4442 -0.2667  0.2533
 1259TIP3    H225413   3.872   0.955   0.478 -0.1530 -0.4793  0.3828
 1260TIP3   OH225414   3.234   5.678   2.330 -0.2759  0.0487 -0.1683
 1260TIP3    H125415   3.232   5.613   2.400 -0.7882  0.0977 -0.1375
 1260TIP3    H225416   3.184   5.638   2.259  0.7111 -0.2402 -0.7178
 1261TIP3   OH225417   1.277   4.231   1.656 -0.5606 -0.1442  0.2841
 1261TIP3    H125418   1.350   4.266   1.605 -0.0500 -0.1241  1.0153
 1261TIP3    H225419   1.204   4.226   1.594 -0.1090  0.4146 -0.2986
 1262TIP3   OH225420   1.964   4.650   9.909  0.8506  0.2204  0.1916
 1262TIP3    H125421   1.914   4.574   9.940  1.4257  0.1491  0.9520
 1262TIP3    H225422   1.954   4.647   9.813  0.6638 -0.6694  0.2302
 1263TIP3   OH225423   5.315   3.478   2.656 -0.6075  0.3737 -0.4070
 1263TIP3    H125424   5.251   3.546   2.634 -2.2763 -0.9661  0.1043
 1263TIP3    H225425   5.272   3.425   2.723  1.3532 -0.1621  0.4914
 1264TIP3   OH225426   4.241   3.826   9.655  0.1919  0.1984  0.0802
 1264TIP3    H125427   4.202   3.822   9.742  0.1180  1.3313  0.1065
 1264TIP3    H225428   4.182   3.882   9.604  0.9401  0.6350 -0.3265
 1265TIP3   OH225429   1.317   6.348   9.151 -0.0040 -0.4791  0.1951
 1265TIP3    H125430   1.221   6.355   9.148 -0.0093 -0.3964  0.5205
 1265TIP3    H225431   1.337   6.276   9.091 -0.2084  0.0128 -0.4820
 1266TIP3   OH225432   1.392   1.329   0.886 -0.1593 -0.1264 -0.2786
 1266TIP3    H125433   1.445   1.359   0.960 -0.4851 -2.5423  1.0535
 1266TIP3    H225434   1.304   1.362   0.903 -0.2720 -0.8120  0.5634
 1267TIP3   OH225435   5.136   1.233   8.550  0.1439  0.2489  0.1424
 1267TIP3    H125436   5.228   1.245   8.528  0.0212  0.3717 -0.3199
 1267TIP3    H225437   5.095   1.317   8.528 -0.3893 -0.3665 -1.3376
 1268TIP3   OH225438   2.334   3.892   3.274  0.4055  0.1128  0.4793
 1268TIP3    H125439   2.291   3.958   3.328 -0.2376 -0.2773  0.4543
 1268TIP3    H225440   2.426   3.916   3.276  0.1865  0.9772  0.5117
 1269TIP3   OH225441   2.394   1.624   0.772  0.0364  0.0808  0.3934
 1269TIP3    H125442   2.436   1.542   0.746  1.3868  0.9470 -0.2585
 1269TIP3    H225443   2.444   1.655   0.847 -0.4774  0.2905  0.6537
 1270TIP3   OH225444   3.182   3.189   9.188 -0.5590 -0.1435  1.0244
 1270TIP3    H125445   3.118   3.261   9.183 -1.4391 -0.9757 -1.9712
 1270TIP3    H225446   3.266   3.230   9.169 -1.1156  0.1425 -1.1399
 1271TIP3   OH225447   0.778   3.069   8.930  0.1574  0.0687  0.2890
 1271TIP3    H125448   0.744   3.103   9.013  0.5150 -1.0173  0.9055
 1271TIP3    H225449   0.857   3.021   8.955  0.2958 -0.2349 -0.6916
 1272TIP3   OH225450   1.309   2.637   0.700  1.0383 -0.1875  0.1703
 1272TIP3    H125451   1.380   2.598   0.648 -1.1357 -3.2529 -0.7729
 1272TIP3    H225452   1.298   2.579   0.775 -0.1800  0.4840  0.5467
 1273TIP3   OH225453   5.689   4.886   3.143  0.1874  0.4272  0.1700
 1273TIP3    H125454   5.728   4.826   3.207  1.5179  1.4446  0.3570
 1273TIP3    H225455   5.705   4.844   3.058  1.5037  0.6858  0.2635
 1274TIP3   OH225456   0.244   5.329   9.732  0.0292  0.7044  0.6329
 1274TIP3    H125457   0.322   5.383   9.745  1.2554 -0.7229 -0.3898
 1274TIP3    H225458   0.259   5.253   9.788 -0.9603  0.7235  0.9310
 1275TIP3   OH225459   4.278   4.265   0.468 -0.0591  0.1775 -0.1814
 1275TIP3    H125460   4.272   4.174   0.497 -1.9132 -0.4625 -2.2831
 1275TIP3    H225461   4.287   4.259   0.373  0.5023  2.2034 -0.3069
 1276TIP3   OH225462   3.556   3.924   9.217 -0.3307  0.0696 -0.0694
 1276TIP3    H125463   3.647   3.945   9.240 -0.7928  4.1398 -1.1836
 1276TIP3    H225464   3.505   3.960   9.290 -1.1625  0.4525 -0.8295
 1277TIP3   OH225465   5.532   1.827   1.786 -0.4222 -0.1734 -0.0282
 1277TIP3    H125466   5.625   1.834   1.808 -0.5459  1.8833  0.0310
 1277TIP3    H225467   5.491   1.795   1.866 -0.1214  1.8459  1.0000
 1278TIP3   OH225468   3.953   4.346   3.408 -0.4340  0.5455 -0.1579
 1278TIP3    H125469   4.003   4.331   3.488 -1.0307  2.3572  0.5937
 1278TIP3    H225470   3.862   4.345   3.435 -0.7299 -0.2481 -1.0947
 1279TIP3   OH225471   0.611   4.481   2.185  0.4087 -0.3413 -0.0340
 1279TIP3    H125472   0.592   4.491   2.279 -0.2430  0.3398 -0.2306
 1279TIP3    H225473   0.526   4.493   2.143  0.6622 -0.8641 -0.7050
 1280TIP3   OH225474   1.273   1.172   9.181  0.0305  0.1259 -0.4693
 1280TIP3    H125475   1.318   1.209   9.257  0.9362 -0.9019 -0.4718
 1280TIP3    H225476   1.215   1.105   9.218 -1.8719  1.7036 -0.4268
 1281TIP3   OH225477   3.506   3.201   8.831  0.6691 -0.0007  0.2392
 1281TIP3    H125478   3.450   3.273   8.802 -0.7946 -1.0750  0.2576
 1281TIP3    H225479   3.495   3.134   8.764  1.8190 -0.3182  0.3472
 1282TIP3   OH225480   6.180   2.897   2.399  0.0142  0.1992  0.0921
 1282TIP3    H125481   6.175   2.991   2.380  0.1127 -0.0682 -1.3042
 1282TIP3    H225482   6.128   2.856   2.330 -0.1875 -0.7758  0.8059
 1283TIP3   OH225483   6.164   2.897   8.278 -0.3545 -0.1514  0.1212
 1283TIP3    H125484   6.074   2.911   8.249 -0.4289  1.6226  1.0484
 1283TIP3    H225485   6.193   2.820   8.230 -2.5489 -1.1283  0.2349
 1284TIP3   OH225486   2.906   4.398   9.037 -0.0235 -0.9228 -0.1598
 1284TIP3    H125487   2.981   4.379   9.092 -0.2703 -0.5263  0.3161
 1284TIP3    H225488   2.897   4.320   8.981  0.5631 -1.0878 -0.0287
 1285TIP3   OH225489   2.112   1.505   9.486  0.2041 -0.1736  0.7604
 1285TIP3    H125490   2.156   1.422   9.471  0.2631 -0.0834  0.4089
 1285TIP3    H225491   2.126   1.524   9.578 -0.6011 -1.0046  1.0718
 1286TIP3   OH225492   3.634   4.718   0.173  0.1908  0.0221  0.1598
 1286TIP3    H125493   3.642   4.638   0.225 -3.5156  0.0374  0.9917
 1286TIP3    H225494   3.667   4.693   0.086  1.6170 -1.5549  1.0910
 1287TIP3   OH225495   5.389   6.301   2.750 -0.0723 -0.4044  0.0746
 1287TIP3    H125496   5.407   6.392   2.728 -1.8144 -0.2430 -0.8652
 1287TIP3    H225497   5.295   6.291   2.734 -0.2887 -1.8734  1.9378
 1288TIP3   OH225498   5.680   1.246   8.288 -0.4176 -0.5276  0.0714
 1288TIP3    H125499   5.596   1.201   8.289 -0.4770 -0.4207  1.2994
 1288TIP3    H225500   5.709   1.241   8.196 -1.5826 -0.8737 -0.2927
 1289TIP3   OH225501   6.087   2.197   9.126  0.0141 -0.4980 -0.1044
 1289TIP3    H125502   6.029   2.259   9.080 -0.5996 -1.0445 -0.0886
 1289TIP3    H225503   6.124   2.143   9.056 -0.1313 -0.6745 -0.0464
 1290TIP3   OH225504   1.620   2.609   8.653  0.0664  0.2140  0.4836
 1290TIP3    H125505   1.643   2.670   8.583  0.0923 -0.4002 -0.0459
 1290TIP3    H225506   1.696   2.611   8.711  0.1153  0.5955  0.4118
 1291TIP3   OH225507   1.779   1.811   1.817 -0.0913  0.0701  0.1420
 1291TIP3    H125508   1.791   1.905   1.827  0.0363  0.1489 -0.6635
 1291TIP3    H225509   1.684   1.799   1.819 -0.0834  0.0846  1.2455
 1292TIP3   OH225510   1.308   4.276   8.724  0.3932 -0.0922 -0.2154
 1292TIP3    H125511   1.308   4.348   8.787 -0.3755 -0.8551  0.6988
 1292TIP3    H225512   1.399   4.265   8.699  0.5156  1.2336 -0.4349
 1293TIP3   OH225513   4.363   0.632   1.285 -0.1439  0.5731 -0.4847
 1293TIP3    H125514   4.407   0.716   1.271 -1.5679  1.1576 -1.7344
 1293TIP3    H225515   4.337   0.633   1.377  0.3781  1.2462 -0.3412
 1294TIP3   OH225516   5.702   0.358   8.222  0.0712  0.2205  0.3384
 1294TIP3    H125517   5.660   0.387   8.141 -0.1335 -1.0425 -0.0408
 1294TIP3    H225518   5.795   0.351   8.199  0.0491  0.1026  0.2822
 1295TIP3   OH225519   5.879   1.178   8.446  0.0428 -0.6103  0.2142
 1295TIP3    H125520   5.815   1.205   8.381  0.4205 -1.5920 -0.5936
 1295TIP3    H225521   5.859   1.086   8.464  0.1439 -0.4452  1.2586
 1296TIP3   OH225522   3.295   3.916   3.336 -0.1881 -0.0101  0.1650
 1296TIP3    H125523   3.341   3.905   3.419 -1.3918 -0.6998  0.7645
 1296TIP3    H225524   3.241   3.994   3.349 -0.4575 -0.1810  0.0609
 1297TIP3   OH225525   0.232   3.682   1.639  0.2636  0.2133  0.1698
 1297TIP3    H125526   0.177   3.737   1.695 -0.3757  1.6232 -1.7442
 1297TIP3    H225527   0.276   3.744   1.581 -0.7291 -1.2605 -2.3129
 1298TIP3   OH225528   4.390   3.408   2.567  0.2834 -0.2025 -0.4121
 1298TIP3    H125529   4.441   3.443   2.640 -1.0466  1.2016 -0.1178
 1298TIP3    H225530   4.370   3.318   2.593 -0.2445  0.2933  1.0126
 1299TIP3   OH225531   6.099   1.604   8.578  0.3732 -0.5371  0.1107
 1299TIP3    H125532   6.048   1.681   8.555 -0.2781 -1.1779 -0.6464
 1299TIP3    H225533   6.183   1.638   8.608  0.2108  0.4502 -0.5333
 1300TIP3   OH225534   1.655   0.515   1.995 -0.6047  0.0370  0.0812
 1300TIP3    H125535   1.647   0.584   2.061 -3.0390 -0.3306  0.2862
 1300TIP3    H225536   1.578   0.527   1.938 -0.4154 -1.7237 -0.6227
 1301TIP3   OH225537   5.672   6.324   2.382 -0.6926  0.1629 -0.0189
 1301TIP3    H125538   5.723   6.361   2.309  1.1272  0.7247  1.4385
 1301TIP3    H225539   5.704   6.234   2.390 -2.0383 -0.4284 -0.8565
 1302TIP3   OH225540   1.507   2.517   2.491 -0.6370 -0.2233 -0.4571
 1302TIP3    H125541   1.456   2.518   2.572 -0.8898  0.9208 -0.6063
 1302TIP3    H225542   1.595   2.489   2.518 -1.0406 -1.1018 -0.0124
 1303TIP3   OH225543   2.910   1.777   1.570  0.0676  0.0797 -0.1233
 1303TIP3    H125544   2.858   1.699   1.556  1.7200 -0.8511 -1.4163
 1303TIP3    H225545   2.994   1.745   1.603  1.3277  1.1000 -2.0849
 1304TIP3   OH225546   2.961   2.851   9.281 -0.3591 -0.2193  0.3572
 1304TIP3    H125547   2.872   2.866   9.250 -0.2447  1.2991  0.6897
 1304TIP3    H225548   3.006   2.813   9.206 -1.4445 -1.6764  0.4088
 1305TIP3   OH225549   1.279   6.102   0.349  0.2015 -0.1018  0.4636
 1305TIP3    H125550   1.196   6.077   0.307 -0.2315 -0.1297  1.3149
 1305TIP3    H225551   1.347   6.065   0.292 -0.3774 -0.4419 -0.0167
 1306TIP3   OH225552   2.512   5.578   9.224 -0.2082 -0.7100  0.0479
 1306TIP3    H125553   2.572   5.555   9.154  0.4872  2.1057 -0.3791
 1306TIP3    H225554   2.569   5.592   9.300 -0.8910 -3.0465  1.0933
 1307TIP3   OH225555   1.078   0.417   0.943 -0.1355 -0.2397  0.0761
 1307TIP3    H125556   1.087   0.509   0.922  0.3327 -0.4989 -0.9026
 1307TIP3    H225557   1.043   0.416   1.032  0.1267  0.8712  0.2022
 1308TIP3   OH225558   1.472   5.271   1.431  0.9136  0.2415  0.2430
 1308TIP3    H125559   1.567   5.285   1.435  0.9620 -0.2233  0.8500
 1308TIP3    H225560   1.460   5.181   1.462  0.3558 -0.0295 -0.7184
 1309TIP3   OH225561   2.955   6.132   8.032 -0.4795 -0.2108  0.6612
 1309TIP3    H125562   2.993   6.058   8.079 -0.3950 -0.7489 -0.2438
 1309TIP3    H225563   2.873   6.099   7.996 -0.6535  0.2656  0.6130
 1310TIP3   OH225564   3.583   4.494   9.926  0.0611 -0.0928  0.0097
 1310TIP3    H125565   3.540   4.425   9.874 -0.9805 -1.3857  2.3869
 1310TIP3    H225566   3.565   4.575   9.878 -3.5732 -0.7998 -0.1272
 1311TIP3   OH225567   5.314   3.453   0.224  0.1180  0.2671  0.0903
 1311TIP3    H125568   5.265   3.517   0.173 -1.2120 -0.1182  0.8270
 1311TIP3    H225569   5.284   3.368   0.193 -0.7347  0.0245  1.4657
 1312TIP3   OH225570   5.872   1.193   0.982  0.4800  0.2689  0.5182
 1312TIP3    H125571   5.883   1.110   0.936 -1.0898 -0.4629  1.3628
 1312TIP3    H225572   5.909   1.177   1.069 -0.1712  0.3065  0.8095
 1313TIP3   OH225573   5.648   4.065   3.034 -0.4522 -0.6560  0.0226
 1313TIP3    H125574   5.717   4.041   3.096  0.0012  0.0819 -0.1773
 1313TIP3    H225575   5.669   4.018   2.954 -1.1928 -1.8287  0.4955
 1314TIP3   OH225576   2.824   0.013   8.719 -0.2746 -0.3964 -0.6156
 1314TIP3    H125577   2.753   0.072   8.695  0.7103  1.2687  0.3463
 1314TIP3    H225578   2.801  -0.019   8.807  0.4608  0.6868 -0.0114
 1315TIP3   OH225579   4.370   6.016   2.927  0.6479 -0.3155  0.2182
 1315TIP3    H125580   4.323   5.988   3.005  2.3945 -2.1314  0.7172
 1315TIP3    H225581   4.385   5.935   2.878 -0.7931  0.8202 -2.2876
 1316TIP3   OH225582   0.979   5.725   9.537 -0.2165  0.3713 -0.2207
 1316TIP3    H125583   0.999   5.716   9.630  0.5032  1.7928 -0.2151
 1316TIP3    H225584   0.894   5.682   9.526  0.7312 -1.9186  0.6208
 1317TIP3   OH225585   0.367   6.137   9.454  0.0439 -0.8514  0.0002
 1317TIP3    H125586   0.328   6.192   9.522  2.8911 -0.9522  1.8370
 1317TIP3    H225587   0.386   6.198   9.382 -1.7214 -0.5002 -0.2160
 1318TIP3   OH225588   4.656   0.560   1.169 -0.0340 -0.3927  0.0132
 1318TIP3    H125589   4.586   0.623   1.150  0.2907 -0.0450 -0.0328
 1318TIP3    H225590   4.705   0.599   1.241  0.7231 -0.1445 -0.6201
 1319TIP3   OH225591   3.155   2.329   9.822  0.5805  0.6732  0.0600
 1319TIP3    H125592   3.101   2.282   9.886  2.0336 -0.2172  0.6936
 1319TIP3    H225593   3.100   2.335   9.744 -0.8718  0.8958  1.0632
 1320TIP3   OH225594   3.751   0.762   9.059  0.0823  0.1137  0.1025
 1320TIP3    H125595   3.752   0.845   9.011  0.3574  0.2766  0.3871
 1320TIP3    H225596   3.660   0.750   9.085 -0.3856 -0.7379 -1.7630
 1321TIP3   OH225597   2.608   2.655   2.676  0.4192  0.0516  0.2470
 1321TIP3    H125598   2.678   2.628   2.735  1.6195  1.2655 -0.5542
 1321TIP3    H225599   2.630   2.616   2.591 -0.4906 -0.4662  0.2318
 1322TIP3   OH225600   2.243   3.019   0.043 -0.1430  0.1035 -0.0453
 1322TIP3    H125601   2.192   2.939   0.059  1.2281 -0.8541 -0.2926
 1322TIP3    H225602   2.266   3.050   0.130 -1.3166  0.6824  0.0805
 1323TIP3   OH225603   4.565   2.937   0.019  0.3693  0.0429 -0.0473
 1323TIP3    H125604   4.504   2.868   0.046  1.9792 -2.4515 -2.2037
 1323TIP3    H225605   4.520   2.982  -0.052  0.3039 -0.5865 -0.4163
 1324TIP3   OH225606   2.729   1.436   0.529  0.0920  0.2564  0.0603
 1324TIP3    H125607   2.715   1.522   0.489 -1.9912  0.6064  1.3467
 1324TIP3    H225608   2.717   1.374   0.458  0.5694  0.9951 -0.6748
 1325TIP3   OH225609   3.852   6.373   0.472  0.0315  0.0824  0.1137
 1325TIP3    H125610   3.911   6.428   0.523 -0.3234  0.5354  0.0369
 1325TIP3    H225611   3.775   6.427   0.457 -1.4079 -1.2672  2.1721
 1326TIP3   OH225612   4.813   0.116   0.213 -0.0316 -0.4887  0.2377
 1326TIP3    H125613   4.804   0.071   0.298 -2.1934  0.7645  0.7565
 1326TIP3    H225614   4.790   0.207   0.232  0.8626  0.1207 -1.4417
 1327TIP3   OH225615   1.527   5.677   0.458 -0.4044  0.1486 -0.2148
 1327TIP3    H125616   1.605   5.703   0.409 -0.7354 -2.4950 -2.3790
 1327TIP3    H225617   1.557   5.603   0.511 -0.7142  1.2773  1.6216
 1328TIP3   OH225618   3.955   2.116   2.066  0.1999  0.7438 -0.0734
 1328TIP3    H125619   3.984   2.147   2.151  1.4883 -2.3294  0.7615
 1328TIP3    H225620   4.026   2.138   2.006  0.3910  0.7806  0.1673
 1329TIP3   OH225621   6.418   0.826   0.048 -0.4463  0.1384 -0.1690
 1329TIP3    H125622   6.474   0.852   0.120  0.4479 -0.1127 -0.7533
 1329TIP3    H225623   6.331   0.816   0.087  0.0543 -0.1725  0.8978
 1330TIP3   OH225624   6.409   6.366   9.809 -0.0703  0.1418 -0.6631
 1330TIP3    H125625   6.326   6.332   9.774 -1.1424  0.0826  1.7688
 1330TIP3    H225626   6.460   6.287   9.829 -1.1502 -0.0564  1.6751
 1331TIP3   OH225627   0.586   5.322   0.810 -0.6350 -0.1124 -0.3279
 1331TIP3    H125628   0.654   5.314   0.877  0.8454  1.0453 -1.6320
 1331TIP3    H225629   0.538   5.402   0.833 -2.4069 -1.5276  1.2535
 1332TIP3   OH225630   1.000   3.687   2.000  0.0228 -0.0958 -0.0709
 1332TIP3    H125631   0.967   3.777   2.002 -2.1417 -0.8048  2.3312
 1332TIP3    H225632   0.956   3.646   1.926 -1.2114  0.1325  0.5134
 1333TIP3   OH225633   2.543   1.218   7.981  0.4271 -0.8994  0.5518
 1333TIP3    H125634   2.530   1.305   7.945  0.2460 -1.6458 -1.3084
 1333TIP3    H225635   2.638   1.209   7.990  0.4529 -0.5558  0.6277
 1334TIP3   OH225636   0.658   4.775   0.216 -0.2162  0.0254  0.0305
 1334TIP3    H125637   0.582   4.740   0.262  0.7819  0.3999  2.1062
 1334TIP3    H225638   0.621   4.826   0.144 -1.8805 -0.6011  0.3922
 1335TIP3   OH225639   5.849   6.266   0.480  0.0158  0.1476 -0.0597
 1335TIP3    H125640   5.845   6.361   0.475  0.9205  0.1415 -1.5580
 1335TIP3    H225641   5.939   6.247   0.508 -0.3433 -0.2688  0.8551
 1336TIP3   OH225642   3.625   3.696   2.664 -0.0777 -0.1169 -0.1496
 1336TIP3    H125643   3.608   3.757   2.735  0.5509 -0.2481  0.1203
 1336TIP3    H225644   3.654   3.750   2.591  2.0220 -0.1967  0.5758
 1337TIP3   OH225645   5.600   5.728   8.472 -0.0555 -0.8251  0.4108
 1337TIP3    H125646   5.610   5.753   8.380  0.0822 -0.8033  0.4306
 1337TIP3    H225647   5.668   5.662   8.486 -0.1871 -0.9500  0.4522
 1338TIP3   OH225648   2.640   6.160   2.507 -0.3149  0.5404 -0.2048
 1338TIP3    H125649   2.615   6.143   2.416 -0.9783  0.1175  0.0479
 1338TIP3    H225650   2.558   6.151   2.557  0.2720 -0.5162  0.5995
 1339TIP3   OH225651   5.423   3.909   1.096 -0.4287 -0.2562  0.1340
 1339TIP3    H125652   5.413   3.902   1.191  2.9146 -2.2788  0.4625
 1339TIP3    H225653   5.411   3.820   1.064  0.5302  0.0247 -1.0722
 1340TIP3   OH225654   4.683   5.312   2.850 -0.5463  0.2579  0.2048
 1340TIP3    H125655   4.763   5.301   2.902 -0.6311 -0.5428  0.1734
 1340TIP3    H225656   4.712   5.305   2.759 -0.8956 -1.9899  0.2084
 1341TIP3   OH225657   1.042   6.177   9.920  0.1459 -0.5204 -0.4300
 1341TIP3    H125658   1.125   6.225   9.917 -0.4828  0.7121  0.7612
 1341TIP3    H225659   1.013   6.185  10.011 -0.0520 -3.1257 -0.1818
 1342TIP3   OH225660   4.778   3.787   0.637 -0.3225  0.0964  0.0482
 1342TIP3    H125661   4.865   3.767   0.600 -0.2618  2.9439 -1.6857
 1342TIP3    H225662   4.720   3.721   0.599  0.8750 -1.2308  0.4227
 1343TIP3   OH225663   1.831   0.791   0.523  1.2284 -0.1242  0.3405
 1343TIP3    H125664   1.780   0.748   0.592  0.1405  0.3818 -0.1281
 1343TIP3    H225665   1.899   0.839   0.571  0.5044  0.1907  1.0711
 1344TIP3   OH225666   5.107   0.991   9.353 -0.0191 -0.2448  0.0144
 1344TIP3    H125667   5.130   0.993   9.260 -0.3674 -1.7686 -0.1164
 1344TIP3    H225668   5.012   1.000   9.354  0.0465  0.5564  0.2892
 1345TIP3   OH225669   1.947   5.818   0.599  0.8085 -0.9407  0.3021
 1345TIP3    H125670   1.931   5.907   0.629  0.6236  0.0109 -2.3056
 1345TIP3    H225671   2.040   5.816   0.578  0.6784 -1.1156 -0.2942
 1346TIP3   OH225672   4.000   4.389   3.036 -0.0922  0.0769 -0.1095
 1346TIP3    H125673   3.927   4.434   3.080 -0.3405 -1.3632  1.0217
 1346TIP3    H225674   4.047   4.345   3.107  0.6273 -0.7479 -1.0767
 1347TIP3   OH225675   1.591   1.594   8.896  0.5625 -0.1950 -0.2657
 1347TIP3    H125676   1.576   1.529   8.828 -1.5747 -0.3348  0.2869
 1347TIP3    H225677   1.543   1.671   8.866  1.5306  0.5277 -0.0144
 1348TIP3   OH225678   3.515   5.730   0.800 -0.3646  0.2273 -0.1150
 1348TIP3    H125679   3.433   5.722   0.752 -0.0553 -0.0491 -0.6059
 1348TIP3    H225680   3.582   5.706   0.737 -0.0553 -1.8529  0.9245
 1349TIP3   OH225681   5.138   1.685   0.996 -0.3170 -0.2374 -0.4422
 1349TIP3    H125682   5.164   1.661   1.085  1.4251  1.7598 -0.3316
 1349TIP3    H225683   5.154   1.779   0.991 -1.7910 -0.0232 -2.4238
 1350TIP3   OH225684   4.717   1.477   1.236 -0.7488 -0.1288  0.0001
 1350TIP3    H125685   4.690   1.561   1.273  0.4945  0.7359 -0.9813
 1350TIP3    H225686   4.717   1.491   1.141 -0.2094 -1.1358 -0.1656
 1351TIP3   OH225687   2.643   1.849   7.971 -0.0753  0.5411 -0.3889
 1351TIP3    H125688   2.625   1.825   7.880 -1.3954  1.0841 -0.2954
 1351TIP3    H225689   2.693   1.776   8.006 -1.8782 -0.9574 -0.8028
 1352TIP3   OH225690   0.888   1.180   2.609  0.0228 -0.3006 -0.2404
 1352TIP3    H125691   0.833   1.195   2.686 -1.8859  1.5647 -1.8380
 1352TIP3    H225692   0.908   1.086   2.611 -3.4040 -1.1329  0.3451
 1353TIP3   OH225693   0.540   5.718   1.287 -0.7455  0.0684 -0.2420
 1353TIP3    H125694   0.470   5.779   1.266 -1.5362 -1.1039 -1.0769
 1353TIP3    H225695   0.615   5.775   1.306 -2.1578  1.4120  1.8359
 1354TIP3   OH225696   1.802   3.751   0.115 -0.2098 -0.0378  0.4610
 1354TIP3    H125697   1.753   3.712   0.043 -1.1010 -0.7719  1.4328
 1354TIP3    H225698   1.807   3.682   0.181  0.5625  0.6260  1.1309
 1355TIP3   OH225699   2.483   1.720   0.523  0.1768  0.4834  0.2164
 1355TIP3    H125700   2.418   1.692   0.458  0.6886 -0.6772  0.1714
 1355TIP3    H225701   2.438   1.715   0.607  0.1120 -0.0240  0.1533
 1356TIP3   OH225702   1.420   3.912   8.090  0.0506  0.2100 -0.3330
 1356TIP3    H125703   1.357   3.906   8.162 -1.2713  1.5686 -1.3040
 1356TIP3    H225704   1.440   4.005   8.084 -0.1724  0.1826 -1.9463
 1357TIP3   OH225705   4.121   3.466   9.480 -0.1537  0.1571 -0.1230
 1357TIP3    H125706   4.070   3.386   9.470 -1.5952  1.1770 -1.3502
 1357TIP3    H225707   4.129   3.477   9.575  0.9625 -1.9309  0.0913
 1358TIP3   OH225708   6.304   0.265   7.312  0.5581  0.2765 -0.2046
 1358TIP3    H125709   6.359   0.197   7.352 -0.4370  0.1472  0.9912
 1358TIP3    H225710   6.331   0.267   7.220  0.6913 -1.6513 -0.2413
 1359TIP3   OH225711   1.506   5.834   9.761 -0.3831  0.4136 -0.4353
 1359TIP3    H125712   1.542   5.784   9.834 -1.1049  0.2419 -0.1891
 1359TIP3    H225713   1.543   5.792   9.683  0.1782  0.4300 -0.1885
 1360TIP3   OH225714   2.529   1.381   0.724 -0.2019  0.0568  0.0873
 1360TIP3    H125715   2.592   1.363   0.794  0.2521 -2.7993 -0.9363
 1360TIP3    H225716   2.581   1.380   0.644 -1.2550 -0.2683 -0.6054
 1361TIP3   OH225717   0.316   0.235   9.147  0.0396  0.0376  0.3396
 1361TIP3    H125718   0.342   0.193   9.229 -1.1226 -0.3547  0.5176
 1361TIP3    H225719   0.228   0.203   9.130 -0.2564  1.1627 -0.3618
 1362TIP3   OH225720   6.338   3.586   1.805  0.3432  0.4103  0.3434
 1362TIP3    H125721   6.325   3.672   1.766  0.5872  0.1274 -0.3853
 1362TIP3    H225722   6.401   3.601   1.876 -1.0154  1.1378  1.4642
 1363TIP3   OH225723   2.135   5.531   0.212  0.2420  0.2279 -0.3641
 1363TIP3    H125724   2.130   5.533   0.307 -0.0877  3.9382 -0.2884
 1363TIP3    H225725   2.203   5.467   0.192  0.4402 -0.5247  2.3406
 1364TIP3   OH225726   0.170   6.368   0.630 -0.1758  0.1986  0.2126
 1364TIP3    H125727   0.195   6.391   0.719  0.8624  1.4056 -0.3559
 1364TIP3    H225728   0.233   6.414   0.574  0.3367 -1.9350 -1.1061
 1365TIP3   OH225729   1.422   3.298   9.821 -0.2621 -0.0039 -0.3177
 1365TIP3    H125730   1.491   3.314   9.756 -0.1272  0.7845  0.0074
 1365TIP3    H225731   1.378   3.219   9.790 -0.3853  0.5153 -1.5289
 1366TIP3   OH225732   2.748   0.321   1.849 -0.4881  0.0144 -0.4388
 1366TIP3    H125733   2.676   0.277   1.804  0.1005 -1.3023 -0.1689
 1366TIP3    H225734   2.708   0.362   1.925 -0.6790 -3.0594  1.3129
 1367TIP3   OH225735   3.437   4.482   8.927 -0.1568  0.5365  0.2685
 1367TIP3    H125736   3.496   4.433   8.984  1.0758  0.2708 -1.1705
 1367TIP3    H225737   3.418   4.563   8.975  2.0858  1.0231  0.4112
 1368TIP3   OH225738   0.975   0.745   8.161  0.0989 -0.6106  0.0815
 1368TIP3    H125739   1.071   0.742   8.167  0.0912 -0.7003  0.1492
 1368TIP3    H225740   0.958   0.794   8.080  0.2139 -1.6323 -0.5826
 1369TIP3   OH225741   2.505   0.038   0.752  0.4637  0.1330 -0.9819
 1369TIP3    H125742   2.439   0.028   0.684 -1.0026 -0.6138  0.4898
 1369TIP3    H225743   2.521  -0.051   0.783  0.8104  0.4969 -0.0840
 1370TIP3   OH225744   0.812   3.699   9.060 -0.1728 -0.8289  0.2828
 1370TIP3    H125745   0.875   3.769   9.045  1.1688 -2.1457 -0.5169
 1370TIP3    H225746   0.747   3.709   8.990  0.8206 -1.2222 -0.7291
 1371TIP3   OH225747   6.133   5.382   9.874 -0.1896 -0.0939  0.2923
 1371TIP3    H125748   6.131   5.346   9.963 -0.1631 -0.3177  0.2034
 1371TIP3    H225749   6.113   5.475   9.886  0.9730  0.1240  0.6547
 1372TIP3   OH225750   0.149   2.007   0.021 -0.2407 -0.3883  0.2090
 1372TIP3    H125751   0.059   1.978   0.034 -0.3533 -0.0747  0.1488
 1372TIP3    H225752   0.143   2.076  -0.045  0.2247 -1.3982 -0.9182
 1373TIP3   OH225753   2.838   2.543   3.614  0.0381  0.1349 -0.1710
 1373TIP3    H125754   2.800   2.498   3.690 -2.8455  2.7191  0.1203
 1373TIP3    H225755   2.932   2.539   3.628 -0.2396 -2.4987  1.6771
 1374TIP3   OH225756   5.435   1.638   8.081 -0.1799  0.4081 -0.2014
 1374TIP3    H125757   5.391   1.717   8.111 -2.0114 -0.5577 -0.2036
 1374TIP3    H225758   5.415   1.633   7.987 -1.7703 -1.0134  0.1504
 1375TIP3   OH225759   1.634   4.023   8.299 -0.3905 -0.8409 -0.1697
 1375TIP3    H125760   1.694   4.016   8.224  0.4236  1.2479  0.2155
 1375TIP3    H225761   1.591   3.938   8.303  0.1373 -1.2978 -2.5142
 1376TIP3   OH225762   5.149   4.429   9.397 -0.1338  0.2921 -0.0051
 1376TIP3    H125763   5.055   4.417   9.379 -0.2688  0.1738  0.7483
 1376TIP3    H225764   5.193   4.382   9.326 -0.6573 -1.0139  0.4982
 1377TIP3   OH225765   3.829   0.499   9.569 -0.4034  0.8588 -0.4787
 1377TIP3    H125766   3.924   0.513   9.574 -0.0399 -0.8360 -1.7964
 1377TIP3    H225767   3.807   0.514   9.477 -1.2679  0.4743 -0.3447
 1378TIP3   OH225768   4.388   6.401   0.478 -0.3415  0.1626  0.2057
 1378TIP3    H125769   4.424   6.436   0.559  0.8939  1.7151 -0.9496
 1378TIP3    H225770   4.465   6.382   0.424 -1.1476  0.0383 -0.9424
 1379TIP3   OH225771   5.982   2.831   8.841  0.3634 -0.7351 -0.4414
 1379TIP3    H125772   5.909   2.891   8.826  1.5705  0.5587 -1.4128
 1379TIP3    H225773   5.942   2.745   8.845 -1.1746 -0.0982 -1.3821
 1380TIP3   OH225774   1.436   4.953   9.824 -0.3389  0.5609  1.0531
 1380TIP3    H125775   1.404   5.040   9.848  0.4869  0.4425  2.6942
 1380TIP3    H225776   1.408   4.941   9.733 -0.3710  2.5725  0.7724
 1381TIP3   OH225777   3.127   5.208   0.620  0.0993 -0.5845 -0.3353
 1381TIP3    H125778   3.140   5.166   0.705  2.1773  0.5126 -0.0485
 1381TIP3    H225779   3.181   5.157   0.560 -2.2582 -2.0810 -1.3320
 1382TIP3   OH225780   2.914   3.320   1.027  0.1866  0.3090 -0.2581
 1382TIP3    H125781   2.841   3.377   1.049  1.3085  1.3240  0.9182
 1382TIP3    H225782   2.886   3.233   1.057 -1.3476  0.2468 -1.6710
 1383TIP3   OH225783   1.108   1.539   1.074  0.3341  0.2214 -0.6072
 1383TIP3    H125784   1.102   1.510   0.983 -0.2439  0.3029 -0.5966
 1383TIP3    H225785   1.176   1.606   1.073  0.6270 -0.0772 -0.9024
 1384TIP3   OH225786   1.946   6.249   9.767 -0.5780  0.1043  0.7857
 1384TIP3    H125787   1.858   6.230   9.800 -1.1163  0.9918 -0.0904
 1384TIP3    H225788   2.005   6.206   9.829 -1.6195 -0.1526  1.6186
 1385TIP3   OH225789   4.372   1.517   2.915  0.3080  0.3836 -0.0143
 1385TIP3    H125790   4.347   1.609   2.913  1.7019  0.8197  0.9005
 1385TIP3    H225791   4.391   1.499   3.007  0.5361 -0.6743 -0.2494
 1386TIP3   OH225792   5.330   0.857   8.784 -0.3176  0.2529 -0.9460
 1386TIP3    H125793   5.294   0.945   8.798  0.0414  0.2416  0.1332
 1386TIP3    H225794   5.257   0.798   8.802  0.3353  0.2014  1.8890
 1387TIP3   OH225795   5.325   2.805   2.104  0.0279 -0.1172 -0.8352
 1387TIP3    H125796   5.373   2.727   2.076 -1.5331 -1.0749 -0.9688
 1387TIP3    H225797   5.240   2.772   2.133 -0.4616  1.4803 -0.3297
 1388TIP3   OH225798   2.273   4.764   0.355  0.3092 -0.4464 -0.4507
 1388TIP3    H125799   2.355   4.773   0.402  0.7703  1.5401 -1.5284
 1388TIP3    H225800   2.279   4.827   0.284 -1.9835 -0.5427 -0.8044
 1389TIP3   OH225801   4.587   1.717   1.332 -0.0436  0.0205  0.2076
 1389TIP3    H125802   4.568   1.764   1.413  0.2097  0.1635  0.1853
 1389TIP3    H225803   4.502   1.706   1.289 -0.1535  0.1052  0.4036
 1390TIP3   OH225804   2.595   2.712   3.524 -0.0930  0.3230 -0.1451
 1390TIP3    H125805   2.640   2.668   3.596  1.1340  0.2675 -0.9213
 1390TIP3    H225806   2.589   2.803   3.550  1.6050  0.5772 -0.5410
 1391TIP3   OH225807   1.205   0.990   7.555  0.0235 -0.4553  0.0236
 1391TIP3    H125808   1.120   0.988   7.511  0.3806  0.9167 -0.7839
 1391TIP3    H225809   1.255   0.920   7.514 -0.0425  0.0633 -0.9781
 1392TIP3   OH225810   1.365   3.355   2.447 -0.5255  0.1958  0.1539
 1392TIP3    H125811   1.371   3.332   2.354 -2.2122 -2.5619  0.6050
 1392TIP3    H225812   1.280   3.396   2.456  0.3652  2.1180  0.2523
 1393TIP3   OH225813   0.329   3.825   1.416  0.2416 -0.1763 -0.1159
 1393TIP3    H125814   0.411   3.789   1.382  0.5367  1.4155 -1.1596
 1393TIP3    H225815   0.349   3.917   1.435 -1.4702  0.4353 -1.0475
 1394TIP3   OH225816   4.621   1.261   9.329 -0.1891  0.7011 -0.4264
 1394TIP3    H125817   4.636   1.207   9.252  1.8097  0.5455  0.0377
 1394TIP3    H225818   4.606   1.199   9.400  0.4299  0.7909 -0.2152
 1395TIP3   OH225819   1.823   1.435   1.036  0.2792  0.1972 -0.1157
 1395TIP3    H125820   1.830   1.529   1.046  0.6590  0.1312  0.2566
 1395TIP3    H225821   1.733   1.414   1.063  0.4031  0.3699  0.4182
 1396TIP3   OH225822   1.734   6.207   8.844 -0.1249  0.8927  0.4354
 1396TIP3    H125823   1.645   6.242   8.848 -0.4352  0.0521  1.9064
 1396TIP3    H225824   1.773   6.246   8.766 -1.7835  1.2785 -0.2300
 1397TIP3   OH225825   1.062   4.421   0.529 -0.2686  0.3715  0.3186
 1397TIP3    H125826   1.032   4.505   0.496  0.4005  1.0539  1.3829
 1397TIP3    H225827   1.041   4.422   0.622  1.2171  0.0600  0.6902
 1398TIP3   OH225828   3.920   4.287   1.669 -0.5534 -0.0835 -0.6211
 1398TIP3    H125829   3.918   4.366   1.615 -0.8912  0.0468 -0.4185
 1398TIP3    H225830   3.909   4.215   1.606  0.7188 -0.0330 -0.9258
 1399TIP3   OH225831   5.620   0.586   9.451 -0.5510  0.1890  0.3432
 1399TIP3    H125832   5.627   0.520   9.521  0.9498 -0.2573 -0.1805
 1399TIP3    H225833   5.593   0.666   9.496 -1.1048 -0.4515  1.1902
 1400TIP3   OH225834   1.788   0.698   0.244 -0.5268 -0.4135  0.3484
 1400TIP3    H125835   1.820   0.610   0.263  3.2013  0.6627 -0.2124
 1400TIP3    H225836   1.772   0.737   0.330 -1.0200 -1.1949  0.6279
 1401TIP3   OH225837   1.995   1.030   1.982  0.1710  0.1948 -0.2662
 1401TIP3    H125838   1.940   0.999   2.054 -1.3534 -2.2661 -2.3013
 1401TIP3    H225839   2.031   1.113   2.013 -1.0943 -0.3050  2.9359
 1402TIP3   OH225840   2.987   2.418   8.031  0.2128 -0.6672  0.2655
 1402TIP3    H125841   3.009   2.331   7.998 -1.6014 -1.7856  1.8181
 1402TIP3    H225842   2.910   2.444   7.980  1.2758  0.4769 -0.8231
 1403TIP3   OH225843   0.265   5.747   8.918  0.2547  0.1170  0.1336
 1403TIP3    H125844   0.170   5.749   8.929 -0.1341  0.6240 -2.5588
 1403TIP3    H225845   0.298   5.813   8.979 -1.4113  1.8873 -0.7771
 1404TIP3   OH225846   0.203   3.963   8.980 -0.7794  1.2237 -0.3634
 1404TIP3    H125847   0.264   3.945   9.052 -0.1370 -0.5957 -1.3042
 1404TIP3    H225848   0.212   4.057   8.965 -0.1542  1.4623  1.2232
 1405TIP3   OH225849   0.196   1.575   0.172 -0.0330 -0.9197 -0.0509
 1405TIP3    H125850   0.230   1.575   0.262  0.3715 -0.9568 -0.2022
 1405TIP3    H225851   0.104   1.551   0.182  0.0577 -1.1248  0.3352
 1406TIP3   OH225852   5.643   2.393   0.181 -0.1879 -0.4194  0.1182
 1406TIP3    H125853   5.661   2.432   0.266  1.1599 -0.4761 -0.1073
 1406TIP3    H225854   5.640   2.467   0.120  1.5990 -0.5567 -0.1889
 1407TIP3   OH225855   5.854   6.226   1.445 -0.6489 -0.2730  0.2060
 1407TIP3    H125856   5.925   6.273   1.401 -0.6797 -0.0633  0.3849
 1407TIP3    H225857   5.774   6.259   1.404 -0.6718 -0.1535  0.3494
 1408TIP3   OH225858   2.078   2.016   2.229 -0.5370 -0.7827  0.0739
 1408TIP3    H125859   2.031   1.934   2.213 -2.5967  0.2482  0.3854
 1408TIP3    H225860   2.103   2.046   2.142 -2.5033 -0.2823 -0.3663
 1409TIP3   OH225861   0.303   5.852   7.782 -1.0350  0.4682 -0.5732
 1409TIP3    H125862   0.275   5.771   7.741 -2.6965  1.0553 -0.6732
 1409TIP3    H225863   0.349   5.900   7.713  0.0850 -0.4284 -0.4688
 1410TIP3   OH225864   3.271   0.130   9.131 -0.0793  0.1588  0.4031
 1410TIP3    H125865   3.359   0.114   9.165 -0.2299 -1.6757  0.0412
 1410TIP3    H225866   3.221   0.156   9.208  0.7061  0.9782  0.6566
 1411TIP3   OH225867   6.388   0.422   0.793  1.1246 -0.2351 -0.1307
 1411TIP3    H125868   6.409   0.498   0.847  1.0051 -0.6107  0.4479
 1411TIP3    H225869   6.472   0.395   0.756  1.3395 -0.4634  0.5122
 1412TIP3   OH225870   4.866   6.092   1.176 -0.1279 -0.2064  0.9157
 1412TIP3    H125871   4.928   6.070   1.245  0.4213  3.2699  1.7611
 1412TIP3    H225872   4.920   6.130   1.107 -1.1194  1.6919  1.1207
 1413TIP3   OH225873   1.830   1.335   2.212 -0.1603  0.1871  0.0891
 1413TIP3    H125874   1.844   1.430   2.203  1.0525 -0.1056 -1.7447
 1413TIP3    H225875   1.736   1.324   2.206 -0.5448  1.4364  2.5735
 1414TIP3   OH225876   3.540   4.055   2.044 -0.4829 -0.0095  0.6385
 1414TIP3    H125877   3.519   4.126   1.982 -0.6821  0.2503  0.9991
 1414TIP3    H225878   3.454   4.021   2.070 -0.3709 -1.1679 -0.4211
 1415TIP3   OH225879   6.391   4.304   9.809  0.1875  0.1926  0.1593
 1415TIP3    H125880   6.394   4.209   9.813  0.3147  0.2172  0.7541
 1415TIP3    H225881   6.465   4.328   9.754  0.3475 -0.0417  0.2689
 1416TIP3   OH225882   1.865   4.994   1.826 -0.2444  0.3466 -0.2801
 1416TIP3    H125883   1.944   5.041   1.853 -1.4756  2.0621  0.5710
 1416TIP3    H225884   1.886   4.902   1.839  1.3194  0.8014  0.7465
 1417TIP3   OH225885   2.976   3.760   1.520 -0.4123  0.5254  0.6041
 1417TIP3    H125886   3.050   3.807   1.481  1.0994 -0.2005  2.4429
 1417TIP3    H225887   2.906   3.769   1.456  1.4101  0.7824 -1.4872
 1418TIP3   OH225888   2.328   0.814   8.676  0.4306  0.4754 -0.4934
 1418TIP3    H125889   2.278   0.895   8.665  0.0534  0.4283  0.7448
 1418TIP3    H225890   2.312   0.788   8.767 -0.9273 -1.9579 -1.3273
 1419TIP3   OH225891   1.335   5.119   8.731 -0.3876  0.2717 -0.1910
 1419TIP3    H125892   1.285   5.194   8.762  0.7164  0.4499  1.2921
 1419TIP3    H225893   1.278   5.043   8.746 -0.6983  0.5989  0.3066
 1420TIP3   OH225894   2.754   6.202   1.024 -0.1149 -0.8457 -0.0072
 1420TIP3    H125895   2.696   6.237   1.093  0.1162 -0.6276  0.0801
 1420TIP3    H225896   2.699   6.201   0.946 -0.1080 -0.1970 -0.0314
 1421TIP3   OH225897   1.691   0.221   8.244 -0.1327 -0.2315 -0.2918
 1421TIP3    H125898   1.783   0.208   8.266  0.2156 -0.6417 -1.8598
 1421TIP3    H225899   1.645   0.150   8.288  0.3871 -0.4006 -0.0213
 1422TIP3   OH225900   4.457   5.531   9.277  0.0663  0.3876  0.3257
 1422TIP3    H125901   4.422   5.563   9.194  0.1485 -1.3703 -0.4111
 1422TIP3    H225902   4.447   5.606   9.337 -0.5696  1.4752 -1.0783
 1423TIP3   OH225903   1.143   2.514   9.699 -0.1044  0.2441  0.2947
 1423TIP3    H125904   1.079   2.584   9.705 -0.4647  0.0740 -1.2214
 1423TIP3    H225905   1.092   2.434   9.710  0.3221  0.1637  2.1511
 1424TIP3   OH225906   1.481   0.836   7.979  0.0214 -0.0503 -0.7992
 1424TIP3    H125907   1.419   0.811   8.048  1.8429  1.3825  1.5298
 1424TIP3    H225908   1.430   0.888   7.918 -1.4170 -0.2962  0.1520
 1425TIP3   OH225909   3.130   0.132   1.077  0.0533  0.6827  0.0642
 1425TIP3    H125910   3.081   0.074   1.019 -2.4861  0.9350  1.8239
 1425TIP3    H225911   3.172   0.073   1.140 -0.2310  0.6218  0.1950
 1426TIP3   OH225912   1.136   2.614   1.175 -0.4552  0.5809 -0.0919
 1426TIP3    H125913   1.143   2.653   1.088 -1.3559  1.0119  0.0254
 1426TIP3    H225914   1.202   2.660   1.227  1.5246 -1.0373 -0.9948
 1427TIP3   OH225915   5.077   0.153   9.890 -0.4850 -0.1084 -0.1486
 1427TIP3    H125916   5.093   0.150   9.984 -0.2643 -0.2034 -0.1892
 1427TIP3    H225917   5.071   0.061   9.864 -1.5744 -0.0805 -0.0516
 1428TIP3   OH225918   4.982   2.886   0.442  0.1684 -0.3490 -0.6956
 1428TIP3    H125919   5.027   2.861   0.522  0.2368  1.4931 -0.1165
 1428TIP3    H225920   4.968   2.803   0.396  1.8965 -1.2447  0.2709
 1429TIP3   OH225921   4.942   5.671   1.900 -0.1258  0.3090 -0.4481
 1429TIP3    H125922   5.027   5.673   1.857 -0.2985 -0.9401 -0.9162
 1429TIP3    H225923   4.882   5.713   1.837 -0.0378  0.2207 -0.5922
 1430TIP3   OH225924   6.165   0.857   3.167  0.4562 -0.3642  0.1910
 1430TIP3    H125925   6.118   0.778   3.195  0.7564 -0.6143  0.0061
 1430TIP3    H225926   6.119   0.929   3.209 -1.6686 -0.3468 -1.8924
 1431TIP3   OH225927   0.896   3.004   9.567  0.6277  0.1930  0.0313
 1431TIP3    H125928   0.807   2.970   9.569  1.2206 -1.4378  2.5572
 1431TIP3    H225929   0.937   2.960   9.493 -0.8276  1.6987 -1.7951
 1432TIP3   OH225930   1.449   5.286   9.602 -0.2735 -0.1610  0.0302
 1432TIP3    H125931   1.543   5.300   9.602 -0.2418 -0.3772  0.5953
 1432TIP3    H225932   1.426   5.272   9.693 -0.5835 -1.8748 -0.2815
 1433TIP3   OH225933   4.573   4.224  10.031 -0.4276  0.9890  0.3199
 1433TIP3    H125934   4.530   4.167   9.967 -0.4284  1.8364 -0.4530
 1433TIP3    H225935   4.551   4.186  10.116  1.1575 -1.3047 -0.2048
 1434TIP3   OH225936   4.818   4.098   0.072  0.1460  0.7686 -0.2216
 1434TIP3    H125937   4.814   4.185   0.113 -2.5971  0.8455 -0.4944
 1434TIP3    H225938   4.732   4.086   0.033 -0.7315 -3.3794  2.4510
 1435TIP3   OH225939   0.632   2.392   0.792 -0.2514  0.3727  0.2421
 1435TIP3    H125940   0.616   2.383   0.886  3.5730 -1.2914  0.9174
 1435TIP3    H225941   0.591   2.315   0.753  1.2267 -0.9026  1.1106
 1436TIP3   OH225942   2.653   2.246   8.965 -0.1258 -0.4458 -0.5374
 1436TIP3    H125943   2.737   2.254   8.921  0.4771 -0.1271  0.6252
 1436TIP3    H225944   2.589   2.236   8.894  0.5583  1.9359 -1.5833
 1437TIP3   OH225945   2.324   2.843   2.397 -0.0960 -0.5834 -0.4021
 1437TIP3    H125946   2.309   2.757   2.436  1.0176  0.0477  1.5923
 1437TIP3    H225947   2.256   2.851   2.330 -0.8034 -2.6246 -0.0148
 1438TIP3   OH225948   5.573   6.251   2.034  0.0459 -0.4482  0.9921
 1438TIP3    H125949   5.662   6.254   2.069  0.7237 -1.1672 -0.5906
 1438TIP3    H225950   5.551   6.343   2.017  0.4861 -0.2690  1.3596
 1439TIP3   OH225951   3.988   6.288   3.467  0.0270  0.1743 -0.1907
 1439TIP3    H125952   4.077   6.297   3.501 -1.2263  0.6063  3.4554
 1439TIP3    H225953   3.968   6.195   3.479 -0.2767  0.2323 -0.2471
 1440TIP3   OH225954   0.811   0.417   0.808  0.4773  0.3101  0.1397
 1440TIP3    H125955   0.872   0.368   0.863  1.7218  1.0803 -0.5132
 1440TIP3    H225956   0.851   0.504   0.800 -0.4609  0.6812 -0.7174
 1441TIP3   OH225957   2.770   4.009   2.913  0.4723  0.3737  0.0125
 1441TIP3    H125958   2.782   4.087   2.858 -1.9206 -0.1010 -1.3239
 1441TIP3    H225959   2.692   3.966   2.877  2.7123 -3.7005 -0.5403
 1442TIP3   OH225960   3.683   2.575   2.652 -0.2107  0.7285 -0.1923
 1442TIP3    H125961   3.720   2.589   2.565  0.5530  1.4367  0.2271
 1442TIP3    H225962   3.671   2.663   2.688 -0.6938  0.4524  0.3448
 1443TIP3   OH225963   6.195   1.367   8.931  0.6759 -0.1547  0.5370
 1443TIP3    H125964   6.248   1.331   8.859 -1.5083 -1.7067 -0.4073
 1443TIP3    H225965   6.160   1.449   8.896 -1.4693 -1.5499 -0.8120
 1444TIP3   OH225966   3.795   3.769   9.432 -0.7066  0.3215 -0.0931
 1444TIP3    H125967   3.798   3.844   9.373  0.5257  0.2239 -0.1800
 1444TIP3    H225968   3.886   3.752   9.455 -1.0514 -0.4680  0.8013
 1445TIP3   OH225969   6.040   1.524   0.520 -0.1338 -0.1635  0.3880
 1445TIP3    H125970   5.979   1.505   0.449 -1.6901  0.6174  1.4691
 1445TIP3    H225971   6.050   1.442   0.567  1.6222 -0.9347 -1.1890
 1446TIP3   OH225972   2.682   0.260   8.726 -0.2629  0.1236 -0.2160
 1446TIP3    H125973   2.641   0.315   8.659  0.2465  0.5387 -0.1898
 1446TIP3    H225974   2.627   0.271   8.803 -0.3258  0.3672 -0.2958
 1447TIP3   OH225975   2.870   4.776   9.761  0.0792  0.1247  0.1391
 1447TIP3    H125976   2.781   4.771   9.797  1.0583  1.3070  3.0489
 1447TIP3    H225977   2.884   4.869   9.744  0.4188 -0.1780 -1.3841
 1448TIP3   OH225978   4.745   1.887   0.562  0.2894 -0.1074 -0.6371
 1448TIP3    H125979   4.658   1.874   0.599  0.3777 -1.8357 -0.9181
 1448TIP3    H225980   4.733   1.881   0.467  0.5458  0.9261 -0.7487
 1449TIP3   OH225981   4.696   4.931   0.246 -0.6451 -1.3203 -0.2787
 1449TIP3    H125982   4.649   5.010   0.220  0.2982 -0.8677 -0.6615
 1449TIP3    H225983   4.649   4.899   0.323 -0.4981  0.1327  0.4423
 1450TIP3   OH225984   5.288   4.425   2.749 -0.0771 -0.1392  0.1445
 1450TIP3    H125985   5.251   4.391   2.830  1.8661  0.0811  1.1764
 1450TIP3    H225986   5.302   4.347   2.695  0.5650 -0.5428  0.8742
 1451TIP3   OH225987   2.102   4.001   8.401  0.2860 -0.1904  0.4360
 1451TIP3    H125988   2.114   3.907   8.414 -2.9590 -0.5513  1.7282
 1451TIP3    H225989   2.073   4.034   8.486 -0.4684  1.6117 -0.4646
 1452TIP3   OH225990   2.905   2.548   2.637  0.1739  0.3162 -0.0702
 1452TIP3    H125991   2.902   2.453   2.625  0.5822  0.3892 -0.8573
 1452TIP3    H225992   2.965   2.562   2.711 -0.4088 -0.0637  0.4753
 1453TIP3   OH225993   1.277   1.556   1.735  0.0124 -0.3637  0.0432
 1453TIP3    H125994   1.348   1.559   1.671 -1.1124 -2.4043 -1.4372
 1453TIP3    H225995   1.204   1.600   1.691 -0.8049 -1.8869 -0.1776
 1454TIP3   OH225996   3.155   0.404   0.373  0.4814  0.2764  0.2167
 1454TIP3    H125997   3.188   0.315   0.385  0.8712  0.1111 -1.7029
 1454TIP3    H225998   3.231   0.453   0.341 -0.1442  0.8804 -0.3654
 1455TIP3   OH225999   2.236   3.940   0.575  0.4509  0.8798 -0.5847
 1455TIP3    H126000   2.224   3.870   0.511 -0.0238  0.7217 -0.3262
 1455TIP3    H226001   2.248   4.019   0.523 -1.2900  0.9870 -0.8921
 1456TIP3   OH226002   1.112   0.290   1.917  0.1660  0.1888 -0.2077
 1456TIP3    H126003   1.205   0.287   1.940 -0.0626  1.2515  0.9475
 1456TIP3    H226004   1.081   0.200   1.930  0.7295  0.1276  0.7547
 1457TIP3   OH226005   5.454   4.215   0.684 -0.5663  0.5773 -0.1119
 1457TIP3    H126006   5.471   4.269   0.761 -3.2029  0.4166  0.7036
 1457TIP3    H226007   5.468   4.273   0.610  1.9842  0.7508  0.4330
 1458TIP3   OH226008   5.314   2.024   9.076  0.2985  0.0559  0.5016
 1458TIP3    H126009   5.298   1.935   9.109 -2.0413  0.9155  1.8894
 1458TIP3    H226010   5.297   2.081   9.151  0.2595  1.7818 -0.7627
 1459TIP3   OH226011   0.863   1.967   2.118  0.2436  0.8219 -0.0112
 1459TIP3    H126012   0.794   1.974   2.052  0.4479 -0.8895 -0.4735
 1459TIP3    H226013   0.854   2.045   2.172 -2.0874  0.6258 -0.0257
 1460TIP3   OH226014   4.787   4.831  10.022 -0.3605 -0.5367  0.1838
 1460TIP3    H126015   4.859   4.782  10.063  0.4988  0.4923 -0.0384
 1460TIP3    H226016   4.727   4.851  10.094 -0.9575 -2.2548  0.2098
 1461TIP3   OH226017   3.144   4.670   9.150 -0.4240  0.0742  0.3901
 1461TIP3    H126018   3.233   4.698   9.129 -1.0697  1.8764 -0.1698
 1461TIP3    H226019   3.093   4.691   9.071 -1.6015  0.4482  1.2235
 1462TIP3   OH226020   5.411   5.895   0.305  0.4394  0.2239  0.2062
 1462TIP3    H126021   5.372   5.977   0.335 -0.1248 -0.3964  1.2102
 1462TIP3    H226022   5.495   5.891   0.351  0.1828 -0.0681  0.6497
 1463TIP3   OH226023   1.780   6.276   0.147  0.0454 -0.4466 -0.7056
 1463TIP3    H126024   1.696   6.306   0.183 -0.1260 -1.7639  0.0591
 1463TIP3    H226025   1.770   6.182   0.137  1.4849 -0.6562 -0.4645
 1464TIP3   OH226026   2.312   4.887   9.480  0.2995 -0.1586  0.0172
 1464TIP3    H126027   2.333   4.799   9.446  1.1666 -0.5191  1.4125
 1464TIP3    H226028   2.224   4.904   9.447 -0.4566 -2.1433  0.8257
 1465TIP3   OH226029   2.008   5.246   1.402 -0.1466  0.6919  0.1167
 1465TIP3    H126030   1.928   5.299   1.407 -0.5352  0.2351 -0.9927
 1465TIP3    H226031   2.027   5.240   1.309  1.5186  1.2455  0.3847
 1466TIP3   OH226032   1.602   1.853   1.261 -0.5612  0.0262 -0.3669
 1466TIP3    H126033   1.516   1.890   1.281 -2.5167 -2.2813 -3.6081
 1466TIP3    H226034   1.642   1.917   1.202 -1.2182 -0.1045 -0.9678
 1467TIP3   OH226035   4.443   2.887   9.614  0.3427  0.1792 -0.5243
 1467TIP3    H126036   4.389   2.932   9.549  0.4217  1.3778  0.2157
 1467TIP3    H226037   4.531   2.922   9.600 -0.0845  2.5415  1.9430
 1468TIP3   OH226038   1.480   4.650   8.579 -0.0774 -0.0474 -0.0996
 1468TIP3    H126039   1.557   4.698   8.610  0.1129  0.7214 -1.6777
 1468TIP3    H226040   1.513   4.561   8.562  0.4415  0.2620 -0.7067
 1469TIP3   OH226041   1.200   5.629  10.025 -0.2093 -0.0910 -0.2543
 1469TIP3    H126042   1.145   5.581  10.087 -0.2974  0.3101 -0.0142
 1469TIP3    H226043   1.262   5.676  10.081 -1.1318  1.3388 -0.3702
 1470TIP3   OH226044   4.326   1.504   1.681 -0.1180  0.0552  0.5610
 1470TIP3    H126045   4.293   1.526   1.769 -2.4663 -1.2282  0.0719
 1470TIP3    H226046   4.416   1.476   1.696 -1.0126 -1.9441  2.8881
 1471TIP3   OH226047   5.848   4.487   3.098  0.2080  0.2506  0.2802
 1471TIP3    H126048   5.842   4.438   3.179  0.5538  1.5953  1.1598
 1471TIP3    H226049   5.887   4.571   3.123  1.0317  0.4206 -1.3967
 1472TIP3   OH226050   2.658   3.984   0.467 -0.5650  0.3343  0.6664
 1472TIP3    H126051   2.614   3.939   0.540 -1.9269  0.5397  0.0016
 1472TIP3    H226052   2.659   3.920   0.396  2.0636 -0.3851  1.2433
 1473TIP3   OH226053   1.960   6.035   1.547 -0.2828  0.1022 -0.0993
 1473TIP3    H126054   2.043   5.987   1.545 -1.5081 -2.1680  0.2204
 1473TIP3    H226055   1.967   6.092   1.624  1.2574  0.5063 -0.5188
 1474TIP3   OH226056   1.451   4.193   8.022 -0.1138  0.0925  0.1301
 1474TIP3    H126057   1.466   4.219   7.931  0.0885  0.7450  0.3461
 1474TIP3    H226058   1.356   4.197   8.034 -0.2617 -1.1821 -0.3926
 1475TIP3   OH226059   2.895   5.821   0.069 -0.1391  0.1502 -0.5030
 1475TIP3    H126060   2.963   5.838   0.135 -0.1888  0.3806 -0.5090
 1475TIP3    H226061   2.813   5.836   0.116 -0.2878 -2.2410  0.1320
 1476TIP3   OH226062   1.828   2.728   9.347  0.0675 -0.2978 -0.4676
 1476TIP3    H126063   1.887   2.729   9.272  0.3518 -0.3526 -0.2465
 1476TIP3    H226064   1.743   2.753   9.311  0.0913 -0.8150 -0.9022
 1477TIP3   OH226065   2.523   0.345   7.955 -0.1709 -0.2736  0.6901
 1477TIP3    H126066   2.539   0.336   8.048  1.3903  2.2999  0.7687
 1477TIP3    H226067   2.610   0.357   7.916 -0.8927  0.2002 -0.8836
 1478TIP3   OH226068   2.437   4.855   9.947  0.5992 -0.1561  0.3745
 1478TIP3    H126069   2.369   4.798   9.911 -0.0201  1.7264 -1.6723
 1478TIP3    H226070   2.412   4.867  10.038 -0.5395 -1.2786  0.2455
 1479TIP3   OH226071   1.697   6.047   9.494  0.8664 -0.3865 -0.3402
 1479TIP3    H126072   1.662   5.958   9.496  1.1791 -0.5193  1.3463
 1479TIP3    H226073   1.752   6.050   9.416  0.4355 -1.5036 -0.7035
 1480TIP3   OH226074   5.922   0.302   1.620 -0.4494  0.1254  0.0700
 1480TIP3    H126075   5.978   0.378   1.601 -0.1338 -0.2707 -0.6451
 1480TIP3    H226076   5.834   0.329   1.592 -0.4837  0.5053  0.5480
 1481TIP3   OH226077   4.234   2.594   3.631  0.0415 -0.6373 -0.4583
 1481TIP3    H126078   4.258   2.519   3.576 -0.2398  0.0087 -1.4862
 1481TIP3    H226079   4.149   2.623   3.598  0.3981  0.4772 -0.4440
 1482TIP3   OH226080   2.051   3.578   8.170 -0.5012 -0.2996  0.3329
 1482TIP3    H126081   1.999   3.621   8.238 -1.0833  1.5669 -1.1879
 1482TIP3    H226082   2.119   3.642   8.150  1.2408 -1.9103  0.9200
 1483TIP3   OH226083   2.970   0.431   0.583 -0.3643  0.3927 -0.0303
 1483TIP3    H126084   3.043   0.435   0.521 -0.2502 -1.5973 -0.0859
 1483TIP3    H226085   2.892   0.448   0.529 -0.0877  0.8582 -0.2874
 1484TIP3   OH226086   6.116   3.105   9.681 -0.7447 -0.6675  0.4230
 1484TIP3    H126087   6.202   3.145   9.670 -0.1830 -1.5540  1.3630
 1484TIP3    H226088   6.106   3.094   9.776 -2.7700  1.2045  0.5029
 1485TIP3   OH226089   2.892   4.219   2.750 -0.1466 -0.0700  0.2843
 1485TIP3    H126090   2.983   4.245   2.737 -0.2202  0.1607  0.2298
 1485TIP3    H226091   2.846   4.301   2.766 -0.1249 -0.2936  1.6272
 1486TIP3   OH226092   0.091   0.059   9.082 -0.3838 -0.2696 -0.0064
 1486TIP3    H126093  -0.000   0.051   9.110 -0.5765 -0.7529 -0.7403
 1486TIP3    H226094   0.101  -0.008   9.014  0.4230  0.0142 -0.1781
 1487TIP3   OH226095   0.362   4.399   3.364 -0.3378 -0.2525  0.9429
 1487TIP3    H126096   0.317   4.326   3.408  1.3134 -0.6655  2.0527
 1487TIP3    H226097   0.436   4.418   3.421  0.1043  1.3246 -0.1141
 1488TIP3   OH226098   2.281   3.116   2.525 -0.5363  0.0487  0.5742
 1488TIP3    H126099   2.230   3.058   2.581  0.6546 -0.5518  1.0755
 1488TIP3    H226100   2.223   3.189   2.507 -3.4328 -2.7078 -2.8228
 1489TIP3   OH226101   2.730   4.260   2.405 -0.3245 -0.6763  0.5196
 1489TIP3    H126102   2.636   4.271   2.415 -0.2049 -1.0623  2.4078
 1489TIP3    H226103   2.767   4.347   2.419 -0.4014 -0.4608 -0.5424
 1490TIP3   OH226104   1.173   1.465   0.083  0.4457 -0.5636 -0.1281
 1490TIP3    H126105   1.109   1.397   0.064  0.6219 -1.0439  0.9610
 1490TIP3    H226106   1.130   1.546   0.056 -0.6977 -0.8578  0.7308
 1491TIP3   OH226107   2.599   0.842   8.597  0.3832 -0.7989 -0.0085
 1491TIP3    H126108   2.521   0.841   8.652  0.6009  0.5890  0.3688
 1491TIP3    H226109   2.672   0.848   8.659  0.6689  0.1045 -0.4229
 1492TIP3   OH226110   6.263   5.732   1.980  0.1668 -0.0851  0.7515
 1492TIP3    H126111   6.244   5.785   1.902  0.3814  0.7223  1.2337
 1492TIP3    H226112   6.216   5.651   1.965 -1.4155  0.8049  0.6595
 1493TIP3   OH226113   6.198   3.709   1.274 -0.1512  0.7063 -0.0522
 1493TIP3    H126114   6.127   3.693   1.212 -1.3152 -1.6615  1.7243
 1493TIP3    H226115   6.277   3.687   1.226 -0.9676 -0.5710 -0.8730
 1494TIP3   OH226116   5.557   2.359   3.265  0.2054  0.0049  0.6065
 1494TIP3    H126117   5.601   2.290   3.215  1.6949  1.0235  0.4248
 1494TIP3    H226118   5.572   2.335   3.356  0.1619 -0.2504  0.5474
 1495TIP3   OH226119   2.718   0.287   0.808 -0.1139 -0.3948 -0.5698
 1495TIP3    H126120   2.668   0.351   0.757  0.9623  1.7876  0.9618
 1495TIP3    H226121   2.658   0.262   0.878 -0.3864 -0.7753 -0.9301
 1496TIP3   OH226122   0.370   1.194   1.751  0.1011 -0.5109  0.2928
 1496TIP3    H126123   0.408   1.263   1.697 -0.2705 -1.5499 -1.3787
 1496TIP3    H226124   0.389   1.220   1.841  0.7408  1.2923 -0.3279
 1497TIP3   OH226125   5.750   4.754   2.912 -0.3601  0.3524  0.5312
 1497TIP3    H126126   5.734   4.669   2.870 -0.4560 -0.1672  1.5703
 1497TIP3    H226127   5.842   4.750   2.939  0.8459  2.1399 -2.7805
 1498TIP3   OH226128   2.189   6.131   8.845 -0.5279 -0.1054  0.6888
 1498TIP3    H126129   2.123   6.130   8.775  1.3940 -0.5171 -1.2352
 1498TIP3    H226130   2.161   6.062   8.906 -2.0733  0.0213  0.1608
 1499TIP3   OH226131   3.468   4.291   3.074  0.2444  0.3642  0.1159
 1499TIP3    H126132   3.458   4.260   3.164  0.4121  2.3645  0.8707
 1499TIP3    H226133   3.395   4.251   3.027 -0.5492  0.2267  1.4173
 1500TIP3   OH226134   5.028   3.707   1.126  0.0895  0.1070 -0.4823
 1500TIP3    H126135   4.981   3.722   1.044 -1.3155 -0.9086  0.0931
 1500TIP3    H226136   4.973   3.746   1.193 -0.5336 -2.0355  0.3320
 1501TIP3   OH226137   5.907   2.886   3.435  0.3941 -0.5431  0.2542
 1501TIP3    H126138   5.990   2.932   3.451 -1.1540  2.9538 -0.6877
 1501TIP3    H226139   5.855   2.903   3.513  0.0407 -1.4591  0.2266
 1502TIP3   OH226140   1.684   5.296   8.301 -0.1274 -0.5240  0.1449
 1502TIP3    H126141   1.749   5.265   8.238 -0.9974 -0.4994 -0.7901
 1502TIP3    H226142   1.601   5.294   8.253 -0.8016 -0.4319  1.2741
 1503TIP3   OH226143   0.282   0.936   8.368 -0.0374  0.0855 -0.0091
 1503TIP3    H126144   0.193   0.941   8.333  0.8451  0.3667 -2.3975
 1503TIP3    H226145   0.297   1.021   8.408 -0.8599  0.0059  0.4956
 1504TIP3   OH226146   4.339   3.524   1.677  0.7030 -0.0474  0.7945
 1504TIP3    H126147   4.325   3.447   1.731 -0.5473  0.0062  0.5573
 1504TIP3    H226148   4.275   3.588   1.708  0.5942  0.3094 -0.1226
 1505TIP3   OH226149   6.135   3.221   8.303  0.0086  0.0729  0.3177
 1505TIP3    H126150   6.174   3.212   8.216 -0.8292  1.1362 -0.1944
 1505TIP3    H226151   6.147   3.135   8.344  0.9001 -0.2761 -0.6394
 1506TIP3   OH226152   0.223   3.063   0.763 -0.0211 -0.5435  0.4875
 1506TIP3    H126153   0.269   3.080   0.845 -0.5685  1.2170  0.4640
 1506TIP3    H226154   0.250   2.975   0.738  1.8257 -0.2889  1.4529
 1507TIP3   OH226155   6.263   0.856   6.935  0.2774  0.3052  0.4479
 1507TIP3    H126156   6.241   0.871   7.027 -0.7205 -0.4585  0.3521
 1507TIP3    H226157   6.196   0.903   6.885  0.6828  0.5313  0.1041
 1508TIP3   OH226158   3.484   5.978   0.134 -0.1374 -0.1427 -0.9631
 1508TIP3    H126159   3.489   5.994   0.040 -0.6382 -1.9616 -1.3403
 1508TIP3    H226160   3.392   5.956   0.150  0.4343 -2.4200 -0.5439
 1509TIP3   OH226161   3.163   4.126   9.681  0.2620  0.0534  0.2496
 1509TIP3    H126162   3.103   4.072   9.631 -0.4942 -0.1536  1.3357
 1509TIP3    H226163   3.168   4.208   9.632 -0.2361 -0.2394 -0.3059
 1510TIP3   OH226164   2.058   5.925   7.326  0.5749 -0.3984  0.0785
 1510TIP3    H126165   2.063   5.898   7.418 -0.8166 -1.4166 -0.1043
 1510TIP3    H226166   2.017   6.012   7.329 -0.4034 -0.8516  0.3970
 1511TIP3   OH226167   3.860   0.049   7.855 -0.1520  0.1259 -0.0935
 1511TIP3    H126168   3.819   0.116   7.911 -0.1578  1.5024 -1.6579
 1511TIP3    H226169   3.787   0.013   7.805  0.2376  1.3286 -1.6129
 1512TIP3   OH226170   0.608   4.948   8.680 -0.3045 -0.2804  0.0226
 1512TIP3    H126171   0.593   4.881   8.613 -2.2150 -0.0938  0.2076
 1512TIP3    H226172   0.686   4.995   8.649 -1.2946 -0.0101 -2.2565
 1513TIP3   OH226173   5.077   3.053   8.904  0.2737  0.3301 -0.1080
 1513TIP3    H126174   5.077   2.999   8.983  1.2265  1.0622  0.4038
 1513TIP3    H226175   5.073   3.143   8.935 -0.5894  0.5970 -0.9371
 1514TIP3   OH226176   3.025   2.069   0.795 -0.3151  0.4714  0.1775
 1514TIP3    H126177   2.997   1.991   0.748  3.1541 -1.0978  0.4037
 1514TIP3    H226178   3.101   2.041   0.846  2.1397  4.2567 -0.9278
 1515TIP3   OH226179   6.233   4.785   9.616 -0.1831 -0.1579 -0.0093
 1515TIP3    H126180   6.260   4.693   9.613  2.1902  0.1393  4.3244
 1515TIP3    H226181   6.144   4.783   9.651  0.1376 -0.8087  0.7920
 1516TIP3   OH226182   1.807   6.361   8.631 -0.1005  0.0063 -0.1682
 1516TIP3    H126183   1.743   6.356   8.561  0.4155  0.7797 -0.7075
 1516TIP3    H226184   1.890   6.336   8.590 -0.1526 -1.8468  0.7164
 1517TIP3   OH226185   2.856   3.587   7.792 -0.2920  0.0944 -0.1291
 1517TIP3    H126186   2.785   3.647   7.770  0.5453  0.5454 -1.7407
 1517TIP3    H226187   2.892   3.620   7.874 -0.0764  1.6021 -0.8091
 1518TIP3   OH226188   2.071   2.589   7.628  0.9363 -0.6357  0.0675
 1518TIP3    H126189   2.155   2.635   7.633  1.1385 -1.1080  1.4593
 1518TIP3    H226190   2.056   2.556   7.717 -0.9731 -0.1476 -0.0275
 1519TIP3   OH226191   5.949   6.320   2.682  0.4448 -0.4760 -0.4949
 1519TIP3    H126192   6.033   6.345   2.720 -0.3840  3.4586 -0.8142
 1519TIP3    H226193   5.888   6.385   2.715 -1.4172 -0.0791 -4.2059
 1520TIP3   OH226194   5.274   3.193   9.793 -1.0249 -0.0905 -0.0378
 1520TIP3    H126195   5.296   3.188   9.700  0.8279 -0.0051  0.3436
 1520TIP3    H226196   5.336   3.258   9.828 -1.9549  0.1655  1.1842
 1521TIP3   OH226197   5.324   1.192   9.063 -0.4641 -0.1925 -0.2218
 1521TIP3    H126198   5.325   1.247   8.984  0.4481 -1.8554 -1.4359
 1521TIP3    H226199   5.413   1.158   9.070 -0.9608 -1.3907  0.5640
 1522TIP3   OH226200   1.724   3.518   9.651  0.2912  0.0749 -0.6265
 1522TIP3    H126201   1.737   3.441   9.706 -0.3780  0.0091 -0.5497
 1522TIP3    H226202   1.636   3.507   9.615  0.0722  0.9409 -0.3839
 1523TIP3   OH226203   3.362   1.105   7.864  0.1936 -0.0924 -0.5225
 1523TIP3    H126204   3.343   1.170   7.931  1.1079  0.8576 -1.1594
 1523TIP3    H226205   3.333   1.145   7.782 -1.0811 -1.3117 -0.6990
 1524TIP3   OH226206   4.976   6.028   1.423 -0.0646 -0.0079  0.3056
 1524TIP3    H126207   4.903   6.050   1.481  0.0625  0.6358  0.2263
 1524TIP3    H226208   5.016   5.951   1.464 -1.2124 -0.8156 -0.0398
 1525TIP3   OH226209   1.871   6.084   9.256 -0.1031  0.0960  0.0147
 1525TIP3    H126210   1.844   6.087   9.164 -1.8620 -0.2220  0.4837
 1525TIP3    H226211   1.964   6.108   9.254 -0.5932  2.1735 -1.6050
 1526TIP3   OH226212   1.512   2.382   8.826 -0.4515  0.1450  0.1292
 1526TIP3    H126213   1.602   2.415   8.815 -0.3808 -0.6497 -2.1709
 1526TIP3    H226214   1.523   2.298   8.870 -0.3830  1.4926  2.8842
 1527TIP3   OH226215   2.340   3.352   3.377  0.0503 -0.3725 -0.0198
 1527TIP3    H126216   2.369   3.371   3.466 -0.2678 -0.1855  0.0453
 1527TIP3    H226217   2.311   3.261   3.380  0.6374 -0.5654 -0.0895
 1528TIP3   OH226218   4.532   1.287   8.259  0.7644  0.1015 -0.5953
 1528TIP3    H126219   4.595   1.230   8.302  0.0889 -2.1581 -2.4330
 1528TIP3    H226220   4.574   1.313   8.177  0.2447  0.5495 -0.7337
 1529TIP3   OH226221   4.387   0.325   2.499  0.1285 -0.3239 -0.0057
 1529TIP3    H126222   4.433   0.390   2.446  1.3398 -0.4443  0.8666
 1529TIP3    H226223   4.301   0.316   2.456  0.3172  1.0671 -0.7423
 1530TIP3   OH226224   2.087   3.322   2.463  0.0043  0.3103  0.1584
 1530TIP3    H126225   2.080   3.361   2.550  1.4449  0.1595  0.3723
 1530TIP3    H226226   2.060   3.391   2.403  1.6774  1.3856  0.5815
 1531TIP3   OH226227   5.210   4.152   2.246  0.3756  0.8035 -0.1045
 1531TIP3    H126228   5.219   4.110   2.161 -0.2767  2.6361 -1.1278
 1531TIP3    H226229   5.121   4.129   2.275  0.2256  1.0182 -0.3942
 1532TIP3   OH226230   4.196   1.573   8.800 -0.4675  0.4520 -0.6547
 1532TIP3    H126231   4.207   1.537   8.888 -1.4074 -1.0534 -1.1188
 1532TIP3    H226232   4.224   1.502   8.741 -1.1897  0.9161 -1.5830
 1533TIP3   OH226233   1.628   4.629   1.676  0.6818  0.5570 -0.5230
 1533TIP3    H126234   1.671   4.560   1.626  0.2963  1.0651 -1.5845
 1533TIP3    H226235   1.656   4.710   1.633 -0.0926  0.9734 -0.2565
 1534TIP3   OH226236   4.710   3.257   3.249 -0.3310 -0.2090  0.2683
 1534TIP3    H126237   4.614   3.255   3.255 -0.2674  0.4342  2.5317
 1534TIP3    H226238   4.729   3.312   3.174 -1.7347 -0.2360 -0.1261
 1535TIP3   OH226239   4.017   0.136   0.686 -0.4924  0.2969  0.0330
 1535TIP3    H126240   4.042   0.056   0.732 -0.6450  1.0480  1.4716
 1535TIP3    H226241   4.046   0.207   0.743  0.2374  1.3157 -1.5176
 1536TIP3   OH226242   0.354   3.889   8.492  0.5164  0.6771  0.0417
 1536TIP3    H126243   0.288   3.866   8.558 -1.3486  0.4698 -1.7970
 1536TIP3    H226244   0.436   3.859   8.531 -0.6785 -0.8037  1.6557
 1537TIP3   OH226245   4.419   5.757   0.949  0.0255  0.0447  0.7235
 1537TIP3    H126246   4.430   5.669   0.912 -2.2104  1.0812 -2.8361
 1537TIP3    H226247   4.336   5.752   0.997 -1.1969  0.6349 -1.2375
 1538TIP3   OH226248   0.475   0.876   0.181  0.1506 -0.1295  0.3545
 1538TIP3    H126249   0.509   0.844   0.264  0.0116 -1.0759  0.0667
 1538TIP3    H226250   0.509   0.965   0.173  0.8251 -0.3166  1.0426
 1539TIP3   OH226251   1.114   2.070   1.990  0.3159  0.4608 -0.1510
 1539TIP3    H126252   1.074   2.133   1.930 -0.2134 -1.9267 -2.4641
 1539TIP3    H226253   1.045   2.005   2.005  0.4455  0.8845  3.1180
 1540TIP3   OH226254   6.008   0.272   0.096 -0.0662 -0.0886  0.2572
 1540TIP3    H126255   5.991   0.183   0.128 -0.8040  0.0759  0.3441
 1540TIP3    H226256   5.950   0.281   0.021  1.4283 -0.3601 -0.9586
 1541TIP3   OH226257   0.955   4.391   0.781 -0.0584  0.2600 -0.3108
 1541TIP3    H126258   1.012   4.361   0.851 -0.4111  0.7294  0.1867
 1541TIP3    H226259   0.866   4.380   0.815 -0.2206  0.9521 -0.4791
 1542TIP3   OH226260   6.182   3.648   0.070  0.0565 -0.1472  0.7024
 1542TIP3    H126261   6.200   3.555   0.058 -0.1022 -0.0769 -0.0842
 1542TIP3    H226262   6.221   3.669   0.155  0.4074 -0.8473  0.7172
 1543TIP3   OH226263   5.189   0.452   0.537 -0.0922 -0.4054 -0.3085
 1543TIP3    H126264   5.268   0.452   0.482  0.2734 -1.5504  0.1865
 1543TIP3    H226265   5.218   0.412   0.619 -0.7433  0.8690  0.5646
 1544TIP3   OH226266   4.546   2.925   1.999 -0.5956 -0.3129 -0.2033
 1544TIP3    H126267   4.454   2.940   2.023 -0.3996 -0.9019  0.9607
 1544TIP3    H226268   4.596   2.952   2.075  0.1255 -1.1235 -0.3721
 1545TIP3   OH226269   3.097   6.349   9.058 -0.4115  0.2903  0.4871
 1545TIP3    H126270   3.156   6.423   9.068 -1.2338  0.8642  1.2518
 1545TIP3    H226271   3.041   6.373   8.985 -0.0471 -0.0169  0.1049
 1546TIP3   OH226272   5.024   1.407   8.162 -0.0117 -0.4295  0.0586
 1546TIP3    H126273   5.001   1.353   8.086  0.4848 -1.8860  0.9039
 1546TIP3    H226274   4.975   1.488   8.150 -1.9098 -1.6171 -0.5245
 1547TIP3   OH226275   3.981   1.650   9.001 -0.9359 -0.1975 -0.1374
 1547TIP3    H126276   3.949   1.622   9.087 -2.2872  0.3649 -0.4276
 1547TIP3    H226277   4.045   1.583   8.977  0.6004  0.4068  1.9440
 1548TIP3   OH226278   5.170   4.849   1.516  0.1157 -0.2321  0.0366
 1548TIP3    H126279   5.266   4.850   1.512  0.1292  0.3613  0.3920
 1548TIP3    H226280   5.150   4.787   1.586  0.1197 -3.1803 -2.3593
 1549TIP3   OH226281   0.905   2.745   0.402  0.7458 -0.3553  0.9401
 1549TIP3    H126282   0.970   2.784   0.344  2.2183 -3.0107  0.6630
 1549TIP3    H226283   0.945   2.665   0.434 -2.9150 -3.0950 -0.5570
 1550TIP3   OH226284   0.892   4.965   1.744  0.7083  0.2786  0.4325
 1550TIP3    H126285   0.961   4.900   1.760  1.9102  1.6377  0.9544
 1550TIP3    H226286   0.926   5.046   1.783 -0.0379  1.6308 -1.5912
 1551TIP3   OH226287   5.366   4.244   1.928 -0.3988 -0.1554 -0.1580
 1551TIP3    H126288   5.410   4.270   1.847 -1.8609  0.4469 -0.8008
 1551TIP3    H226289   5.292   4.190   1.899 -0.4226 -0.6832  0.8413
 1552TIP3   OH226290   1.245   0.245   0.525 -0.5706 -0.8892  0.2473
 1552TIP3    H126291   1.222   0.266   0.615  0.9772 -2.5032  1.1042
 1552TIP3    H226292   1.169   0.199   0.490 -1.0818 -0.4787  0.8210
 1553TIP3   OH226293   5.057   4.969   3.909 -0.0876 -0.2160  0.3699
 1553TIP3    H126294   4.970   5.002   3.932  0.1642 -0.1705  1.3064
 1553TIP3    H226295   5.101   4.958   3.994  0.3035 -1.6510 -0.0050
 1554TIP3   OH226296   2.227   6.048   1.458 -0.5838  0.0662  0.0169
 1554TIP3    H126297   2.319   6.069   1.439  0.2277 -3.7237 -1.0543
 1554TIP3    H226298   2.189   6.030   1.372 -1.2709 -1.9858  0.7044
 1555TIP3   OH226299   1.115   4.234   2.883 -0.3298 -0.1034 -0.0018
 1555TIP3    H126300   1.121   4.182   2.963  0.9613  0.3656  0.2329
 1555TIP3    H226301   1.203   4.230   2.846  0.2224  2.9215  0.7065
 1556TIP3   OH226302   5.633   5.499   8.162 -0.4279 -0.2220 -0.1571
 1556TIP3    H126303   5.705   5.461   8.112  0.6737 -0.7823  1.7494
 1556TIP3    H226304   5.655   5.592   8.169 -0.8891 -0.0266 -1.1675
 1557TIP3   OH226305   0.199   1.582   9.905  0.0916  0.6721  0.2482
 1557TIP3    H126306   0.204   1.491   9.936  0.8391  1.2702  2.0616
 1557TIP3    H226307   0.256   1.630   9.965 -0.0214  2.2950 -0.8902
 1558TIP3   OH226308   5.522   4.228   2.441 -0.4534 -0.0738 -0.5040
 1558TIP3    H126309   5.513   4.199   2.351 -2.4616  0.5780 -0.5655
 1558TIP3    H226310   5.432   4.240   2.472  0.1910  0.2362  1.4130
 1559TIP3   OH226311   6.126   2.905   0.564  0.0269  0.4078 -0.0412
 1559TIP3    H126312   6.058   2.891   0.499  0.0158  0.3723 -0.0221
 1559TIP3    H226313   6.084   2.958   0.632 -0.0433  0.2039  0.0742
 1560TIP3   OH226314   2.126   1.799   9.422  0.1901 -0.1411  0.7670
 1560TIP3    H126315   2.209   1.830   9.459  0.0300  1.8111 -0.4062
 1560TIP3    H226316   2.122   1.707   9.449  2.5846 -0.2230  1.1357
 1561TIP3   OH226317   4.869   2.821   2.468  0.5097 -0.6656  0.0020
 1561TIP3    H126318   4.799   2.793   2.409  0.5843 -0.5000 -0.1677
 1561TIP3    H226319   4.869   2.757   2.538 -0.1811 -0.3581  0.2897
 1562TIP3   OH226320   4.924   5.829   2.133 -0.7638 -0.0154  0.1778
 1562TIP3    H126321   4.925   5.790   2.045  0.8631  2.0176 -0.7683
 1562TIP3    H226322   4.849   5.889   2.131 -1.6596 -1.0805  0.7413
 1563TIP3   OH226323   4.336   0.835   2.559  0.2162 -0.4277  0.0706
 1563TIP3    H126324   4.367   0.891   2.488  0.4649  0.6208  0.9767
 1563TIP3    H226325   4.370   0.876   2.639 -1.3209 -0.6958  0.9191
 1564TIP3   OH226326   0.488   5.965   9.660  0.4723 -0.2290  0.4211
 1564TIP3    H126327   0.562   5.915   9.624  0.8633  1.1425 -0.7883
 1564TIP3    H226328   0.448   6.007   9.584 -1.1893 -0.4412  1.1432
 1565TIP3   OH226329   5.415   5.187   8.934 -0.3746  0.0489 -0.2709
 1565TIP3    H126330   5.349   5.123   8.904  0.0464 -0.8310  0.6103
 1565TIP3    H226331   5.363   5.258   8.972 -0.8546 -0.7154  0.5794
 1566TIP3   OH226332   3.970   5.391   0.180 -0.4266 -0.0911  0.3204
 1566TIP3    H126333   4.035   5.423   0.118 -1.1795  0.6101 -0.1255
 1566TIP3    H226334   3.956   5.464   0.241  0.3166 -0.7740  1.3535
 1567TIP3   OH226335   1.788   6.217   1.360  0.1389 -0.2327  0.4227
 1567TIP3    H126336   1.838   6.253   1.286 -0.4006  0.4943  0.3967
 1567TIP3    H226337   1.854   6.183   1.420  0.5701 -1.5215 -0.7277
 1568TIP3   OH226338   2.656   4.969   8.888  0.9921  0.5132 -0.0945
 1568TIP3    H126339   2.696   4.937   8.969 -0.0131 -0.7535 -0.0688
 1568TIP3    H226340   2.692   4.912   8.820  1.2001  1.0428 -0.4347
 1569TIP3   OH226341   2.387   3.703   0.455  0.1545  0.4702  0.3056
 1569TIP3    H126342   2.431   3.697   0.540 -0.0038  0.0156  0.3611
 1569TIP3    H226343   2.458   3.704   0.391  0.3254  2.0727  0.4836
 1570TIP3   OH226344   0.071   1.581   1.359 -0.4418 -0.3055  0.3366
 1570TIP3    H126345   0.123   1.521   1.305  0.0538  1.8239 -1.7269
 1570TIP3    H226346   0.110   1.574   1.446  3.2071  0.8735 -1.0155
 1571TIP3   OH226347   4.674   1.729   9.190  0.2578  0.2583 -0.2231
 1571TIP3    H126348   4.626   1.767   9.117 -0.3501 -0.4044 -0.1802
 1571TIP3    H226349   4.635   1.643   9.202  1.1991 -0.1458  0.0708
 1572TIP3   OH226350   1.258   2.674   1.934 -0.2960 -0.0284 -0.0679
 1572TIP3    H126351   1.232   2.613   2.002  1.3909 -1.1922 -0.4062
 1572TIP3    H226352   1.282   2.754   1.981 -4.5328  1.3228  0.2623
 1573TIP3   OH226353   3.812   4.173   2.562 -0.4206  0.6761  0.1224
 1573TIP3    H126354   3.789   4.184   2.470 -0.0929 -0.9056 -0.1884
 1573TIP3    H226355   3.737   4.126   2.599  0.4436 -0.8457  0.0580
 1574TIP3   OH226356   1.744   3.291   9.816  0.1470 -0.0494 -0.0124
 1574TIP3    H126357   1.775   3.288   9.906  1.2238 -2.2110 -0.3919
 1574TIP3    H226358   1.747   3.200   9.786 -2.6841  0.2113 -1.4340
 1575TIP3   OH226359   5.090   2.576   8.879 -0.2593 -0.3252 -0.0374
 1575TIP3    H126360   5.004   2.540   8.857 -0.1747 -0.0080 -0.9251
 1575TIP3    H226361   5.085   2.668   8.855 -0.4981  0.3501  2.3025
 1576TIP3   OH226362   5.056   4.733   9.994 -0.3334 -0.2835 -0.3732
 1576TIP3    H126363   5.106   4.764   9.918 -1.5830 -1.8222 -1.9139
 1576TIP3    H226364   5.086   4.643  10.007 -0.6717 -0.2750  0.4762
 1577TIP3   OH226365   2.778   5.973   9.855 -0.1864  0.1080 -0.6030
 1577TIP3    H126366   2.834   5.949   9.929  0.1698  1.4931 -0.3954
 1577TIP3    H226367   2.690   5.952   9.884  0.0332 -0.1494 -0.1076
 1578TIP3   OH226368   2.805   3.787   0.813  0.8095 -0.1258  0.1301
 1578TIP3    H126369   2.842   3.864   0.857 -0.5374 -0.1549  1.4094
 1578TIP3    H226370   2.711   3.797   0.823  0.5842 -1.6011 -0.2722
 1579TIP3   OH226371   3.159   3.956   3.619 -0.3480  0.1880  0.1324
 1579TIP3    H126372   3.213   4.007   3.680  0.1291 -0.5163  0.3112
 1579TIP3    H226373   3.104   3.901   3.674 -1.7544  1.3604 -0.0330
 1580TIP3   OH226374   4.087   4.528   9.302 -0.4089 -0.4133  0.9480
 1580TIP3    H126375   3.994   4.513   9.283 -1.0379  1.4737  2.2207
 1580TIP3    H226376   4.087   4.605   9.359  2.0700  0.9590 -0.7043
 1581TIP3   OH226377   0.637   5.179   2.411  0.0309  0.0928  0.2254
 1581TIP3    H126378   0.695   5.237   2.459  1.2534 -1.7941  1.1556
 1581TIP3    H226379   0.582   5.138   2.478 -0.4788 -0.1955 -0.3537
 1582TIP3   OH226380   4.691   6.014   3.844  0.4629  0.0743  0.1631
 1582TIP3    H126381   4.612   6.005   3.791  0.9416 -1.4033 -0.3443
 1582TIP3    H226382   4.724   6.101   3.822  0.2527 -0.2231 -1.4523
 1583TIP3   OH226383   5.114   5.296   8.519 -0.6949  0.3863  0.3222
 1583TIP3    H126384   5.118   5.221   8.578  0.8792 -0.8051 -1.1945
 1583TIP3    H226385   5.174   5.360   8.557  0.1590 -0.2941  0.1398
 1584TIP3   OH226386   0.383   0.223   8.841  0.2816 -0.4201  0.5305
 1584TIP3    H126387   0.300   0.267   8.821  1.7220  1.3846 -2.0842
 1584TIP3    H226388   0.431   0.287   8.894  1.3682  0.1389 -1.0608
 1585TIP3   OH226389   5.834   5.319   2.380  0.7155 -0.6605 -0.0186
 1585TIP3    H126390   5.816   5.404   2.420  2.4425  0.4810 -1.5003
 1585TIP3    H226391   5.754   5.298   2.331  1.0361  1.2837 -1.4999
 1586TIP3   OH226392   3.757   1.793   2.284  0.3448  0.1589 -0.1303
 1586TIP3    H126393   3.843   1.795   2.326 -0.0135  1.4922  0.6086
 1586TIP3    H226394   3.703   1.740   2.342  0.5992 -0.4833 -0.4722
 1587TIP3   OH226395   6.103   5.294   0.502 -0.0995  0.1779 -0.6164
 1587TIP3    H126396   6.185   5.284   0.455  0.3886  0.8422  0.0580
 1587TIP3    H226397   6.107   5.383   0.538 -0.4540 -0.3039  0.6632
 1588TIP3   OH226398   0.469   1.781   1.863  0.5346 -0.6887  0.1332
 1588TIP3    H126399   0.463   1.873   1.887  0.5613 -0.3697 -1.0250
 1588TIP3    H226400   0.488   1.736   1.945  0.3251  0.3101  0.7461
 1589TIP3   OH226401   3.179   5.268   1.601 -0.0696 -0.1351 -0.2546
 1589TIP3    H126402   3.229   5.343   1.568  1.0786 -1.1176 -0.8133
 1589TIP3    H226403   3.242   5.219   1.654 -0.9854 -0.3831  0.6377
 1590TIP3   OH226404   4.978   2.833   2.812  0.1721  1.0007  0.3505
 1590TIP3    H126405   4.931   2.812   2.892  0.6731  1.3005  0.7317
 1590TIP3    H226406   4.970   2.755   2.758 -2.2330  1.6310 -0.3379
 1591TIP3   OH226407   3.886   4.650   3.609 -0.1600  0.3765  0.3980
 1591TIP3    H126408   3.961   4.669   3.552  0.0076  0.8228  0.7609
 1591TIP3    H226409   3.899   4.707   3.685 -0.3847 -0.2104  0.8784
 1592TIP3   OH226410   0.642   0.698   0.400 -0.0963  0.0279 -0.3423
 1592TIP3    H126411   0.730   0.724   0.428 -0.8161  0.9465  1.1681
 1592TIP3    H226412   0.657   0.647   0.320  1.7571  0.6777 -0.4613
 1593TIP3   OH226413   0.635   4.774   2.846  0.6963  0.2200  0.1067
 1593TIP3    H126414   0.660   4.836   2.914 -0.5187  0.0238  0.7657
 1593TIP3    H226415   0.539   4.770   2.851  0.7497 -2.9870  1.3027
 1594TIP3   OH226416   0.075   5.770   2.437  0.1560  0.3406 -0.0356
 1594TIP3    H126417  -0.007   5.735   2.473 -0.8441  2.2935 -0.2986
 1594TIP3    H226418   0.137   5.764   2.509 -0.6095  0.1358  0.6276
 1595TIP3   OH226419   5.074   1.102   0.440  0.0519 -0.0972  0.2067
 1595TIP3    H126420   4.989   1.147   0.435  0.9245  1.4672 -1.7656
 1595TIP3    H226421   5.059   1.018   0.398 -0.5687  0.0682  0.0802
 1596TIP3   OH226422   5.666   0.072   0.134  0.3435 -0.4972  0.5520
 1596TIP3    H126423   5.672   0.163   0.106  0.1575 -1.0234 -1.3426
 1596TIP3    H226424   5.590   0.070   0.192 -0.7418  0.2645 -0.7739
 1597TIP3   OH226425   0.968   3.949   2.887 -0.2787 -0.2961  0.3204
 1597TIP3    H126426   0.960   4.031   2.839 -1.6529 -0.9330 -0.6329
 1597TIP3    H226427   0.940   3.970   2.976  0.8832  0.5807  0.5056
 1598TIP3   OH226428   0.304   4.613   8.679 -0.0449  0.8536 -0.1962
 1598TIP3    H126429   0.256   4.696   8.684 -0.8062  0.3975  0.3759
 1598TIP3    H226430   0.299   4.577   8.767 -1.0884 -0.5251 -0.7746
 1599TIP3   OH226431   5.950   6.044   1.627 -0.6468 -0.0104  0.4671
 1599TIP3    H126432   5.916   6.114   1.571  2.3078  1.6393  0.4820
 1599TIP3    H226433   5.894   6.045   1.704 -1.9856  0.8370 -0.4767
 1600TIP3   OH226434   2.971   4.196   8.868 -0.7032  0.6590 -0.1515
 1600TIP3    H126435   3.061   4.224   8.885 -0.7621  0.1493  1.0836
 1600TIP3    H226436   2.973   4.161   8.779  1.1649 -2.5856  1.0217
 1601TIP3   OH226437   1.583   3.676   8.416 -0.2577  0.3885  0.0876
 1601TIP3    H126438   1.617   3.671   8.505 -0.7350  1.4188  0.3492
 1601TIP3    H226439   1.646   3.627   8.363 -0.1303 -0.4936  1.0288
 1602TIP3   OH226440   4.908   1.646   8.102  0.4938  0.4316  0.2165
 1602TIP3    H126441   4.818   1.674   8.118 -0.1175 -0.0442 -1.9815
 1602TIP3    H226442   4.960   1.725   8.116 -0.3702  0.9331  0.7144
 1603TIP3   OH226443   1.352   1.037   7.777  0.7821 -0.7207 -0.1151
 1603TIP3    H126444   1.305   1.002   7.701  0.8296 -0.1207 -0.4228
 1603TIP3    H226445   1.283   1.075   7.832  0.8406 -0.4179 -0.2536
 1604TIP3   OH226446   2.717   5.278   2.833 -0.5760  0.3083 -0.3377
 1604TIP3    H126447   2.739   5.313   2.919 -1.5136 -0.1121  0.0906
 1604TIP3    H226448   2.767   5.197   2.827  1.1386  1.3833 -1.0876
 1605TIP3   OH226449   4.983   5.372   1.213 -0.0850  0.5086  0.2698
 1605TIP3    H126450   4.987   5.443   1.149  0.7283  0.5707  0.3789
 1605TIP3    H226451   5.070   5.370   1.252 -0.4732  0.2533  1.1487
 1606TIP3   OH226452   0.560   0.216   0.859 -0.7963 -0.8701 -0.5292
 1606TIP3    H126453   0.581   0.140   0.805 -0.5734 -0.9883 -0.2775
 1606TIP3    H226454   0.643   0.264   0.865 -1.0790 -0.2872 -1.1940
 1607TIP3   OH226455   4.530   3.875   1.484 -0.0559  0.0919 -0.5475
 1607TIP3    H126456   4.486   3.880   1.569  0.0916 -1.0002 -0.3889
 1607TIP3    H226457   4.458   3.865   1.421 -0.0741 -1.3077 -0.3250
 1608TIP3   OH226458   3.026   3.537   8.795  0.4274  0.1324 -0.5083
 1608TIP3    H126459   3.062   3.457   8.831 -0.9589 -1.2756 -2.0727
 1608TIP3    H226460   3.098   3.575   8.744  1.6197  0.8590  1.5797
 1609TIP3   OH226461   5.802   2.687   3.249 -0.4072 -0.2975  0.1610
 1609TIP3    H126462   5.865   2.644   3.190 -0.8396  0.0791 -0.5886
 1609TIP3    H226463   5.856   2.735   3.311  0.0963 -1.9118  1.0238
 1610TIP3   OH226464   2.543   4.619   9.306  0.6666 -0.2761  0.3850
 1610TIP3    H126465   2.622   4.653   9.349  0.5695  0.2422  0.1657
 1610TIP3    H226466   2.489   4.585   9.378  0.2636  1.0695  0.7509
 1611TIP3   OH226467   5.096   0.726   9.166 -0.3820  0.6784 -0.2989
 1611TIP3    H126468   5.028   0.753   9.105 -1.1319 -0.4678 -0.0130
 1611TIP3    H226469   5.054   0.730   9.252 -1.0814 -2.6886 -0.3470
 1612TIP3   OH226470   5.903   4.950   0.367 -0.2264 -0.1085  0.2826
 1612TIP3    H126471   5.959   4.872   0.363 -0.5998 -0.3253 -0.8287
 1612TIP3    H226472   5.815   4.916   0.383 -0.1244  0.2200  1.7565
 1613TIP3   OH226473   5.835   5.398   8.805 -0.5508 -0.1276 -0.0343
 1613TIP3    H126474   5.826   5.351   8.721  0.4937  2.1880 -1.5458
 1613TIP3    H226475   5.750   5.437   8.819 -0.1839  1.1657 -1.1622
 1614TIP3   OH226476   3.048   5.074   0.874 -0.5436 -0.0545 -0.2154
 1614TIP3    H126477   3.071   5.156   0.918 -2.3444 -0.0549  0.8387
 1614TIP3    H226478   3.097   5.007   0.922 -1.1490  0.1400  0.7108
 1615TIP3   OH226479   5.713   4.992   1.169 -0.3736  0.3494  0.1472
 1615TIP3    H126480   5.708   5.054   1.241 -2.5875 -0.8817  1.1619
 1615TIP3    H226481   5.685   5.042   1.092 -1.8667  0.7379  0.9032
 1616TIP3   OH226482   4.165   6.400   1.291 -0.0286 -0.4134 -0.1459
 1616TIP3    H126483   4.226   6.377   1.361  0.8908 -1.1308 -1.1555
 1616TIP3    H226484   4.082   6.362   1.319 -0.1333  0.8568  1.4088
 1617TIP3   OH226485   3.704   4.532   9.692 -0.5250 -0.0031  0.3702
 1617TIP3    H126486   3.677   4.498   9.777  0.0151  3.0043  1.8490
 1617TIP3    H226487   3.796   4.509   9.684 -0.2371  0.8052  1.2237
 1618TIP3   OH226488   4.423   5.786   0.430 -0.3818  0.1854 -0.0239
 1618TIP3    H126489   4.360   5.796   0.501 -0.6805  1.2745 -0.4216
 1618TIP3    H226490   4.509   5.783   0.473 -0.2608  3.9060  0.2974
 1619TIP3   OH226491   1.797   2.576   1.928  0.1342  0.1446  0.3461
 1619TIP3    H126492   1.835   2.511   1.869  0.0215 -0.0367  0.4768
 1619TIP3    H226493   1.744   2.526   1.990 -0.2900  0.3965  0.1888
 1620TIP3   OH226494   1.973   2.396   2.175 -0.6803 -0.0201  0.0614
 1620TIP3    H126495   1.972   2.492   2.178  1.1837  0.2417 -2.8830
 1620TIP3    H226496   1.972   2.369   2.267 -1.2184  2.8036  0.9886
 1621TIP3   OH226497   0.230   3.540   0.085  0.1878  0.1061 -0.0548
 1621TIP3    H126498   0.176   3.566   0.011  2.1521  0.0624 -1.5802
 1621TIP3    H226499   0.185   3.464   0.122 -0.9599  0.2834 -1.0323
 1622TIP3   OH226500   1.781   4.678   2.480  0.4078  0.0308  0.2566
 1622TIP3    H126501   1.696   4.658   2.520  0.8072 -0.0273  1.0768
 1622TIP3    H226502   1.845   4.632   2.534  0.8922 -0.7843 -0.9620
 1623TIP3   OH226503   1.653   2.353   0.656 -0.0038 -0.1542  0.0955
 1623TIP3    H126504   1.564   2.324   0.677  0.1709 -1.4774 -0.8693
 1623TIP3    H226505   1.684   2.396   0.736 -1.2216 -0.3802  0.7098
 1624TIP3   OH226506   4.121   5.851   0.129  0.5158 -0.0290 -0.4208
 1624TIP3    H126507   4.081   5.843   0.042 -0.9634 -1.3535  0.3179
 1624TIP3    H226508   4.099   5.940   0.157 -1.4212 -0.4809 -0.3385
 1625TIP3   OH226509   0.564   2.603   1.512 -0.4660 -0.0457 -0.0535
 1625TIP3    H126510   0.559   2.508   1.509  0.1494 -0.1081  0.7238
 1625TIP3    H226511   0.611   2.623   1.593 -2.2001  0.9809  0.7576
 1626TIP3   OH226512   4.032   1.613   9.630 -1.1712  0.2196 -0.4232
 1626TIP3    H126513   4.033   1.682   9.697 -0.6757  1.3909 -1.5736
 1626TIP3    H226514   4.123   1.584   9.626 -1.3459 -0.3935 -0.0696
 1627TIP3   OH226515   3.976   4.077   2.117  0.5465  0.3756  0.1190
 1627TIP3    H126516   4.036   4.054   2.188  0.1571 -0.8810  0.0663
 1627TIP3    H226517   4.032   4.118   2.051  1.4254 -0.9891 -0.0400
 1628TIP3   OH226518   2.738   0.603   1.678  0.5849 -0.2348  0.0347
 1628TIP3    H126519   2.793   0.670   1.719 -0.6988  1.5517 -0.9666
 1628TIP3    H226520   2.729   0.535   1.744 -1.0201  2.2792  2.6990
 1629TIP3   OH226521   2.647   1.226   9.095  0.3104  0.2403  0.5210
 1629TIP3    H126522   2.666   1.272   9.014 -1.5783  0.6291  0.2555
 1629TIP3    H226523   2.732   1.191   9.124  0.8178 -1.2747 -2.4447
 1630TIP3   OH226524   4.708   3.211   9.920  0.1375 -0.1919 -0.3488
 1630TIP3    H126525   4.696   3.298   9.958 -1.4812 -0.7956  0.6366
 1630TIP3    H226526   4.669   3.152   9.984  0.0923 -1.5317 -1.5759
 1631TIP3   OH226527   0.536   0.371   1.982 -0.8594  0.0834 -0.6590
 1631TIP3    H126528   0.539   0.458   2.023 -0.5784  0.3234 -1.1807
 1631TIP3    H226529   0.480   0.382   1.906  0.6626  0.2799 -1.7940
 1632TIP3   OH226530   4.827   0.871   0.993  0.2099  0.0631 -0.7762
 1632TIP3    H126531   4.810   0.946   1.050 -0.3486  0.6681 -1.7203
 1632TIP3    H226532   4.895   0.822   1.039  0.7828  1.2834 -0.2595
 1633TIP3   OH226533   6.158   4.742   8.823 -0.3653 -0.0445 -0.3644
 1633TIP3    H126534   6.242   4.780   8.796  0.6252 -1.4367  0.5714
 1633TIP3    H226535   6.161   4.744   8.919 -2.5782  2.2693 -0.2621
 1634TIP3   OH226536   1.300   0.737   9.939 -0.6829 -0.3253  0.4150
 1634TIP3    H126537   1.206   0.755   9.934 -0.9464 -0.9320  2.5617
 1634TIP3    H226538   1.308   0.660   9.995  1.0399 -1.0956 -0.7807
 1635TIP3   OH226539   3.852   0.955   9.862 -0.7104  0.4820  0.4971
 1635TIP3    H126540   3.795   0.883   9.836  2.4868 -1.1057 -3.0054
 1635TIP3    H226541   3.907   0.917   9.931 -0.7488  0.4785  0.5262
 1636TIP3   OH226542   1.942   3.993   2.666 -0.3913  0.4390  0.4924
 1636TIP3    H126543   2.013   4.046   2.630 -1.2023  0.8174 -0.6053
 1636TIP3    H226544   1.977   3.904   2.668 -0.7793  0.0921 -2.7697
 1637TIP3   OH226545   4.628   4.372   1.488 -0.5930  0.0698 -0.3501
 1637TIP3    H126546   4.601   4.458   1.458 -1.6231  0.5245  1.6948
 1637TIP3    H226547   4.550   4.317   1.476 -0.6876  0.0120  0.4622
 1638TIP3   OH226548   3.705   2.538   3.532 -0.3102 -0.1089 -0.0299
 1638TIP3    H126549   3.785   2.507   3.575 -0.1399 -0.2290 -0.4329
 1638TIP3    H226550   3.736   2.592   3.459 -0.5653 -1.4836 -1.1946
 1639TIP3   OH226551   2.487   3.289   9.806  0.3266 -0.2621  0.4673
 1639TIP3    H126552   2.422   3.238   9.758  0.5804 -0.0789 -0.0861
 1639TIP3    H226553   2.568   3.280   9.755  1.1585 -1.7579  1.9535
 1640TIP3   OH226554   0.197   4.580   3.254  0.4253  0.3511  0.3790
 1640TIP3    H126555   0.237   4.500   3.289  1.0772  0.8188  0.7087
 1640TIP3    H226556   0.270   4.629   3.216 -0.1657  0.1752 -1.0482
 1641TIP3   OH226557   2.791   2.139   0.443 -0.0399 -0.0180  0.0888
 1641TIP3    H126558   2.743   2.150   0.361  0.4227 -0.7216 -0.2845
 1641TIP3    H226559   2.771   2.050   0.471 -0.3091  0.2634  0.8237
 1642TIP3   OH226560   0.216   2.477   0.616 -0.0195 -0.1153  0.0694
 1642TIP3    H126561   0.212   2.447   0.525 -0.9606  2.1303 -0.7029
 1642TIP3    H226562   0.304   2.513   0.625 -0.6339  1.7162 -0.7271
 1643TIP3   OH226563   2.856   2.871   1.740 -0.0552 -0.2761  0.3837
 1643TIP3    H126564   2.856   2.886   1.835 -0.4909  0.9493  0.2159
 1643TIP3    H226565   2.948   2.854   1.718  0.2373  0.5819  0.8771
 1644TIP3   OH226566   1.027   1.119   7.718 -0.0743  0.2069 -1.1265
 1644TIP3    H126567   1.082   1.072   7.655 -0.8504 -2.9117  0.3753
 1644TIP3    H226568   1.090   1.170   7.770  0.8162  0.7931 -2.6831
 1645TIP3   OH226569   5.262   2.403   8.411  0.3281 -0.8543 -0.7529
 1645TIP3    H126570   5.238   2.492   8.434 -1.1545 -1.3067 -0.4827
 1645TIP3    H226571   5.356   2.409   8.389  1.0064  0.2182  2.0320
 1646TIP3   OH226572   5.189   2.853   0.603  0.5048  0.3924  0.0123
 1646TIP3    H126573   5.269   2.901   0.580  0.3615  1.0737  0.8737
 1646TIP3    H226574   5.191   2.848   0.699  0.5545 -1.4159 -0.0437
 1647TIP3   OH226575   4.861   2.962   9.284 -0.7275 -0.0492 -1.0463
 1647TIP3    H126576   4.847   2.921   9.369  2.3232 -0.3936 -0.5958
 1647TIP3    H226577   4.814   3.045   9.290 -2.1147 -0.8773  0.2354
 1648TIP3   OH226578   3.371   5.873   9.554  0.1634  0.5696 -0.1694
 1648TIP3    H126579   3.351   5.799   9.613 -2.1024  0.2262 -1.2776
 1648TIP3    H226580   3.381   5.948   9.613 -2.8051  0.3942  0.6871
 1649TIP3   OH226581   3.179   0.688   8.200  0.2282  0.0867 -0.0579
 1649TIP3    H126582   3.136   0.707   8.116 -1.5253  0.7015  0.9354
 1649TIP3    H226583   3.143   0.603   8.227  1.3444 -0.4688 -0.2444
 1650TIP3   OH226584   0.712   4.907   0.480  0.8979  0.1610  0.1013
 1650TIP3    H126585   0.714   4.931   0.573 -1.4902 -0.5392  0.4226
 1650TIP3    H226586   0.702   4.811   0.480  0.7484  0.1650 -0.8505
 1651TIP3   OH226587   4.984   1.868   1.363 -0.1760  0.7147  0.3212
 1651TIP3    H126588   4.940   1.826   1.289  2.7249 -2.4441  0.1400
 1651TIP3    H226589   4.947   1.826   1.440  1.0999 -0.5605  0.2665
 1652TIP3   OH226590   3.655   3.549   0.357  0.2206 -0.8778  0.0498
 1652TIP3    H126591   3.660   3.559   0.452  0.1376 -2.7069  0.2754
 1652TIP3    H226592   3.628   3.459   0.343 -0.4136 -0.4704 -1.7174
 1653TIP3   OH226593   2.828   2.316   3.332  0.3003  0.6142  0.1591
 1653TIP3    H126594   2.891   2.371   3.378  0.7222  0.8366 -0.6727
 1653TIP3    H226595   2.881   2.248   3.291 -0.1002  0.2735  0.2006
 1654TIP3   OH226596   5.496   2.570   2.120  0.0878 -0.3751 -0.0888
 1654TIP3    H126597   5.479   2.595   2.210  0.0606 -2.3945  0.5095
 1654TIP3    H226598   5.590   2.584   2.109  0.2025 -0.6916  0.4570
 1655TIP3   OH226599   0.346   6.395   1.041 -0.7459 -0.5434  0.6405
 1655TIP3    H126600   0.277   6.329   1.037 -0.3143 -0.9574 -0.6610
 1655TIP3    H226601   0.371   6.398   1.133 -1.2147 -1.7412  0.8254
 1656TIP3   OH226602   3.235   3.149   2.467  0.1125 -0.0770  1.0586
 1656TIP3    H126603   3.248   3.074   2.408  0.6191  1.1252 -0.4249
 1656TIP3    H226604   3.288   3.129   2.544  0.4455 -1.1253  0.5698
 1657TIP3   OH226605   0.714   1.292   0.258  0.5963  0.6895  0.2287
 1657TIP3    H126606   0.673   1.334   0.333  0.1657 -0.1437  0.4703
 1657TIP3    H226607   0.764   1.362   0.216  0.3396  1.3082  0.9295
 1658TIP3   OH226608   1.963   6.377   9.441  0.5110 -0.2470  0.2605
 1658TIP3    H126609   2.019   6.454   9.454  1.4685 -1.0237  0.9020
 1658TIP3    H226610   1.933   6.385   9.351  0.6277  0.8506  0.2936
 1659TIP3   OH226611   2.222   3.299   9.467  0.2537  0.4363  0.0961
 1659TIP3    H126612   2.221   3.237   9.540  0.1692 -0.0346 -0.3007
 1659TIP3    H226613   2.297   3.272   9.414 -0.9536 -0.6079 -1.1578
 1660TIP3   OH226614   6.412   4.232   9.143  0.5895  0.0245 -0.1836
 1660TIP3    H126615   6.493   4.210   9.096 -0.0821 -1.5150 -0.6823
 1660TIP3    H226616   6.355   4.156   9.128 -1.4228  1.6088 -0.9017
 1661TIP3   OH226617   1.213   2.231   9.554  0.4807  0.3768  0.1143
 1661TIP3    H126618   1.200   2.166   9.623 -0.4583 -0.1923 -0.5797
 1661TIP3    H226619   1.126   2.268   9.538  0.9855  1.7895  0.4607
 1662TIP3   OH226620   0.997   0.038   9.231 -0.2439 -0.3018 -0.1864
 1662TIP3    H126621   0.981   0.050   9.325 -1.1756  1.8212 -0.5623
 1662TIP3    H226622   1.030   0.123   9.202 -0.2036 -0.8589 -1.8301
 1663TIP3   OH226623   0.676   6.258   7.498 -0.3841 -0.6823  0.3573
 1663TIP3    H126624   0.697   6.276   7.406  0.9161  0.2989  0.8068
 1663TIP3    H226625   0.760   6.237   7.538 -0.8328 -0.4653  1.4499
 1664TIP3   OH226626   3.970   4.022   3.681 -0.2686 -0.1659 -0.1446
 1664TIP3    H126627   3.940   4.070   3.604  0.3474  1.7692  0.7382
 1664TIP3    H226628   3.973   4.089   3.750 -0.6349 -1.7891  1.5140
 1665TIP3   OH226629   2.557   2.361   3.331  0.3152  0.0572  0.5517
 1665TIP3    H126630   2.651   2.348   3.344  0.5882  1.9364  0.8009
 1665TIP3    H226631   2.526   2.392   3.416 -0.7066 -1.2949  0.6968
 1666TIP3   OH226632   4.776   2.312   0.047  0.7399  0.0566 -0.4000
 1666TIP3    H126633   4.788   2.314   0.142 -0.7454  1.5195 -0.2071
 1666TIP3    H226634   4.722   2.235   0.031  1.1164 -0.2769 -0.0921
 1667TIP3   OH226635   4.633   6.263   2.245  0.5508 -0.3875 -0.2432
 1667TIP3    H126636   4.669   6.314   2.172 -3.1259  0.5828 -1.6033
 1667TIP3    H226637   4.647   6.317   2.322 -0.8018  1.5339 -1.2465
 1668TIP3   OH226638   4.759   5.015   3.333 -0.1874 -0.3780 -0.1726
 1668TIP3    H126639   4.712   4.934   3.319  0.1686 -0.6219  0.0286
 1668TIP3    H226640   4.847   4.988   3.358  0.4131  0.0561 -1.6857
 1669TIP3   OH226641   2.310   1.296   9.934  0.6787  0.9168  0.2351
 1669TIP3    H126642   2.326   1.268   9.844  2.3464 -0.0242  0.7791
 1669TIP3    H226643   2.228   1.253   9.958  1.7982 -1.4354  0.1445
 1670TIP3   OH226644   4.170   5.344   8.370 -0.5214  0.0006  0.3927
 1670TIP3    H126645   4.242   5.329   8.431 -1.4517 -0.4591  1.4150
 1670TIP3    H226646   4.170   5.438   8.354 -0.7741  0.2559  1.7868
 1671TIP3   OH226647   2.952   4.993   9.402 -0.2983 -0.0035 -0.1262
 1671TIP3    H126648   2.946   4.907   9.361 -0.8867 -0.6037  1.1837
 1671TIP3    H226649   3.013   4.981   9.475 -2.1915  0.0317  1.5608
 1672TIP3   OH226650   5.795   2.653   2.342 -0.6879  0.3906 -0.0073
 1672TIP3    H126651   5.798   2.637   2.247 -0.1696 -0.5398  0.1463
 1672TIP3    H226652   5.886   2.643   2.370 -0.5826  2.1842  0.3808
 1673TIP3   OH226653   2.677   4.062   9.510  0.1286 -0.8141 -0.2543
 1673TIP3    H126654   2.622   4.084   9.434  2.6390 -0.7764 -2.2146
 1673TIP3    H226655   2.670   3.967   9.518  1.2479 -1.0647 -1.7887
 1674TIP3   OH226656   2.409   1.740   9.900  0.1223 -0.1808 -0.0237
 1674TIP3    H126657   2.499   1.772   9.896  0.4949 -1.2141 -0.1958
 1674TIP3    H226658   2.400   1.705   9.989 -0.3956  0.6914  0.2824
 1675TIP3   OH226659   5.889   5.832   2.288  0.1589  0.4482 -0.7494
 1675TIP3    H126660   5.861   5.747   2.320  0.6532 -0.1043 -1.7515
 1675TIP3    H226661   5.983   5.825   2.278  0.0485  0.6186 -2.2029
 1676TIP3   OH226662   5.652   3.254   2.713  0.4987 -0.1803 -0.1529
 1676TIP3    H126663   5.644   3.341   2.672  1.2075  0.3639  0.8120
 1676TIP3    H226664   5.618   3.266   2.802  0.7553 -0.8506  0.0410
 1677TIP3   OH226665   5.198   2.996   1.338  0.4250  0.6375 -0.3028
 1677TIP3    H126666   5.204   3.091   1.329 -0.6462  0.7770  0.2978
 1677TIP3    H226667   5.264   2.974   1.403 -0.4971  1.2149  0.8832
 1678TIP3   OH226668   6.360   5.734   1.270 -0.0439 -0.2143 -0.2810
 1678TIP3    H126669   6.280   5.688   1.246 -0.6442  1.1075 -0.9176
 1678TIP3    H226670   6.330   5.818   1.306  1.0058 -0.4477  1.2284
 1679TIP3   OH226671   1.803   1.480   1.343  0.2820  0.0087 -0.4905
 1679TIP3    H126672   1.766   1.395   1.364  0.4405  0.2279  0.7248
 1679TIP3    H226673   1.893   1.461   1.316 -0.2225 -0.3727 -2.0192
 1680TIP3   OH226674   5.804   0.186   3.137  0.5745  0.4982 -0.8556
 1680TIP3    H126675   5.860   0.166   3.213  1.4950  1.5636 -1.2296
 1680TIP3    H226676   5.740   0.115   3.136  1.3078 -0.2187  0.1823
 1681TIP3   OH226677   2.650   0.021   7.264 -0.2979  0.2493 -0.2030
 1681TIP3    H126678   2.623   0.083   7.196  1.5091  0.2573 -0.9728
 1681TIP3    H226679   2.697   0.075   7.327  0.3218 -0.1527 -0.3117
 1682TIP3   OH226680   5.264   3.488   2.084  0.3420 -0.1110  0.2575
 1682TIP3    H126681   5.240   3.441   2.003  0.7210 -1.6186  0.9808
 1682TIP3    H226682   5.349   3.527   2.065  2.6013 -4.0380  1.1771
 1683TIP3   OH226683   6.026   3.295   9.995 -0.0670 -0.2792  0.4800
 1683TIP3    H126684   5.973   3.362  10.038  0.9871  0.9745 -0.1241
 1683TIP3    H226685   6.092   3.270  10.061 -0.9825 -1.4015  1.0159
 1684TIP3   OH226686   5.973   0.355   2.987 -0.3981  0.3981 -0.1895
 1684TIP3    H126687   5.917   0.286   3.024  0.6912 -0.0494  0.6766
 1684TIP3    H226688   6.056   0.311   2.968 -0.4297  0.9823 -1.7502
 1685TIP3   OH226689   2.728   4.103   7.922  0.1756  0.3807  0.1485
 1685TIP3    H126690   2.671   4.034   7.955  0.6275 -0.0278  0.0909
 1685TIP3    H226691   2.809   4.058   7.898 -0.0169  0.7146 -1.1951
 1686TIP3   OH226692   3.276   2.961   0.294 -0.5034  0.1762 -0.0989
 1686TIP3    H126693   3.253   2.871   0.274  0.2468 -0.3715  1.3849
 1686TIP3    H226694   3.370   2.960   0.312  0.1226  1.7735 -2.7103
 1687TIP3   OH226695   4.060   1.911   2.683 -0.2392 -0.4018 -0.2397
 1687TIP3    H126696   3.994   1.842   2.693 -1.3328  0.5479 -0.7485
 1687TIP3    H226697   4.069   1.923   2.589 -0.2802  0.3599 -0.1489
 1688TIP3   OH226698   5.515   2.764   3.075 -0.1373  0.6998  0.0207
 1688TIP3    H126699   5.563   2.845   3.094  0.9874  0.0666 -0.0876
 1688TIP3    H226700   5.582   2.697   3.068 -1.1274 -0.4530  1.1153
 1689TIP3   OH226701   6.413   5.888   8.652  0.0571 -0.4724 -0.0351
 1689TIP3    H126702   6.396   5.823   8.584 -1.0676 -0.0846 -0.1412
 1689TIP3    H226703   6.505   5.911   8.640  0.3108 -1.6017 -0.3715
 1690TIP3   OH226704   6.195   1.968   0.363  0.3062 -0.4158  0.2502
 1690TIP3    H126705   6.213   1.968   0.457  2.6063 -1.8545 -0.1034
 1690TIP3    H226706   6.206   1.877   0.337 -2.6596 -0.5037 -1.0890
 1691TIP3   OH226707   1.665   4.668   2.822  0.1829 -0.1364  0.4200
 1691TIP3    H126708   1.639   4.717   2.744 -1.9249 -0.2995  0.9716
 1691TIP3    H226709   1.752   4.633   2.800 -0.5623 -0.6075 -2.0345
 1692TIP3   OH226710   2.022   5.923   0.893  0.0338 -0.3149  0.4906
 1692TIP3    H126711   2.049   5.854   0.953 -0.9518 -0.5330  0.7007
 1692TIP3    H226712   1.967   5.981   0.946 -1.9450 -1.2170 -0.4732
 1693TIP3   OH226713   0.159   0.540   1.553 -0.1173 -0.2364 -0.8356
 1693TIP3    H126714   0.253   0.522   1.550 -0.5252 -2.4784 -2.5406
 1693TIP3    H226715   0.122   0.468   1.605 -0.9013  0.7520  0.0244
 1694TIP3   OH226716   6.277   3.978   8.554 -0.0725  0.2534 -0.0448
 1694TIP3    H126717   6.296   3.885   8.568  1.7001  0.3317 -1.5219
 1694TIP3    H226718   6.188   3.978   8.518  0.3205 -1.0225 -1.1481
 1695TIP3   OH226719   3.552   0.444   0.739  0.2214  0.1646  0.2737
 1695TIP3    H126720   3.584   0.534   0.727 -0.4496  0.4546  0.6233
 1695TIP3    H226721   3.541   0.410   0.650 -0.0732  0.6277  0.1329
 1696TIP3   OH226722   1.410   4.502   2.849 -0.6417  0.4603  0.4038
 1696TIP3    H126723   1.363   4.437   2.903  0.4208 -0.3691  0.3531
 1696TIP3    H226724   1.485   4.454   2.814  1.1864  2.1595  1.7918
 1697TIP3   OH226725   5.832   3.750   2.200 -0.4372  0.0507 -0.4160
 1697TIP3    H126726   5.857   3.829   2.151  1.1559 -0.6311 -0.7669
 1697TIP3    H226727   5.882   3.680   2.159 -0.8733 -0.9405  0.6959
 1698TIP3   OH226728   0.674   5.796   8.068  0.0215  0.1087  0.2748
 1698TIP3    H126729   0.652   5.722   8.125  0.0725  0.1559  0.3557
 1698TIP3    H226730   0.733   5.758   8.002  0.2816  0.1384  0.4876
 1699TIP3   OH226731   5.163   3.363   3.352  0.1620  0.3122  0.8197
 1699TIP3    H126732   5.245   3.372   3.303  1.9990 -0.3538  3.5291
 1699TIP3    H226733   5.107   3.308   3.296  1.0558  1.7157 -1.6021
 1700TIP3   OH226734   4.391   6.003   8.069 -0.1006  0.1758 -0.1101
 1700TIP3    H126735   4.353   6.082   8.031 -0.8908 -0.3232 -0.3895
 1700TIP3    H226736   4.393   5.940   7.997 -2.2507 -1.0037  0.7769
 1701TIP3   OH226737   0.817   1.009   0.015  0.1875  0.4419  0.1062
 1701TIP3    H126738   0.810   0.993  -0.079  0.1234  0.1019  0.1699
 1701TIP3    H226739   0.735   1.053   0.038 -0.8746 -1.6362  0.4501
 1702TIP3   OH226740   4.563   5.266   9.821 -0.9154 -0.4021 -0.3103
 1702TIP3    H126741   4.520   5.276   9.906 -0.4249 -0.7455 -0.0174
 1702TIP3    H226742   4.655   5.250   9.842 -0.5384  0.8004 -0.9361
 1703TIP3   OH226743   0.498   1.511   0.299 -0.4174  0.1833 -0.2719
 1703TIP3    H126744   0.569   1.570   0.324 -1.0497  0.5534  0.7047
 1703TIP3    H226745   0.419   1.551   0.336 -1.0899 -0.4036 -1.0391
 1704TIP3   OH226746   1.373   1.919   2.397  0.5820 -0.3872 -0.3010
 1704TIP3    H126747   1.282   1.948   2.398  0.3415 -1.0533 -1.2007
 1704TIP3    H226748   1.376   1.846   2.460  0.9326  0.7820  1.1038
 1705TIP3   OH226749   2.692   0.770   8.896  0.3010 -0.4690  0.3378
 1705TIP3    H126750   2.698   0.724   8.980 -1.3388  0.6143  1.0998
 1705TIP3    H226751   2.724   0.707   8.832  0.9838 -1.5544  1.6875
 1706TIP3   OH226752   6.211   3.557   9.384  0.2354  0.4052  0.2828
 1706TIP3    H126753   6.174   3.478   9.345  0.8774  0.0334  0.4034
 1706TIP3    H226754   6.147   3.584   9.450  0.4671 -0.6058  0.9500
 1707TIP3   OH226755   1.406   3.275   3.161 -0.2219 -0.4536 -0.8743
 1707TIP3    H126756   1.438   3.275   3.070  2.3187  1.6411 -0.1165
 1707TIP3    H226757   1.382   3.184   3.178  2.1437 -1.5320 -2.7444
 1708TIP3   OH226758   0.658   1.561   8.619  0.0156  0.4714  0.3223
 1708TIP3    H126759   0.605   1.550   8.540  0.2322  2.1525 -0.0944
 1708TIP3    H226760   0.634   1.486   8.674 -1.9877  0.5716 -0.3056
 1709TIP3   OH226761   5.876   3.555   9.610  0.2375  0.5670  0.0570
 1709TIP3    H126762   5.867   3.629   9.670 -0.6203 -0.0741  0.7484
 1709TIP3    H226763   5.840   3.586   9.527 -0.1448  0.9254  0.3514
 1710TIP3   OH226764   5.062   5.136   0.592  0.3811  0.1156 -0.3692
 1710TIP3    H126765   5.047   5.230   0.584  0.7211  0.2618  0.6331
 1710TIP3    H226766   4.976   5.099   0.607  0.5102  0.5756  1.8687
 1711TIP3   OH226767   0.347   1.914   9.809  0.1858  0.4716 -0.8209
 1711TIP3    H126768   0.312   1.907   9.898  0.0937  1.2762 -0.7851
 1711TIP3    H226769   0.361   1.824   9.781 -0.7558  0.1769 -0.3761
 1712TIP3   OH226770   3.669   4.651   1.828 -0.3803  0.1479  0.1821
 1712TIP3    H126771   3.715   4.575   1.862  0.8960  0.2825 -1.1524
 1712TIP3    H226772   3.716   4.726   1.866 -2.1702  0.3481  2.2078
 1713TIP3   OH226773   4.938   5.510   0.315  0.4052 -0.0307 -0.2838
 1713TIP3    H126774   4.902   5.598   0.300 -0.4600 -0.3137  0.0705
 1713TIP3    H226775   4.881   5.452   0.264  1.6278 -0.2865 -1.3883
 1714TIP3   OH226776   3.381   4.018   9.766 -0.1483  0.4225  0.3253
 1714TIP3    H126777   3.314   4.071   9.722  1.0359  1.1053 -0.7394
 1714TIP3    H226778   3.432   4.081   9.817  0.3181  0.0763  0.2965
 1715TIP3   OH226779   3.293   2.403   2.342 -0.0490  0.4337 -0.0653
 1715TIP3    H126780   3.236   2.336   2.304 -0.6349  1.0458 -0.2922
 1715TIP3    H226781   3.232   2.462   2.386  0.3955  1.2414 -0.5269
 1716TIP3   OH226782   2.624   3.713   0.342 -0.0237 -0.5140  0.0149
 1716TIP3    H126783   2.691   3.659   0.385  0.2447 -0.0071  0.2332
 1716TIP3    H226784   2.654   3.721   0.251 -0.5269 -1.4789 -0.2515
 1717TIP3   OH226785   0.892   2.433   2.441 -0.0665 -0.0409  0.3402
 1717TIP3    H126786   0.985   2.425   2.462 -0.1624  1.3810  1.4728
 1717TIP3    H226787   0.850   2.455   2.524 -1.4994 -1.1314 -0.0568
 1718TIP3   OH226788   5.926   4.835   1.399  0.1231 -0.4799 -0.3433
 1718TIP3    H126789   6.005   4.883   1.422  1.0696 -2.7657  1.6872
 1718TIP3    H226790   5.946   4.794   1.315  0.2069  0.7402 -0.9251
 1719TIP3   OH226791   1.210   0.552   7.499  0.0602  0.7124 -0.1836
 1719TIP3    H126792   1.132   0.605   7.483  0.6555  2.0582  1.0998
 1719TIP3    H226793   1.177   0.475   7.546 -0.3917  1.9233  1.5880
 1720TIP3   OH226794   1.674   3.688   8.676 -0.4319 -0.1381  0.0766
 1720TIP3    H126795   1.635   3.721   8.757  0.1051 -0.9932  0.7041
 1720TIP3    H226796   1.764   3.718   8.678 -0.8128  1.1534 -0.9818
 1721TIP3   OH226797   0.698   6.346   7.982  0.3947  0.3588 -0.1763
 1721TIP3    H126798   0.647   6.396   7.918 -0.3257  1.8232  1.4659
 1721TIP3    H226799   0.762   6.409   8.016  1.4851 -0.7003 -0.2028
 1722TIP3   OH226800   5.728   5.985   1.225 -0.4895 -0.0121  0.3128
 1722TIP3    H126801   5.634   5.995   1.243 -0.0644 -0.0361  3.0473
 1722TIP3    H226802   5.762   5.940   1.303  1.4500 -2.1231 -1.6115
 1723TIP3   OH226803   3.141   1.199   2.203 -0.2877  0.2930  0.2124
 1723TIP3    H126804   3.184   1.267   2.150 -0.3241  1.7303  1.9317
 1723TIP3    H226805   3.057   1.186   2.161 -0.1702  1.1376 -0.3091
 1724TIP3   OH226806   1.339   5.807   8.766 -0.2109 -0.6205 -0.2593
 1724TIP3    H126807   1.375   5.766   8.688  0.2100 -1.1108  0.1846
 1724TIP3    H226808   1.269   5.863   8.733  0.1083 -0.6467 -1.0076
 1725TIP3   OH226809   5.119   1.395   9.083 -0.0483 -0.5775 -0.0031
 1725TIP3    H126810   5.069   1.458   9.135 -0.6629 -2.2592  1.5828
 1725TIP3    H226811   5.207   1.432   9.077 -0.7471  1.1074 -0.4150
 1726TIP3   OH226812   4.430   3.944   2.131  0.1167  0.6349  0.5768
 1726TIP3    H126813   4.520   3.918   2.150  0.3446  1.1684  0.2399
 1726TIP3    H226814   4.427   4.038   2.150 -0.7984  0.3259  2.1433
 1727TIP3   OH226815   4.900   2.094   0.699 -0.3478  0.4374 -0.5809
 1727TIP3    H126816   4.849   2.088   0.780 -0.1798  1.2950 -0.3994
 1727TIP3    H226817   4.856   2.035   0.638 -0.3410 -0.3961  0.2024
 1728TIP3   OH226818   5.000   3.356   2.600  0.0549 -0.4311 -0.1981
 1728TIP3    H126819   5.049   3.351   2.682 -0.1324  0.1114 -0.0501
 1728TIP3    H226820   4.982   3.265   2.577 -3.0564 -0.6253  2.2721
 1729TIP3   OH226821   4.242   4.348   9.860  0.2932 -0.1262 -0.8641
 1729TIP3    H126822   4.283   4.261   9.862 -0.3051 -0.4396 -1.4944
 1729TIP3    H226823   4.149   4.330   9.871 -0.1099  0.2138 -3.2374
 1730TIP3   OH226824   0.867   1.074   0.369 -0.0842  0.3941 -0.0271
 1730TIP3    H126825   0.817   1.146   0.331 -1.2694 -0.5537 -0.3162
 1730TIP3    H226826   0.940   1.060   0.309  0.9747  2.2542  0.7582
 1731TIP3   OH226827   5.469   0.068   7.876 -0.1295 -0.3409  0.2081
 1731TIP3    H126828   5.499   0.158   7.885 -1.8516  0.2456  0.2992
 1731TIP3    H226829   5.550   0.016   7.873  0.8763  1.1721  0.3224
 1732TIP3   OH226830   3.317   1.090   1.290  0.4869  0.3800 -0.0811
 1732TIP3    H126831   3.357   1.092   1.377  1.3425 -0.6078 -0.4322
 1732TIP3    H226832   3.321   0.998   1.264  0.3407  0.6827 -1.2110
 1733TIP3   OH226833   5.582   2.641   9.159  0.6166 -0.1758  0.5064
 1733TIP3    H126834   5.636   2.717   9.142  1.0906 -0.3028  1.3923
 1733TIP3    H226835   5.508   2.649   9.098  0.0724  1.5713  1.3355
 1734TIP3   OH226836   0.560   3.401   3.274 -0.1939 -0.1879  0.5049
 1734TIP3    H126837   0.569   3.361   3.187  1.8347  0.7872  0.2154
 1734TIP3    H226838   0.492   3.349   3.317 -1.5765 -0.4396 -1.7965
 1735TIP3   OH226839   2.296   6.348   8.962 -0.3700  0.0627  0.5524
 1735TIP3    H126840   2.287   6.411   8.891  1.2308 -1.2569 -0.9342
 1735TIP3    H226841   2.242   6.274   8.935  1.9509 -1.3773 -0.5460
 1736TIP3   OH226842   3.965   1.516   8.665  0.2831 -0.0769 -0.4178
 1736TIP3    H126843   4.017   1.560   8.731 -0.1482  0.6918 -0.5786
 1736TIP3    H226844   3.956   1.426   8.697  1.2952 -0.1036 -0.1623
 1737TIP3   OH226845   1.970   4.158   8.635 -0.7160  0.4470  0.1323
 1737TIP3    H126846   1.994   4.234   8.580 -1.1854  1.2307  0.9852
 1737TIP3    H226847   1.966   4.194   8.724 -0.1122 -0.7738  0.6683
 1738TIP3   OH226848   3.117   4.013   9.052  0.3286 -0.3700 -0.2476
 1738TIP3    H126849   3.175   3.964   8.994  2.0955 -1.1614  2.0407
 1738TIP3    H226850   3.148   4.104   9.047 -0.5725 -0.1170 -1.6969
 1739TIP3   OH226851   4.053   5.637   2.699  0.3080  0.0638  0.7228
 1739TIP3    H126852   4.027   5.593   2.780 -1.3520  3.2447  2.0963
 1739TIP3    H226853   3.987   5.611   2.635  0.5762 -1.0325  0.8685
 1740TIP3   OH226854   5.709   4.985   2.645  0.3149 -0.0072 -0.2579
 1740TIP3    H126855   5.626   4.977   2.693  1.5158  1.3667  2.2514
 1740TIP3    H226856   5.720   5.079   2.634 -0.0235 -0.2591 -3.6678
 1741TIP3   OH226857   4.810   0.440   8.302 -0.3934 -0.0294  0.3620
 1741TIP3    H126858   4.849   0.376   8.362  0.6640 -0.3844 -0.6677
 1741TIP3    H226859   4.755   0.389   8.244  0.7725 -0.1025 -0.7238
 1742TIP3   OH226860   3.681   6.179   1.258 -0.0745 -0.4574  0.0783
 1742TIP3    H126861   3.614   6.222   1.310  0.6792 -0.0848  0.7523
 1742TIP3    H226862   3.639   6.163   1.173 -1.4112 -1.3584  0.8800
 1743TIP3   OH226863   0.285   2.230   8.709  0.1933  0.6642  0.3004
 1743TIP3    H126864   0.360   2.171   8.698  0.4443  1.0553 -0.0936
 1743TIP3    H226865   0.230   2.186   8.774  0.2420 -0.1351 -0.1887
 1744TIP3   OH226866   5.212   0.041   9.304 -0.0589  0.3504 -0.2012
 1744TIP3    H126867   5.153   0.112   9.328 -0.7179 -0.2361 -0.0784
 1744TIP3    H226868   5.162  -0.039   9.319  1.0186 -0.1932  0.6492
 1745TIP3   OH226869   5.523   4.120   2.151  0.7227 -0.1980  0.1463
 1745TIP3    H126870   5.547   4.029   2.134 -0.0838 -0.4690  0.4189
 1745TIP3    H226871   5.465   4.144   2.079  1.2457  0.2350 -0.1400
 1746TIP3   OH226872   4.429   2.909   1.731  0.0133 -0.0078 -0.6448
 1746TIP3    H126873   4.506   2.903   1.674 -0.0761  0.2477 -0.7948
 1746TIP3    H226874   4.463   2.948   1.812  0.5833 -2.3599  0.3170
 1747TIP3   OH226875   4.456   3.563   1.017  0.2050  0.3125  0.6531
 1747TIP3    H126876   4.449   3.484   1.071  2.1013 -0.2419  0.1791
 1747TIP3    H226877   4.549   3.585   1.021  0.9332 -0.9021 -3.9113
 1748TIP3   OH226878   4.985   0.618   0.414  0.0595  0.3011 -0.0623
 1748TIP3    H126879   4.951   0.667   0.489  0.1801  2.0733 -1.0945
 1748TIP3    H226880   5.055   0.564   0.450  1.5973  2.6938  0.8450
 1749TIP3   OH226881   1.756   2.431   8.302 -0.0186 -0.4906  0.0213
 1749TIP3    H126882   1.785   2.435   8.393  1.4099  1.3383 -0.4453
 1749TIP3    H226883   1.837   2.428   8.252 -0.7834 -1.0865 -1.2186
 1750TIP3   OH226884   1.460   5.396   9.084  0.0084 -0.1395  0.5138
 1750TIP3    H126885   1.466   5.450   9.005 -0.3080 -1.8475 -0.7420
 1750TIP3    H226886   1.369   5.405   9.112 -1.0700 -2.5904 -1.7302
 1751TIP3   OH226887   3.349   4.911   9.234 -0.1521 -0.4546  0.2303
 1751TIP3    H126888   3.386   4.956   9.310 -1.3939  0.4694  0.3232
 1751TIP3    H226889   3.299   4.979   9.188  1.4970 -0.6900 -2.0972
 1752TIP3   OH226890   5.119   4.069   9.393  0.0827  0.1256 -0.2075
 1752TIP3    H126891   5.076   3.992   9.356 -1.5294  1.5316 -1.4426
 1752TIP3    H226892   5.142   4.122   9.317  0.3097  1.3047  0.6581
 1753TIP3   OH226893   5.475   3.639   9.774  0.6829 -0.1592 -0.1199
 1753TIP3    H126894   5.564   3.660   9.805  0.8546 -0.6475 -0.2758
 1753TIP3    H226895   5.481   3.643   9.679 -0.0541  2.1929 -0.1158
 1754TIP3   OH226896   5.657   5.816   0.372 -0.0087 -0.3675  0.0128
 1754TIP3    H126897   5.709   5.742   0.403  0.8746  0.4073  0.4461
 1754TIP3    H226898   5.722   5.881   0.344 -0.7627  0.1757 -0.5265
 1755TIP3   OH226899   0.129   3.852   9.670 -0.3911 -0.2154 -0.1944
 1755TIP3    H126900   0.123   3.759   9.649 -0.9526 -0.2980  0.3084
 1755TIP3    H226901   0.151   3.894   9.587  0.8465 -0.8915 -0.2357
 1756TIP3   OH226902   4.088   0.934   8.426  0.2689 -0.0347 -0.5034
 1756TIP3    H126903   4.099   0.893   8.340  0.5118 -0.4739 -0.2717
 1756TIP3    H226904   4.110   0.864   8.488 -0.4533  0.1114 -0.0767
 1757TIP3   OH226905   4.401   2.558   9.404  0.0313 -0.1349  0.3162
 1757TIP3    H126906   4.445   2.571   9.488  0.7076  0.5928 -0.1368
 1757TIP3    H226907   4.390   2.463   9.396  0.0445 -0.2118  1.1775
 1758TIP3   OH226908   1.020   2.629   8.639 -0.5164  0.2544  0.0146
 1758TIP3    H126909   0.925   2.642   8.638 -0.4366  0.9513  0.3250
 1758TIP3    H226910   1.056   2.718   8.636  0.0973  0.1843  2.7690
 1759TIP3   OH226911   4.039   5.253   2.441 -0.8842 -0.2893 -0.4464
 1759TIP3    H126912   4.003   5.321   2.384 -1.7429  0.6049  1.0920
 1759TIP3    H226913   3.967   5.230   2.499  0.2640 -0.3376  1.0221
 1760TIP3   OH226914   2.615   5.312   9.447 -0.1965 -0.6282 -0.1357
 1760TIP3    H126915   2.685   5.361   9.404 -1.6430  0.8783 -0.9183
 1760TIP3    H226916   2.651   5.225   9.461  1.7088  0.0055 -0.7812
 1761TIP3   OH226917   5.012   1.382   1.892  0.0730  0.0635  0.6003
 1761TIP3    H126918   5.094   1.353   1.853 -0.3853 -0.6505  0.1327
 1761TIP3    H226919   5.038   1.440   1.963  0.9720  0.0309  0.3080
 1762TIP3   OH226920   0.696   1.579   7.720  0.3075 -0.5351  0.4280
 1762TIP3    H126921   0.606   1.546   7.724 -0.2263  0.7102 -0.4199
 1762TIP3    H226922   0.750   1.503   7.701 -0.6536 -1.1953  0.2947
 1763TIP3   OH226923   3.030   3.285   0.120  0.0508  0.2105  0.0414
 1763TIP3    H126924   2.996   3.243   0.041 -1.3266  1.5935 -0.1430
 1763TIP3    H226925   3.121   3.308   0.098  0.4857 -1.6028 -0.2301
 1764TIP3   OH226926   2.040   2.476   7.888 -0.2055  0.0819  0.3942
 1764TIP3    H126927   2.133   2.465   7.904  0.1462  1.7725 -0.3078
 1764TIP3    H226928   1.998   2.449   7.970  0.9059 -0.3253  0.8464
 1765TIP3   OH226929   3.983   6.138   9.851  0.3350  0.2268  0.5627
 1765TIP3    H126930   4.018   6.130   9.763 -0.9233  1.1306 -0.0604
 1765TIP3    H226931   4.027   6.215   9.887  0.1320  0.4432  0.3528
 1766TIP3   OH226932   5.321   2.928   1.712  0.3982  0.7251 -0.5110
 1766TIP3    H126933   5.380   2.927   1.637 -1.3494 -0.5171 -1.9637
 1766TIP3    H226934   5.336   3.013   1.753  1.6390  1.3149 -2.0866
 1767TIP3   OH226935   4.065   6.408   3.979  0.3003 -0.2106 -0.3523
 1767TIP3    H126936   4.127   6.479   3.999 -0.5750  0.4777 -0.0422
 1767TIP3    H226937   4.043   6.421   3.887 -1.6689  1.3957  0.2837
 1768TIP3   OH226938   4.671   0.046   1.763  0.2038 -0.4650 -0.1973
 1768TIP3    H126939   4.743   0.100   1.729  0.4657 -0.5694  0.1856
 1768TIP3    H226940   4.654   0.082   1.851  0.2857 -0.9133  0.0041
 1769TIP3   OH226941   2.056   6.301   7.995 -0.1533 -0.0260 -0.2306
 1769TIP3    H126942   2.022   6.242   8.063  0.2662 -0.6692 -0.5589
 1769TIP3    H226943   2.151   6.286   7.996  0.1728  1.8339  0.7692
 1770TIP3   OH226944   0.005   4.208   1.064  0.1651 -0.6793  0.6075
 1770TIP3    H126945   0.011   4.299   1.035  2.2947 -0.4156  1.6673
 1770TIP3    H226946  -0.033   4.213   1.151  0.5717 -0.7447  0.7941
 1771TIP3   OH226947   6.012   4.498  10.025 -0.1609  0.2300 -0.4670
 1771TIP3    H126948   5.963   4.477   9.946  1.0344  0.4109 -1.2917
 1771TIP3    H226949   5.950   4.485  10.097 -1.7786  1.6095 -1.5277
 1772TIP3   OH226950   3.736   1.528   0.802 -0.0765  0.1921 -0.2047
 1772TIP3    H126951   3.769   1.613   0.774 -0.1666  0.8693  1.6376
 1772TIP3    H226952   3.815   1.477   0.823 -0.0608  0.3385  0.0992
 1773TIP3   OH226953   1.539   1.858   0.916  0.1927  0.0694 -0.2966
 1773TIP3    H126954   1.560   1.942   0.874  1.5761 -0.4884 -0.7775
 1773TIP3    H226955   1.587   1.793   0.864 -0.3334 -0.9535  0.4678
 1774TIP3   OH226956   1.013   5.485   0.211  0.0158  0.1934 -0.0764
 1774TIP3    H126957   1.004   5.400   0.168  0.4831 -0.1586  0.4968
 1774TIP3    H226958   1.026   5.463   0.304  2.5625  0.7734 -0.2290
 1775TIP3   OH226959   3.163   5.092   9.036  0.3067  0.5684 -0.1383
 1775TIP3    H126960   3.137   5.005   9.005  1.1995  0.6935 -1.3034
 1775TIP3    H226961   3.081   5.142   9.035 -0.1326 -0.1192  0.0995
 1776TIP3   OH226962   4.498   3.160   0.259  0.0979 -0.3112  0.5672
 1776TIP3    H126963   4.481   3.086   0.200  2.5838 -0.0972 -0.5760
 1776TIP3    H226964   4.593   3.168   0.259  0.0350  1.1882  2.8534
 1777TIP3   OH226965   5.708   5.924   9.516  0.5546 -0.0700  0.1322
 1777TIP3    H126966   5.760   5.999   9.543  0.9791 -0.4292  0.3358
 1777TIP3    H226967   5.684   5.881   9.598 -3.0235  1.9616  0.3559
 1778TIP3   OH226968   3.004   3.210   8.305 -0.1233  0.4510  0.4250
 1778TIP3    H126969   2.949   3.145   8.261 -0.1145 -0.5855  1.8838
 1778TIP3    H226970   2.942   3.277   8.334 -0.4363 -0.0208  0.8529
 1779TIP3   OH226971   2.120   0.992   8.704  0.5129  0.3159 -0.2535
 1779TIP3    H126972   2.027   0.987   8.683  0.7126 -2.1112 -0.8167
 1779TIP3    H226973   2.146   1.079   8.675 -1.5769  1.0847 -0.0103
 1780TIP3   OH226974   5.604   0.353   0.309  0.4306 -0.0267  1.3240
 1780TIP3    H126975   5.695   0.382   0.319  0.5182  0.6543 -0.8343
 1780TIP3    H226976   5.594   0.338   0.215 -1.3507 -1.3217  1.6650
 1781TIP3   OH226977   4.549   1.278   9.902 -0.3921  0.0004 -0.2398
 1781TIP3    H126978   4.501   1.358   9.924 -1.1559 -0.8272  1.3349
 1781TIP3    H226979   4.551   1.228   9.984  1.9008 -0.6815 -0.6488
 1782TIP3   OH226980   0.370   4.917   0.039 -0.1101 -0.4095 -0.2191
 1782TIP3    H126981   0.420   4.962   0.107  1.3687  0.2107 -1.6599
 1782TIP3    H226982   0.284   4.960   0.040  0.1675  0.1419  0.6838
 1783TIP3   OH226983   5.652   2.155   9.890 -0.4235 -0.0074 -0.1140
 1783TIP3    H126984   5.577   2.212   9.873 -0.5622 -0.3492 -0.6721
 1783TIP3    H226985   5.628   2.071   9.851  0.7396  0.2076 -1.3693
 1784TIP3   OH226986   4.483   0.639   9.737  0.2166 -0.2430  0.2836
 1784TIP3    H126987   4.530   0.638   9.820  0.3511 -1.2348  0.2096
 1784TIP3    H226988   4.546   0.674   9.674 -0.1817  1.3793  0.7465
 1785TIP3   OH226989   0.342   4.809   7.891  0.2780 -0.7079  0.3262
 1785TIP3    H126990   0.285   4.883   7.913 -0.2196 -1.3284  1.1574
 1785TIP3    H226991   0.352   4.815   7.796 -0.6933 -0.2381  0.2395
 1786TIP3   OH226992   5.947   6.142   1.115  0.0704  0.5092 -0.5483
 1786TIP3    H126993   6.008   6.068   1.112 -0.6894 -0.1289 -0.5726
 1786TIP3    H226994   5.867   6.106   1.152  0.3895  1.8665  1.6710
 1787TIP3   OH226995   1.850   2.466   2.929 -0.0441 -0.0974  0.3010
 1787TIP3    H126996   1.888   2.439   2.846  0.8268 -0.6746  0.8672
 1787TIP3    H226997   1.784   2.399   2.949  0.1442 -0.2723  0.3416
 1788TIP3   OH226998   6.021   1.748   8.925  0.1681  0.5296 -0.0124
 1788TIP3    H126999   6.011   1.661   8.887  0.9991  0.6783 -0.5925
 1788TIP3    H227000   5.939   1.793   8.904  0.0076  0.1151 -0.2954
 1789TIP3   OH227001   4.280   0.895   1.672  0.2548 -0.5436  0.5344
 1789TIP3    H127002   4.340   0.915   1.744 -2.9828  0.5045  3.1830
 1789TIP3    H227003   4.286   0.970   1.613  0.2213  0.4239  1.7351
 1790TIP3   OH227004   1.733   1.664   1.147  0.2328 -0.0559  0.4821
 1790TIP3    H127005   1.687   1.738   1.187  0.3097  0.7906 -0.9086
 1790TIP3    H227006   1.744   1.601   1.218  0.2390  1.2994  1.7376
 1791TIP3   OH227007   5.776   4.624   0.446  0.2963 -0.2480 -0.2940
 1791TIP3    H127008   5.729   4.707   0.444 -3.2008 -2.0210  0.8119
 1791TIP3    H227009   5.841   4.635   0.515 -1.0357  1.1307  0.8026
 1792TIP3   OH227010   4.770   5.944   8.302 -0.0416 -0.1392  0.1843
 1792TIP3    H127011   4.794   6.035   8.286  0.7079 -0.5575 -1.2787
 1792TIP3    H227012   4.674   5.943   8.297 -0.0681  0.6183  0.4957
 1793TIP3   OH227013   0.702   1.293   2.303 -0.1015 -0.1834 -0.0735
 1793TIP3    H127014   0.773   1.357   2.306  0.7236 -1.0406 -0.9554
 1793TIP3    H227015   0.692   1.264   2.394 -0.4266  1.1035  0.3239
 1794TIP3   OH227016   2.420   0.427   7.545  0.2668  0.2285 -0.0640
 1794TIP3    H127017   2.435   0.332   7.550  1.4470  0.4591  1.8907
 1794TIP3    H227018   2.352   0.444   7.610  0.6257  0.7959  0.1733
 1795TIP3   OH227019   2.433   1.160   1.339  0.8124  0.5710 -0.6286
 1795TIP3    H127020   2.471   1.246   1.320  1.6580 -0.1092 -2.2145
 1795TIP3    H227021   2.493   1.097   1.298 -0.4815 -0.7099 -0.6488
 1796TIP3   OH227022   6.258   0.493   1.917  0.3384 -0.1248  0.0261
 1796TIP3    H127023   6.262   0.589   1.921 -2.2729  0.0829 -0.9216
 1796TIP3    H227024   6.280   0.471   1.827  0.1817 -0.3759  0.0484
 1797TIP3   OH227025   5.220   3.295   2.260  0.4063 -0.0928 -0.2767
 1797TIP3    H127026   5.210   3.378   2.213 -1.3597  1.2432  2.2294
 1797TIP3    H227027   5.308   3.300   2.298  1.7992 -1.1239 -3.0839
 1798TIP3   OH227028   4.168   4.716   0.440 -0.3235 -0.0726 -0.0093
 1798TIP3    H127029   4.088   4.755   0.405  0.2335  1.6528  0.5703
 1798TIP3    H227030   4.142   4.682   0.526 -0.2377  1.3200  0.5826
 1799TIP3   OH227031   2.235   2.305   8.555 -0.1825  0.2495 -0.0723
 1799TIP3    H127032   2.302   2.300   8.624  0.4573  2.0013 -0.5177
 1799TIP3    H227033   2.279   2.350   8.483 -2.1166  2.5242  0.0305
 1800TIP3   OH227034   3.741   6.339   8.502  0.7199  0.0182 -0.0655
 1800TIP3    H127035   3.786   6.255   8.515  0.5477 -0.6806 -3.2393
 1800TIP3    H227036   3.758   6.362   8.411 -1.7546  1.9400 -0.1552
 1801TIP3   OH227037   4.611   2.478   2.071 -0.2310 -0.0839  0.1518
 1801TIP3    H127038   4.610   2.553   2.012 -0.7063 -2.0852 -2.5839
 1801TIP3    H227039   4.520   2.450   2.077 -0.2750  0.3633  2.3388
 1802TIP3   OH227040   3.145   2.102   8.325  0.2162 -0.0993 -0.3321
 1802TIP3    H127041   3.196   2.172   8.284  1.1322 -0.5608 -0.0024
 1802TIP3    H227042   3.105   2.055   8.251 -0.1794  0.5932 -0.5652
 1803TIP3   OH227043   3.470   2.051   9.174 -0.4767 -0.1965  0.3337
 1803TIP3    H127044   3.406   2.050   9.103  0.3080 -1.8028 -0.3824
 1803TIP3    H227045   3.522   1.973   9.161  0.6036  0.2238  1.8696
 1804TIP3   OH227046   0.849   5.669   7.880  0.2452 -0.7209  0.1442
 1804TIP3    H127047   0.906   5.705   7.812 -1.1474 -0.0959 -0.7372
 1804TIP3    H227048   0.787   5.614   7.832  0.0108 -1.2989  1.0697
 1805TIP3   OH227049   4.366   1.355   9.368  0.1981  0.3940  0.7153
 1805TIP3    H127050   4.405   1.425   9.420  0.4379  0.3413  0.6062
 1805TIP3    H227051   4.434   1.330   9.306 -0.1417  0.5687  0.2673
 1806TIP3   OH227052   0.243   4.583   7.025  0.4268  0.4723 -0.2935
 1806TIP3    H127053   0.289   4.535   6.955 -0.6838 -2.1946  0.6729
 1806TIP3    H227054   0.295   4.566   7.104 -0.3822  0.2111  0.1961
 1807TIP3   OH227055   2.620   4.451   9.086 -0.3382  0.2440  0.2899
 1807TIP3    H127056   2.715   4.459   9.086 -0.3892  0.9440 -0.5078
 1807TIP3    H227057   2.591   4.504   9.160 -0.1154  0.0862  0.4897
 1808TIP3   OH227058   2.500   0.188   1.733 -0.2373 -0.2166  0.1230
 1808TIP3    H127059   2.440   0.233   1.793 -1.1787 -2.4764  0.9814
 1808TIP3    H227060   2.511   0.101   1.771  2.3176 -0.4170 -0.9182
 1809TIP3   OH227061   3.762   2.813   9.478  0.4381 -0.1722  0.2802
 1809TIP3    H127062   3.841   2.787   9.526  0.1945  1.5265  1.7189
 1809TIP3    H227063   3.696   2.825   9.547 -0.6327 -0.0011 -0.7455
 1810TIP3   OH227064   0.743   4.928   8.213 -0.2578 -0.2980 -0.0523
 1810TIP3    H127065   0.831   4.893   8.197 -0.3029 -0.2247 -0.4859
 1810TIP3    H227066   0.745   5.015   8.173 -1.0470 -0.9507 -1.5823
 1811TIP3   OH227067   6.302   2.243   9.765 -0.5363 -0.1151 -0.3409
 1811TIP3    H127068   6.354   2.204   9.836 -1.0646  1.7937  1.1671
 1811TIP3    H227069   6.289   2.171   9.703  1.1992 -1.4694  0.7658
 1812TIP3   OH227070   4.856   3.781   0.910  0.0044  0.4132  0.2160
 1812TIP3    H127071   4.846   3.794   0.815 -1.8121  0.4994  0.3951
 1812TIP3    H227072   4.773   3.810   0.947  0.1685 -0.9100  1.7134
 1813TIP3   OH227073   6.330   4.812   8.482 -0.1747 -0.3097  0.3783
 1813TIP3    H127074   6.269   4.778   8.416 -0.3400  1.2176 -0.3178
 1813TIP3    H227075   6.338   4.905   8.460  2.9743 -0.5786  0.0009
 1814TIP3   OH227076   5.154   6.018   3.544  0.0079  0.1721 -0.3766
 1814TIP3    H127077   5.245   6.046   3.534  0.2800 -0.2696  0.7846
 1814TIP3    H227078   5.115   6.084   3.600  0.6233 -1.5817  2.2893
 1815TIP3   OH227079   0.010   6.048   2.010  0.1369 -0.6439  0.7047
 1815TIP3    H127080  -0.084   6.032   2.011 -0.2034  1.2083  1.9280
 1815TIP3    H227081   0.033   6.047   1.917 -1.2493 -0.2346  0.3340
 1816TIP3   OH227082   5.241   6.327   8.597  0.5830  0.3567  0.0117
 1816TIP3    H127083   5.323   6.376   8.604  1.7338 -1.5469  0.6225
 1816TIP3    H227084   5.268   6.235   8.602 -1.3500 -0.4321 -2.1611
 1817TIP3   OH227085   5.973   6.100   9.364  0.2322  0.4243  0.5552
 1817TIP3    H127086   6.043   6.164   9.373 -0.1914  1.0189 -0.3487
 1817TIP3    H227087   5.905   6.130   9.424 -0.3922  1.4225 -0.6109
 1818TIP3   OH227088   0.832   3.784   2.694 -0.2161 -0.0220  0.1819
 1818TIP3    H127089   0.738   3.805   2.701 -0.1257  0.5950 -0.3539
 1818TIP3    H227090   0.873   3.833   2.765 -0.1643  0.6062 -0.2774
 1819TIP3   OH227091   0.153   5.062   1.031 -0.3372 -0.2401  0.5341
 1819TIP3    H127092   0.236   5.042   1.075 -1.8717 -0.5805  3.5700
 1819TIP3    H227093   0.124   4.979   0.994  0.3404 -0.2613  0.0437
 1820TIP3   OH227094   2.350   0.643   8.424 -0.3828  0.1275 -0.2656
 1820TIP3    H127095   2.384   0.732   8.420  0.8031 -0.2496  0.8500
 1820TIP3    H227096   2.324   0.631   8.515 -3.1610  0.2239 -0.9614
 1821TIP3   OH227097   5.780   0.900   8.515 -0.0329 -0.4686  0.4008
 1821TIP3    H127098   5.845   0.857   8.570 -2.8555 -1.5508  3.2133
 1821TIP3    H227099   5.697   0.883   8.559 -1.9796  3.1588 -1.4584
 1822TIP3   OH227100   5.626   6.022   9.233  0.4708  0.2547 -0.1303
 1822TIP3    H127101   5.602   5.994   9.321  0.5939 -0.8617 -0.4324
 1822TIP3    H227102   5.696   5.962   9.207 -0.8922 -0.7344 -1.7234
 1823TIP3   OH227103   0.751   1.137   7.558 -0.3798 -0.3908  0.1842
 1823TIP3    H127104   0.675   1.149   7.501 -0.3287 -1.4416 -0.1274
 1823TIP3    H227105   0.825   1.128   7.497  0.3989  2.6742  0.4787
 1824TIP3   OH227106   3.172   0.785   2.150 -0.0443  0.0130 -0.6300
 1824TIP3    H127107   3.261   0.756   2.170 -0.6404 -1.4098  0.1032
 1824TIP3    H227108   3.182   0.875   2.118  1.6624 -0.1994 -0.7491
 1825TIP3   OH227109   4.139   5.182   1.098 -0.1825  0.0464  0.1396
 1825TIP3    H127110   4.149   5.271   1.129 -0.3793 -0.2102  0.9598
 1825TIP3    H227111   4.222   5.139   1.119  0.9180  0.6717 -2.5410
 1826TIP3   OH227112   0.698   5.217   0.406  0.5133  0.2512 -0.3128
 1826TIP3    H127113   0.782   5.171   0.414  1.4403  1.9813  0.3609
 1826TIP3    H227114   0.667   5.227   0.496 -0.6559 -0.7455 -0.5824
 1827TIP3   OH227115   5.645   1.642   0.379  0.5075  0.3450  0.1578
 1827TIP3    H127116   5.578   1.704   0.354  0.5087  0.4392  0.3870
 1827TIP3    H227117   5.727   1.691   0.373  0.3929  0.7411  1.5576
 1828TIP3   OH227118   2.617   0.865   9.350  0.6665  1.1009 -0.3088
 1828TIP3    H127119   2.668   0.921   9.408  1.6987  1.1975 -1.2875
 1828TIP3    H227120   2.542   0.919   9.324 -0.7639  0.4875  2.2293
 1829TIP3   OH227121   2.517   4.651   8.645  0.0688  0.0765 -0.7006
 1829TIP3    H127122   2.488   4.709   8.574 -0.0578  0.6410 -0.1986
 1829TIP3    H227123   2.561   4.579   8.601 -0.2078  0.3068 -1.3656
 1830TIP3   OH227124   4.736   3.239   1.801 -0.3375  0.0669 -0.3739
 1830TIP3    H127125   4.703   3.294   1.730  0.3075 -1.3489 -1.8340
 1830TIP3    H227126   4.697   3.276   1.880 -0.9950  1.7625 -1.4429
 1831TIP3   OH227127   4.860   0.059   0.483 -0.2171  0.4652 -0.1842
 1831TIP3    H127128   4.847   0.142   0.530  1.7148  1.0084 -0.5224
 1831TIP3    H227129   4.823  -0.007   0.542  2.2495  1.0922  2.3448
 1832TIP3   OH227130   3.294   6.075   8.348  0.6920  0.0293 -0.3140
 1832TIP3    H127131   3.219   6.069   8.290  2.0270 -1.6790 -1.9676
 1832TIP3    H227132   3.347   6.147   8.312  0.1805  0.8350  0.4972
 1833TIP3   OH227133   0.429   1.015   2.361 -0.0918 -0.2616 -0.1931
 1833TIP3    H127134   0.492   1.072   2.406  0.7593 -0.1369 -1.5010
 1833TIP3    H227135   0.357   1.074   2.337  0.0728 -0.0542 -0.1819
 1834TIP3   OH227136   0.371   5.340   0.425  0.2101 -0.2083  0.8070
 1834TIP3    H127137   0.296   5.346   0.366  0.3384 -0.4510  0.6196
 1834TIP3    H227138   0.448   5.350   0.368  0.3792 -1.6300  0.7572
 1835TIP3   OH227139   1.650   2.195   1.448 -0.4174 -0.0643 -0.2931
 1835TIP3    H127140   1.737   2.190   1.408  1.0487  0.7043  2.5426
 1835TIP3    H227141   1.634   2.106   1.480 -0.0986  0.0792  0.2730
 1836TIP3   OH227142   0.511   5.567   0.913  0.1000 -0.3551  0.3809
 1836TIP3    H127143   0.548   5.652   0.938 -1.2713  0.2150  0.5307
 1836TIP3    H227144   0.480   5.529   0.995  1.3143 -1.3456  0.4253
 1837TIP3   OH227145   1.732   4.290   2.948  0.2732 -0.3731  0.2876
 1837TIP3    H127146   1.725   4.385   2.956  1.8494 -0.2241  0.1256
 1837TIP3    H227147   1.727   4.257   3.038  0.5571 -0.0698  0.4141
 1838TIP3   OH227148   3.097   6.045   2.801 -0.1014  0.2950  0.2813
 1838TIP3    H127149   3.090   6.031   2.896  0.7792 -0.6398  0.2227
 1838TIP3    H227150   3.033   5.985   2.763  1.1149 -0.9962  0.2004
 1839TIP3   OH227151   4.536   0.008   2.798 -0.2597 -0.1441  0.1729
 1839TIP3    H127152   4.627   0.033   2.813  0.5907 -2.9046  0.0090
 1839TIP3    H227153   4.540  -0.068   2.741 -2.7703  0.4638 -0.9879
 1840TIP3   OH227154   2.644   3.061   3.645 -0.4315 -0.0237 -0.3269
 1840TIP3    H127155   2.568   3.034   3.593 -2.3848 -1.2317  2.8594
 1840TIP3    H227156   2.715   3.006   3.614 -1.6642 -1.1361 -1.2873
 1841TIP3   OH227157   4.704   4.169   1.176  0.8204 -0.0313  0.1531
 1841TIP3    H127158   4.706   4.256   1.136 -0.4849 -0.4183 -0.8443
 1841TIP3    H227159   4.792   4.156   1.211  1.2171  1.4251 -0.2513
 1842TIP3   OH227160   5.628   2.124   1.977  0.2618 -0.0415 -0.2401
 1842TIP3    H127161   5.533   2.112   1.977  0.3249 -0.8894 -1.7149
 1842TIP3    H227162   5.652   2.126   2.069 -0.9991 -1.6997  0.1907
 1843TIP3   OH227163   5.509   5.791   1.493  0.5084  0.2882  0.5711
 1843TIP3    H127164   5.555   5.874   1.491  0.2919  0.4024  0.1775
 1843TIP3    H227165   5.574   5.728   1.525  0.9663  0.4330 -0.0406
 1844TIP3   OH227166   5.233   0.627   1.276 -0.5416  0.3056 -0.5877
 1844TIP3    H127167   5.326   0.644   1.290 -0.6287  0.2274  0.1778
 1844TIP3    H227168   5.189   0.683   1.340 -0.9510 -0.5880 -0.0557
 1845TIP3   OH227169   6.118   0.041   0.867 -0.7468  0.4998  0.3860
 1845TIP3    H127170   6.204  -0.001   0.873 -0.2042  1.3392 -0.9794
 1845TIP3    H227171   6.056  -0.031   0.861 -0.1409 -0.1204  1.2793
 1846TIP3   OH227172   2.804   0.576   1.030  0.4876  0.2236  0.1058
 1846TIP3    H127173   2.720   0.560   0.987  0.6559  0.6215 -0.3837
 1846TIP3    H227174   2.783   0.626   1.108  0.1887 -0.3881  0.4226
 1847TIP3   OH227175   0.903   1.130   0.640 -0.0019 -0.3607 -0.4483
 1847TIP3    H127176   0.935   1.218   0.662  0.3341 -0.4520 -0.5675
 1847TIP3    H227177   0.889   1.133   0.545  0.4091 -0.5613 -0.5176
 1848TIP3   OH227178   5.343   2.937   8.938 -0.0139  0.1647 -0.0975
 1848TIP3    H127179   5.411   2.999   8.910 -1.0019  1.6403  0.6120
 1848TIP3    H227180   5.261   2.978   8.909 -0.6140 -1.6821 -1.1447
 1849TIP3   OH227181   0.389   3.368   1.285  0.0400 -0.0244  0.2093
 1849TIP3    H127182   0.471   3.389   1.328 -1.0308  3.5189  0.7834
 1849TIP3    H227183   0.328   3.349   1.357  0.0068 -1.5523 -0.1706
 1850TIP3   OH227184   1.331   4.727   8.190  0.2713  0.0845 -0.1163
 1850TIP3    H127185   1.391   4.786   8.236  1.3404 -0.8672 -0.2605
 1850TIP3    H227186   1.387   4.673   8.135 -0.4759 -2.1534  1.1769
 1851TIP3   OH227187   2.213   4.648   7.917 -0.4678 -0.0342 -0.1268
 1851TIP3    H127188   2.236   4.664   8.008 -1.8587  0.2761  0.1935
 1851TIP3    H227189   2.287   4.685   7.867 -0.7138  1.8376  0.8050
 1852TIP3   OH227190   0.633   4.228   1.831 -0.0219 -0.2801  0.0706
 1852TIP3    H127191   0.725   4.248   1.814 -0.2950  0.8939 -0.0714
 1852TIP3    H227192   0.634   4.138   1.863  1.2786  0.0446  0.9983
 1853TIP3   OH227193   4.894   1.334   8.424  0.3845 -0.1522  0.2813
 1853TIP3    H127194   4.958   1.348   8.354 -0.9464 -2.1233 -1.4461
 1853TIP3    H227195   4.845   1.416   8.428 -0.8300 -0.5914 -2.6258
 1854TIP3   OH227196   0.195   6.213   8.071  0.2744 -0.0678 -0.0667
 1854TIP3    H127197   0.283   6.246   8.057 -0.0895  0.3481 -1.4796
 1854TIP3    H227198   0.138   6.278   8.030 -1.1055  2.3328  4.8525
 1855TIP3   OH227199   3.696   1.540   9.165 -0.1021 -0.9353 -0.1874
 1855TIP3    H127200   3.653   1.530   9.080 -3.5697 -0.6855  1.3582
 1855TIP3    H227201   3.678   1.631   9.190  0.5608 -1.0947  0.9354
 1856TIP3   OH227202   1.500   4.499   2.362  0.0902 -0.3224  0.0252
 1856TIP3    H127203   1.533   4.566   2.302 -0.6357 -0.5305 -0.6145
 1856TIP3    H227204   1.555   4.423   2.345 -0.2513 -0.4467 -0.5254
 1857TIP3   OH227205   3.970   2.677   9.830  0.4275 -0.1183  0.5862
 1857TIP3    H127206   4.053   2.707   9.792  0.5720  1.2498  1.8923
 1857TIP3    H227207   3.935   2.615   9.765  0.2834  2.6140 -2.1770
 1858TIP3   OH227208   6.257   5.787   6.879  0.4902 -0.1175 -0.0543
 1858TIP3    H127209   6.272   5.876   6.850 -0.4537  0.3408  0.8148
 1858TIP3    H227210   6.244   5.794   6.974  0.8991 -1.2414  0.1084
 1859TIP3   OH227211   6.387   2.538   0.590 -0.2313  0.1041 -0.4292
 1859TIP3    H127212   6.457   2.511   0.649 -1.0579  0.3493  0.7061
 1859TIP3    H227213   6.406   2.630   0.571 -0.5631  0.3447  0.3664
 1860TIP3   OH227214   4.034   0.125   2.760 -0.1033 -0.1192  0.1750
 1860TIP3    H127215   3.990   0.161   2.837  0.1564 -0.5607  0.5326
 1860TIP3    H227216   4.126   0.145   2.774 -0.3285  2.6328 -1.5386
 1861TIP3   OH227217   6.273   1.354   0.420 -0.4297 -0.4372 -0.0758
 1861TIP3    H127218   6.302   1.380   0.507 -0.1296 -1.3118  0.0941
 1861TIP3    H227219   6.190   1.308   0.435 -1.5757  1.3955 -0.4863
 1862TIP3   OH227220   0.473   4.904   9.154 -0.4865  0.0996  0.2646
 1862TIP3    H127221   0.389   4.862   9.136 -0.5098  0.5999 -0.8950
 1862TIP3    H227222   0.481   4.971   9.086  1.0690 -0.2576  0.0454
 1863TIP3   OH227223   1.943   4.041   0.673  0.5565 -0.1632  0.3231
 1863TIP3    H127224   2.027   4.088   0.672  0.7678 -0.5271 -0.6500
 1863TIP3    H227225   1.912   4.048   0.583 -0.0602 -0.7417  0.4894
 1864TIP3   OH227226   1.450   1.852   8.872  0.6365  0.4122 -0.5156
 1864TIP3    H127227   1.390   1.898   8.931 -1.2589 -1.0667 -1.1845
 1864TIP3    H227228   1.511   1.919   8.843  0.8813  1.4548  2.1274
 1865TIP3   OH227229   6.411   0.554   7.867 -0.4847  0.1868 -0.0564
 1865TIP3    H127230   6.373   0.642   7.875 -1.3320 -0.1766  0.0605
 1865TIP3    H227231   6.356   0.500   7.924  1.6928  0.0613  2.0766
 1866TIP3   OH227232   6.393   2.213   9.085  0.3223 -0.3891  0.0747
 1866TIP3    H127233   6.308   2.208   9.041 -0.1156  1.0739  0.7071
 1866TIP3    H227234   6.403   2.305   9.108  1.1601 -0.8713  1.8058
 1867TIP3   OH227235   5.471   2.056   3.064  0.4396  0.0603  0.0238
 1867TIP3    H127236   5.556   2.097   3.047  1.2530 -1.7063 -0.4265
 1867TIP3    H227237   5.462   2.059   3.159  0.0117  2.0667 -0.0292
 1868TIP3   OH227238   2.121   4.906   8.934  0.2579  0.0941 -0.2179
 1868TIP3    H127239   2.182   4.979   8.946  0.3569  0.1271 -0.8827
 1868TIP3    H227240   2.174   4.837   8.896 -0.0456 -0.0006 -0.4672
 1869TIP3   OH227241   6.157   5.344   3.191  0.5731  0.1750  0.0215
 1869TIP3    H127242   6.208   5.420   3.164 -0.5209  1.5016  1.4368
 1869TIP3    H227243   6.119   5.370   3.276  0.2246 -1.9941  0.5911
 1870TIP3   OH227244   5.465   0.607   8.988  0.2854  0.6267 -0.1831
 1870TIP3    H127245   5.434   0.524   8.952 -0.7380  1.7235 -2.0193
 1870TIP3    H227246   5.513   0.583   9.068 -0.5530 -1.6390 -0.2906
 1871TIP3   OH227247   4.572   4.890   1.501 -0.3169 -0.5548  0.1539
 1871TIP3    H127248   4.505   4.836   1.543 -0.1337 -0.1213  1.0180
 1871TIP3    H227249   4.580   4.853   1.413 -2.0543 -0.3128 -0.1531
 1872TIP3   OH227250   2.250   4.277   3.008 -0.2724  0.5845  0.6364
 1872TIP3    H127251   2.337   4.308   2.983  0.1719  0.4315  1.9098
 1872TIP3    H227252   2.194   4.354   3.002  0.0151  0.7504  0.0940
 1873TIP3   OH227253   0.499   6.183   2.008  0.4834 -0.6226  0.0848
 1873TIP3    H127254   0.477   6.231   2.088  1.0326  0.1151 -0.1936
 1873TIP3    H227255   0.512   6.251   1.942 -1.2970 -1.2554 -1.0054
 1874TIP3   OH227256   5.765   4.758   9.326 -0.0623 -0.2313 -0.4554
 1874TIP3    H127257   5.797   4.680   9.372 -0.7084  0.9996  2.2985
 1874TIP3    H227258   5.831   4.775   9.259  0.4901 -2.6570 -0.6089
 1875TIP3   OH227259   1.004   3.466   8.976 -0.3642 -0.4229 -0.4075
 1875TIP3    H127260   0.974   3.394   8.921  0.8975  0.1783 -1.9812
 1875TIP3    H227261   0.925   3.497   9.021 -1.2413 -1.6539 -1.0428
 1876TIP3   OH227262   2.550   3.813   0.925  0.1017 -0.5347  0.0910
 1876TIP3    H127263   2.572   3.885   0.983  0.4766  0.9429 -1.7668
 1876TIP3    H227264   2.455   3.804   0.933 -0.2238  1.4426 -0.9653
 1877TIP3   OH227265   2.625   4.308   8.135 -0.0691 -0.1330 -0.2967
 1877TIP3    H127266   2.567   4.235   8.156  0.0752  0.1680  1.3054
 1877TIP3    H227267   2.621   4.316   8.040 -2.7029 -0.0954 -0.2617
 1878TIP3   OH227268   2.602   4.339  10.015  0.2310  0.7129 -0.1023
 1878TIP3    H127269   2.551   4.410   9.976  0.3562  0.7888 -0.1295
 1878TIP3    H227270   2.597   4.268   9.951  1.7580  1.3784 -1.0113
 1879TIP3   OH227271   1.411   4.290   3.343 -0.0935 -0.1631  0.0836
 1879TIP3    H127272   1.459   4.325   3.418  1.8605 -0.6075 -0.8966
 1879TIP3    H227273   1.416   4.360   3.277  2.7860 -1.6469 -1.4491
 1880TIP3   OH227274   2.480   0.848   7.875 -0.2639  0.3325  0.4485
 1880TIP3    H127275   2.476   0.755   7.895  0.3990  0.4596  1.2369
 1880TIP3    H227276   2.418   0.888   7.937  0.1849  0.5093  0.7884
 1881TIP3   OH227277   3.799   5.857   8.698 -0.1063 -0.2013 -0.0476
 1881TIP3    H127278   3.860   5.843   8.626  0.1563 -2.1436  0.4794
 1881TIP3    H227279   3.851   5.898   8.767  0.0765  0.0578 -0.3393
 1882TIP3   OH227280   1.394   4.331   0.809  0.7275 -0.4017  0.3264
 1882TIP3    H127281   1.418   4.297   0.722  0.2064  2.1927 -0.9329
 1882TIP3    H227282   1.378   4.424   0.794 -1.8906 -0.3540  2.7445
 1883TIP3   OH227283   6.192   2.117   8.875  0.3278  0.4949  0.2829
 1883TIP3    H127284   6.107   2.112   8.831  0.7283 -1.3000 -0.3563
 1883TIP3    H227285   6.257   2.110   8.805  1.0058  0.6814  0.8768
 1884TIP3   OH227286   5.673   5.158   9.713  0.4649 -0.4287 -0.3139
 1884TIP3    H127287   5.721   5.078   9.690 -1.2877 -1.7653  0.4711
 1884TIP3    H227288   5.737   5.211   9.761  2.4560 -0.1266 -3.0463
 1885TIP3   OH227289   2.808   2.104   2.365 -0.5220 -0.5661  0.7609
 1885TIP3    H127290   2.864   2.028   2.347  0.4594 -0.7581  3.9879
 1885TIP3    H227291   2.856   2.178   2.329  0.4361 -1.0711  0.9562
 1886TIP3   OH227292   0.259   4.284   2.739  0.1177  0.0014 -0.5097
 1886TIP3    H127293   0.220   4.214   2.688 -1.4935 -0.7111  1.5592
 1886TIP3    H227294   0.233   4.365   2.695 -1.3003 -0.5803 -0.7717
 1887TIP3   OH227295   4.266   3.728   3.178  0.4386  0.3046  0.1290
 1887TIP3    H127296   4.220   3.702   3.098 -1.0309  0.2011  0.9828
 1887TIP3    H227297   4.237   3.665   3.244 -0.4700  1.9481  1.3757
 1888TIP3   OH227298   6.106   5.498   0.240  0.1503  0.2463 -0.2012
 1888TIP3    H127299   6.121   5.434   0.171  0.0508  0.6440 -0.5943
 1888TIP3    H227300   6.193   5.529   0.264  0.3316 -1.1237  1.0471
 1889TIP3   OH227301   5.848   2.035   9.505 -0.3578  0.0831  0.5897
 1889TIP3    H127302   5.856   2.130   9.499  1.3991  0.0170  1.0423
 1889TIP3    H227303   5.770   2.013   9.455  1.0629  1.4609 -2.4796
 1890TIP3   OH227304   2.491   1.373   9.268  0.1136  0.1617 -0.3100
 1890TIP3    H127305   2.554   1.322   9.217  3.0930  0.2484  2.9131
 1890TIP3    H227306   2.500   1.462   9.235  0.3503 -0.1272 -1.0502
 1891TIP3   OH227307   1.792   0.698   9.988 -0.2028 -0.3474 -0.2131
 1891TIP3    H127308   1.787   0.733  10.077 -0.2743  2.6579 -1.2555
 1891TIP3    H227309   1.881   0.666   9.979 -0.2996 -1.0147  1.0375
 1892TIP3   OH227310   3.757   0.515   0.077  0.7327 -0.2341  0.1292
 1892TIP3    H127311   3.687   0.455   0.053  1.5650 -1.3722  0.4564
 1892TIP3    H227312   3.757   0.514   0.173  0.7634  0.2853  0.1374
 1893TIP3   OH227313   0.415   3.564   0.299 -0.1090  0.4753  0.1092
 1893TIP3    H127314   0.373   3.542   0.216 -0.7643  0.5052  0.4295
 1893TIP3    H227315   0.448   3.653   0.286  2.2788 -0.4754 -1.0848
 1894TIP3   OH227316   3.762   0.314   9.781 -0.1267  0.4904 -0.6677
 1894TIP3    H127317   3.795   0.372   9.712 -1.8668  2.1612 -0.1976
 1894TIP3    H227318   3.667   0.318   9.772 -0.3999  0.5141  1.5859
 1895TIP3   OH227319   6.208   4.018   9.404 -0.1730  0.3635  0.0892
 1895TIP3    H127320   6.267   4.022   9.329 -1.0120  2.0677 -0.5355
 1895TIP3    H227321   6.124   4.049   9.370 -1.4096 -1.7766  1.0025
 1896TIP3   OH227322   3.097   3.910   3.893 -0.4204 -0.4889 -0.3232
 1896TIP3    H127323   3.086   3.896   3.987  1.4398 -1.4277 -0.1980
 1896TIP3    H227324   3.187   3.941   3.884 -0.6850 -0.0631 -1.7802
 1897TIP3   OH227325   6.415   5.387   1.392  0.5051  0.7773  0.3671
 1897TIP3    H127326   6.388   5.362   1.304 -0.4288 -3.2405  1.5749
 1897TIP3    H227327   6.335   5.419   1.433  0.0639 -0.6806  0.7066
 1898TIP3   OH227328   1.162   3.469   1.180  0.4425  0.3326  0.1522
 1898TIP3    H127329   1.073   3.454   1.212  0.3609 -1.1803 -0.7048
 1898TIP3    H227330   1.210   3.499   1.257 -0.2663 -1.0802  1.1825
 1899TIP3   OH227331   2.324   0.812   9.525 -0.1934  0.4413  0.5068
 1899TIP3    H127332   2.241   0.832   9.481 -1.0305  0.1193  1.8633
 1899TIP3    H227333   2.392   0.841   9.464 -1.2782 -0.4064 -1.1585
 1900TIP3   OH227334   3.970   5.948   9.134  0.1426 -0.4407  0.4069
 1900TIP3    H127335   3.885   5.906   9.145  0.7480 -1.7867  0.0381
 1900TIP3    H227336   4.034   5.882   9.161  1.1129  0.2626 -0.1007
 1901TIP3   OH227337   6.118   0.578   1.008  0.4449  0.0126 -0.1390
 1901TIP3    H127338   6.110   0.488   0.975 -0.7508  0.6632 -1.7680
 1901TIP3    H227339   6.083   0.632   0.938  0.4190  1.7078  1.1213
 1902TIP3   OH227340   2.551   1.644   1.073 -0.6263 -0.6933 -0.0022
 1902TIP3    H127341   2.491   1.574   1.097 -2.1939  0.8459  0.7838
 1902TIP3    H227342   2.532   1.714   1.134  1.5443  0.1239 -0.1595
 1903TIP3   OH227343   1.990   4.856   0.760 -0.4691 -0.3283  0.6013
 1903TIP3    H127344   2.001   4.811   0.677 -0.9534 -0.2022  0.4634
 1903TIP3    H227345   2.071   4.840   0.808  1.0694  1.9908 -1.0216
 1904TIP3   OH227346   6.387   2.425   3.325 -0.1690 -0.3735  0.3279
 1904TIP3    H127347   6.424   2.380   3.249 -0.9571  0.1195 -0.3574
 1904TIP3    H227348   6.300   2.454   3.297 -1.0775 -1.4453  1.8918
 1905TIP3   OH227349   0.960   5.664   2.336 -0.0873 -0.7915  0.4721
 1905TIP3    H127350   0.923   5.653   2.249  0.9974 -3.2921  0.2429
 1905TIP3    H227351   1.022   5.737   2.326  0.1903 -1.1878 -0.9203
 1906TIP3   OH227352   5.068   1.422   9.423 -1.1489 -0.0771  0.0956
 1906TIP3    H127353   5.028   1.373   9.495  1.9483  0.2586  2.2767
 1906TIP3    H227354   5.136   1.363   9.390 -0.8647  0.7532 -0.8360
 1907TIP3   OH227355   5.286   1.234   1.428 -0.1976  1.1264 -0.1721
 1907TIP3    H127356   5.310   1.287   1.352  0.8410  0.7623 -0.1206
 1907TIP3    H227357   5.340   1.268   1.500  0.9634 -0.3576 -0.2834
 1908TIP3   OH227358   6.353   1.691   1.665 -0.1932 -0.2065  0.6085
 1908TIP3    H127359   6.313   1.622   1.611  0.3733 -0.7808  0.9009
 1908TIP3    H227360   6.314   1.772   1.634 -2.7582 -0.8467  1.8882
 1909TIP3   OH227361   2.977   5.311   9.664 -0.0874  0.6108 -0.7573
 1909TIP3    H127362   2.911   5.380   9.668  0.8675  1.5521 -0.7409
 1909TIP3    H227363   3.044   5.345   9.605  0.4921 -0.2160 -0.5930
 1910TIP3   OH227364   5.733   4.491   0.814 -0.9746  0.0984 -0.1249
 1910TIP3    H127365   5.641   4.516   0.821 -0.5588  1.2260  3.7611
 1910TIP3    H227366   5.777   4.569   0.780 -1.6175 -1.6368 -6.0943
 1911TIP3   OH227367   3.160   0.140   1.433 -0.0353  0.3981  0.2768
 1911TIP3    H127368   3.141   0.233   1.419  0.1786  0.3518 -0.3230
 1911TIP3    H227369   3.250   0.129   1.402  0.3196  0.2034  1.3128
 1912TIP3   OH227370   4.719   6.048   9.409  0.5591 -0.3221  0.3117
 1912TIP3    H127371   4.790   5.984   9.409 -0.9377 -2.0806  0.5142
 1912TIP3    H227372   4.678   6.038   9.495 -0.4273  0.0550 -0.0969
 1913TIP3   OH227373   5.811   1.675   2.115  0.0201 -0.1860  0.4895
 1913TIP3    H127374   5.728   1.687   2.161  0.0249  0.1366  0.4192
 1913TIP3    H227375   5.873   1.649   2.182  0.4219  1.8856  0.9823
 1914TIP3   OH227376   4.668   3.644   3.322  0.5901 -0.0895 -0.4427
 1914TIP3    H127377   4.617   3.564   3.334  1.1618 -0.3489  0.3413
 1914TIP3    H227378   4.656   3.667   3.230 -0.0276 -0.7714 -0.5365
 1915TIP3   OH227379   1.286   1.073   1.418 -0.4786  0.4617  0.1580
 1915TIP3    H127380   1.334   1.002   1.376  1.2418  2.3552 -1.3035
 1915TIP3    H227381   1.294   1.055   1.512 -1.2548 -1.9154 -0.1541
 1916TIP3   OH227382   1.337   2.883   2.074  0.2440 -0.4901 -0.5021
 1916TIP3    H127383   1.330   2.920   2.162 -0.2485  0.7603 -1.0267
 1916TIP3    H227384   1.421   2.916   2.041 -0.7549  1.3161 -1.4291
 1917TIP3   OH227385   5.807   4.244   9.262  0.2598 -0.5364  0.1210
 1917TIP3    H127386   5.725   4.257   9.214  0.7913  0.7690 -0.4847
 1917TIP3    H227387   5.781   4.252   9.354 -0.2076  0.5667 -0.0847
 1918TIP3   OH227388   4.595   0.444   9.160 -0.0109  0.1413  0.3283
 1918TIP3    H127389   4.634   0.360   9.183 -0.8550 -0.5736 -0.7655
 1918TIP3    H227390   4.508   0.422   9.125 -0.1153  1.4379 -0.2891
 1919TIP3   OH227391   6.346   3.874   1.055  0.3693 -0.2870 -0.2506
 1919TIP3    H127392   6.370   3.782   1.056  0.3903 -0.2795 -0.0346
 1919TIP3    H227393   6.393   3.912   1.130 -1.6228 -0.6026  1.2404
 1920TIP3   OH227394   1.376   6.077   0.052 -0.7096 -0.0545  0.0794
 1920TIP3    H127395   1.311   6.017   0.014 -0.5724  0.0183 -0.2674
 1920TIP3    H227396   1.443   6.019   0.089 -1.8430 -0.2039  2.0596
 1921TIP3   OH227397   1.178   5.417   9.171  0.2617  0.6719  0.0746
 1921TIP3    H127398   1.123   5.361   9.116  3.0577 -1.5143 -0.7292
 1921TIP3    H227399   1.129   5.424   9.254 -0.5870 -2.4693 -0.0166
 1922TIP3   OH227400   4.798   0.356   0.375  0.4160 -0.6299  0.0298
 1922TIP3    H127401   4.813   0.378   0.467  1.5366 -0.8593 -0.0792
 1922TIP3    H227402   4.885   0.357   0.336 -0.3069  2.9106 -1.8501
 1923TIP3   OH227403   2.596   2.642   3.256 -0.1727  0.0059 -0.6802
 1923TIP3    H127404   2.676   2.630   3.306 -0.5162  0.7924  0.0742
 1923TIP3    H227405   2.525   2.630   3.319 -0.7114 -1.7049 -1.5370
 1924TIP3   OH227406   0.444   6.239   7.617  0.2103  0.0305 -0.4448
 1924TIP3    H127407   0.535   6.252   7.588  0.2340  0.4558 -0.1830
 1924TIP3    H227408   0.402   6.195   7.543  0.7483 -0.6045 -0.3839
 1925TIP3   OH227409   5.197   4.516   1.962  0.1469 -0.4487  0.1590
 1925TIP3    H127410   5.116   4.486   1.920  1.2395 -1.3564 -1.3939
 1925TIP3    H227411   5.183   4.499   2.055 -1.2121 -1.1899 -0.1504
 1926TIP3   OH227412   2.964   3.793   0.378  0.7029 -0.3720 -0.3504
 1926TIP3    H127413   2.933   3.711   0.417  0.6965 -0.4892 -0.6030
 1926TIP3    H227414   2.951   3.781   0.284  1.8235 -0.5433 -0.4911
 1927TIP3   OH227415   5.864   5.733   2.945  0.3085 -0.2803 -0.8639
 1927TIP3    H127416   5.920   5.687   2.883 -0.2260 -0.2403 -1.3870
 1927TIP3    H227417   5.888   5.698   3.031  2.2055  0.7976 -0.8804
 1928TIP3   OH227418   1.553   2.792   1.103 -0.0768 -0.1571  0.3033
 1928TIP3    H127419   1.479   2.784   1.043  0.7570 -2.8327 -0.5041
 1928TIP3    H227420   1.583   2.702   1.117  3.8881  0.8258 -0.5783
 1929TIP3   OH227421   5.890   2.801   0.460 -0.5302  0.2539 -0.0269
 1929TIP3    H127422   5.820   2.810   0.524  0.4336  1.3897  0.9267
 1929TIP3    H227423   5.905   2.707   0.453 -1.9422  0.0210 -0.0443
 1930TIP3   OH227424   0.212   0.180   2.122  0.1331 -0.1561  0.8431
 1930TIP3    H127425   0.303   0.152   2.112 -0.5256 -2.4242  0.6947
 1930TIP3    H227426   0.176   0.123   2.190 -0.5168  2.5358  2.9416
 1931TIP3   OH227427   6.142   5.071   0.332  0.4452  0.1503  0.1889
 1931TIP3    H127428   6.184   4.986   0.317  1.1210  0.3785  0.7488
 1931TIP3    H227429   6.048   5.051   0.331  0.6037 -0.6574  0.6098
 1932TIP3   OH227430   5.118   6.245   2.775 -0.0932  0.7705  0.1576
 1932TIP3    H127431   5.065   6.298   2.715  0.0137  0.3088 -0.3544
 1932TIP3    H227432   5.111   6.289   2.859  0.2439  1.7755 -0.3301
 1933TIP3   OH227433   6.088   4.370   0.614 -0.1287  0.0109  0.4005
 1933TIP3    H127434   5.994   4.377   0.596 -0.1548  0.4944  0.6994
 1933TIP3    H227435   6.127   4.442   0.565  0.1228 -0.3692  0.0410
 1934TIP3   OH227436   0.197   0.881   1.583 -0.2934  0.2915  0.2524
 1934TIP3    H127437   0.166   0.967   1.610  1.6038  1.4599 -1.0649
 1934TIP3    H227438   0.290   0.881   1.606  0.1726 -0.6570 -1.4591
 1935TIP3   OH227439   4.647   0.344   1.848 -0.3834  0.2991  0.1561
 1935TIP3    H127440   4.662   0.388   1.932 -1.5145  0.8758  0.0819
 1935TIP3    H227441   4.731   0.305   1.825  0.0659  0.5557  1.3185
 1936TIP3   OH227442   2.816   0.325   9.895 -0.2756  0.3673 -0.2229
 1936TIP3    H127443   2.726   0.355   9.907 -0.5819 -0.2345 -0.9143
 1936TIP3    H227444   2.848   0.375   9.820 -0.5954 -0.5609 -1.0126
 1937TIP3   OH227445   6.206   3.872   2.018  0.5123 -0.0759 -0.1144
 1937TIP3    H127446   6.254   3.930   1.959  0.4461  0.3056  0.1991
 1937TIP3    H227447   6.114   3.896   2.006  0.5110  0.1283  0.2665
 1938TIP3   OH227448   6.019   1.834   8.450  0.8534 -0.5014  0.1619
 1938TIP3    H127449   5.984   1.902   8.392 -0.1009 -0.2779  0.9570
 1938TIP3    H227450   6.113   1.850   8.452  0.8208 -0.1036 -0.7870
 1939TIP3   OH227451   3.787   4.438   3.747  0.3670 -0.0689 -0.0998
 1939TIP3    H127452   3.807   4.513   3.691  3.9095  0.0550  1.0724
 1939TIP3    H227453   3.870   4.391   3.754 -1.0476 -2.5022  1.5304
 1940TIP3   OH227454   1.594   2.053   9.184 -0.1192  0.0237  0.2280
 1940TIP3    H127455   1.559   1.964   9.186 -0.7008  0.2624  1.8196
 1940TIP3    H227456   1.519   2.109   9.205  1.1355  0.5243  4.0985
 1941TIP3   OH227457   2.841   4.193   9.938 -0.3116 -0.1061 -0.8321
 1941TIP3    H127458   2.928   4.216   9.971 -0.4524 -1.7568  0.8254
 1941TIP3    H227459   2.782   4.254   9.981  0.0283  1.5204 -2.5336
 1942TIP3   OH227460   3.246   1.032   8.781  0.1541 -0.1484 -0.0530
 1942TIP3    H127461   3.186   0.963   8.752  0.0285 -0.4471  0.9043
 1942TIP3    H227462   3.228   1.043   8.874 -1.1150  2.4694 -0.5112
 1943TIP3   OH227463   0.885   3.496   1.347 -0.3499 -0.1479  0.2463
 1943TIP3    H127464   0.877   3.401   1.359 -0.4914 -0.4337 -1.8061
 1943TIP3    H227465   0.794   3.525   1.333 -0.1805  0.0861 -0.3873
 1944TIP3   OH227466   5.951   3.336   3.500 -0.5504  0.2012 -0.0775
 1944TIP3    H127467   5.951   3.254   3.450  0.0769  0.0716  0.1326
 1944TIP3    H227468   5.859   3.348   3.525 -0.6858 -0.3112 -0.3161
 1945TIP3   OH227469   3.572   4.954   2.823 -0.5515  0.7820  0.0797
 1945TIP3    H127470   3.549   5.031   2.772 -2.4240  0.0625 -0.2400
 1945TIP3    H227471   3.590   4.886   2.757 -0.0741  0.6167  0.3696
 1946TIP3   OH227472   0.168   2.777   2.968 -0.3543  0.0655 -0.3345
 1946TIP3    H127473   0.151   2.706   3.031  0.6218 -1.4820 -1.7316
 1946TIP3    H227474   0.263   2.779   2.959 -0.4807 -1.0346 -3.0357
 1947TIP3   OH227475   3.058   4.937   0.364  0.0199  0.4439  0.4715
 1947TIP3    H127476   3.052   4.903   0.453  0.4740  2.0524  1.1645
 1947TIP3    H227477   3.096   4.865   0.313  0.3538 -0.2861  1.7121
 1948TIP3   OH227478   0.656   4.894   1.984 -0.4652  0.2550 -0.2239
 1948TIP3    H127479   0.692   4.846   2.059 -1.7064  1.1398  0.9972
 1948TIP3    H227480   0.677   4.985   2.003 -3.2298  0.8202  0.5709
 1949TIP3   OH227481   2.444   5.070   2.366  0.0878  0.1864  0.5877
 1949TIP3    H127482   2.509   5.012   2.405  0.8309 -0.4882 -1.5660
 1949TIP3    H227483   2.362   5.046   2.410  1.1757  0.9302  3.2149
 1950TIP3   OH227484   2.658   2.853   1.405  0.1741 -0.2231  0.7040
 1950TIP3    H127485   2.753   2.838   1.403  0.4279  1.0221  2.1102
 1950TIP3    H227486   2.624   2.796   1.336  1.9729 -0.4623 -0.0461
 1951TIP3   OH227487   2.352   6.105   0.484 -0.1005  0.0465  0.2813
 1951TIP3    H127488   2.342   6.194   0.515  4.0729  0.3557  1.2029
 1951TIP3    H227489   2.358   6.052   0.563 -0.4398 -0.7809 -0.2299
 1952TIP3   OH227490   3.544   5.259   3.771 -0.2262  0.9319 -0.6574
 1952TIP3    H127491   3.638   5.274   3.755 -0.6275  1.2654 -3.0953
 1952TIP3    H227492   3.533   5.275   3.864  1.8372  2.6532 -0.6256
 1953TIP3   OH227493   4.842   3.781   1.327 -0.0241  0.7010 -0.2683
 1953TIP3    H127494   4.789   3.858   1.348  0.6873  0.4339  3.1531
 1953TIP3    H227495   4.924   3.796   1.375  0.2164 -2.0284  0.3141
 1954TIP3   OH227496   0.939   4.197   8.040  0.8309  0.3826 -0.6356
 1954TIP3    H127497   0.914   4.114   7.999 -1.5421  0.7544 -0.0969
 1954TIP3    H227498   0.908   4.264   7.979  1.9589  0.8930 -0.6613
 1955TIP3   OH227499   3.898   0.935   9.196 -0.2113 -0.0821 -0.3593
 1955TIP3    H127500   3.915   1.012   9.142  1.5828 -1.0168 -1.2310
 1955TIP3    H227501   3.835   0.883   9.146  0.6076 -0.4226 -1.0597
 1956TIP3   OH227502   1.374   5.690   8.265 -0.1958  0.3325 -0.0084
 1956TIP3    H127503   1.408   5.695   8.355  0.7191  1.3964 -0.3954
 1956TIP3    H227504   1.401   5.603   8.235 -2.1628 -0.8439  1.3479
 1957TIP3   OH227505   2.001   0.282   9.642  0.2139  0.2379 -0.7542
 1957TIP3    H127506   2.018   0.254   9.552 -0.2798  0.6250 -0.9709
 1957TIP3    H227507   2.017   0.203   9.694 -1.5545 -0.6067 -1.3916
 1958TIP3   OH227508   0.768   6.353   9.485  0.2306 -0.5225 -0.1723
 1958TIP3    H127509   0.854   6.395   9.485 -0.0322  0.0723  1.1340
 1958TIP3    H227510   0.746   6.344   9.578 -1.5537  0.2392 -0.4948
 1959TIP3   OH227511   1.611   0.011   8.944  0.3198  0.1122 -0.3824
 1959TIP3    H127512   1.567   0.035   9.026 -0.6939 -1.5135 -0.4042
 1959TIP3    H227513   1.699  -0.016   8.970  0.1236 -0.0379  0.1283
 1960TIP3   OH227514   5.786   3.670   9.375  0.9094 -0.1318 -0.0618
 1960TIP3    H127515   5.835   3.750   9.392  1.3165 -0.3626 -0.1353
 1960TIP3    H227516   5.726   3.693   9.304 -0.3024  0.6367  1.1526
 1961TIP3   OH227517   2.666   2.894   0.974  0.1774  0.1443  0.2631
 1961TIP3    H127518   2.583   2.870   0.932  0.0143  1.2348 -0.0721
 1961TIP3    H227519   2.732   2.846   0.925 -0.2417 -0.6711  0.4782
 1962TIP3   OH227520   5.205   5.819   1.881 -0.1459  0.0473 -0.0968
 1962TIP3    H127521   5.216   5.799   1.974  2.0432  0.7798 -0.1442
 1962TIP3    H227522   5.276   5.771   1.837  0.1724  1.3776 -1.1230
 1963TIP3   OH227523   1.169   2.729   8.366 -0.2824  0.0735 -0.3639
 1963TIP3    H127524   1.219   2.693   8.292  0.3629  0.9883 -0.3847
 1963TIP3    H227525   1.124   2.805   8.331 -0.9282 -0.1819 -0.0997
 1964TIP3   OH227526   0.642   5.128   9.003 -0.1703 -0.0973  0.4472
 1964TIP3    H127527   0.579   5.150   8.935 -0.4896 -1.6438  0.2019
 1964TIP3    H227528   0.712   5.080   8.958 -0.8632 -2.0129  1.2788
 1965TIP3   OH227529   2.454   1.625   1.926 -0.4415 -0.5688 -0.0747
 1965TIP3    H127530   2.469   1.542   1.970 -1.8757 -0.4999  0.6354
 1965TIP3    H227531   2.540   1.653   1.895  0.4618 -1.1083  1.8364
 1966TIP3   OH227532   0.603   0.849   2.004  0.0687  0.0667  0.3312
 1966TIP3    H127533   0.562   0.926   2.044  1.4560  0.7680  0.4517
 1966TIP3    H227534   0.543   0.823   1.934 -1.5698 -0.1631  1.7499
 1967TIP3   OH227535   0.817   5.423   2.190  0.4108 -0.3918 -0.5248
 1967TIP3    H127536   0.813   5.393   2.281 -3.3668  3.5666  1.0152
 1967TIP3    H227537   0.909   5.445   2.176  1.4311 -2.7664  1.6101
 1968TIP3   OH227538   4.193   3.242   3.043  0.4024  0.6150 -0.1678
 1968TIP3    H127539   4.202   3.204   3.131  0.5968  1.8551  0.3613
 1968TIP3    H227540   4.107   3.285   3.045 -0.8746 -1.6424 -1.5164
 1969TIP3   OH227541   1.359   2.890   7.694  0.4194  0.1363 -0.8810
 1969TIP3    H127542   1.299   2.963   7.678 -0.9615 -0.4224  1.3291
 1969TIP3    H227543   1.317   2.815   7.651 -0.3796 -0.1950  0.4254
 1970TIP3   OH227544   2.339   3.924   0.129 -0.0049 -0.7137  0.5395
 1970TIP3    H127545   2.354   3.990   0.061 -0.1619  0.1779  1.3429
 1970TIP3    H227546   2.359   3.970   0.211 -1.2521 -1.3094  1.2093
 1971TIP3   OH227547   2.322   3.930   2.534 -0.0629 -0.0917 -0.1488
 1971TIP3    H127548   2.266   3.906   2.460 -1.1395  1.1275  0.2473
 1971TIP3    H227549   2.403   3.882   2.518 -0.9125 -1.2430 -1.1726
 1972TIP3   OH227550   3.063   3.427   9.211  0.0291 -0.1810  0.3503
 1972TIP3    H127551   3.082   3.499   9.271 -1.6805  0.0404  0.6601
 1972TIP3    H227552   3.033   3.469   9.131 -1.2980 -0.5199  0.6431
 1973TIP3   OH227553   0.765   5.209   9.732  0.6538  0.3517 -0.2017
 1973TIP3    H127554   0.728   5.266   9.665 -0.0855  0.2399  0.0948
 1973TIP3    H227555   0.860   5.222   9.726  0.6101  0.2032 -1.3827
 1974TIP3   OH227556   4.678   3.576   0.244  0.0239  0.0806 -0.1204
 1974TIP3    H127557   4.663   3.614   0.331  0.8146  0.8198 -0.3040
 1974TIP3    H227558   4.732   3.640   0.198  0.1519 -0.5996 -0.9405
 1975TIP3   OH227559   0.282   1.364   9.441 -0.0279 -0.2285 -0.1296
 1975TIP3    H127560   0.193   1.336   9.418  0.0650 -2.5136  1.9810
 1975TIP3    H227561   0.272   1.407   9.526  0.7973  0.3478 -0.3120
 1976TIP3   OH227562   5.968   3.063   7.781  0.2082  0.5120  0.1758
 1976TIP3    H127563   5.877   3.033   7.785  0.1421 -0.1514 -3.2910
 1976TIP3    H227564   6.020   2.984   7.796  0.1185  0.1492 -1.2761
 1977TIP3   OH227565   4.275   2.098   8.831  0.6222 -0.5798 -0.4539
 1977TIP3    H127566   4.266   2.172   8.771 -1.1000 -0.2990  0.0804
 1977TIP3    H227567   4.185   2.078   8.858  1.0359 -2.8189 -0.5011
 1978TIP3   OH227568   0.851   5.986   8.930  0.1354 -0.3177  0.4364
 1978TIP3    H127569   0.878   6.038   9.006 -0.1655 -0.6247  0.7590
 1978TIP3    H227570   0.758   6.008   8.919 -0.2555 -1.5195  1.1875
 1979TIP3   OH227571   3.460   6.283   2.490 -0.3537  0.0284  0.0721
 1979TIP3    H127572   3.517   6.218   2.529  0.2281  0.6295  0.2507
 1979TIP3    H227573   3.372   6.258   2.517 -0.4249 -2.0527 -1.8355
 1980TIP3   OH227574   6.386   4.529   0.001  0.0118  0.3065 -0.0991
 1980TIP3    H127575   6.309   4.516   0.056 -0.4257  1.2599 -0.4610
 1980TIP3    H227576   6.408   4.442  -0.032 -1.2336  0.1027 -0.4144
 1981TIP3   OH227577   5.657   5.371   9.152  0.3106 -0.1892  0.0414
 1981TIP3    H127578   5.747   5.373   9.121 -0.7081  0.2383 -3.3342
 1981TIP3    H227579   5.631   5.463   9.156  0.8215 -0.0382  4.1726
 1982TIP3   OH227580   1.145   0.215   8.480 -0.1710 -0.4068  0.1627
 1982TIP3    H127581   1.197   0.162   8.419  1.6720  2.3757 -0.8801
 1982TIP3    H227582   1.183   0.198   8.566  1.3888  0.2575 -0.3582
 1983TIP3   OH227583   1.827   0.284   8.017 -0.0122  0.6744 -0.1864
 1983TIP3    H127584   1.903   0.241   8.056  0.4219 -2.4427 -3.8508
 1983TIP3    H227585   1.753   0.254   8.071  1.0260  1.9087  2.0595
 1984TIP3   OH227586   4.023   2.428   1.452  0.4950  0.5069 -0.3242
 1984TIP3    H127587   3.963   2.485   1.404  0.1242 -0.1449 -0.6420
 1984TIP3    H227588   4.018   2.459   1.542 -0.2734  0.4899 -0.3596
 1985TIP3   OH227589   2.827   4.530   2.431  0.0659  0.2479 -0.1034
 1985TIP3    H127590   2.907   4.498   2.389  0.4240  1.4662 -0.4101
 1985TIP3    H227591   2.787   4.586   2.364 -0.1409  1.0255  0.6639
 1986TIP3   OH227592   4.918   4.229   3.155  0.3246 -0.7863  0.3143
 1986TIP3    H127593   4.884   4.310   3.194 -0.6553 -0.4172 -1.1870
 1986TIP3    H227594   4.912   4.164   3.225 -3.3490 -0.6823  0.3190
 1987TIP3   OH227595   0.971   4.794   8.196 -0.8458 -0.4224 -0.0844
 1987TIP3    H127596   1.036   4.826   8.134 -0.6832 -0.1364  0.2246
 1987TIP3    H227597   1.017   4.726   8.246 -0.7129 -0.0625  0.2853
 1988TIP3   OH227598   4.616   4.508   9.951  0.2166  0.0761  0.3482
 1988TIP3    H127599   4.704   4.494   9.917  0.5159 -0.4150  1.2662
 1988TIP3    H227600   4.586   4.420   9.975 -1.2135  0.0050 -1.5326
 1989TIP3   OH227601   0.830   1.535   9.203  0.0517 -0.0419  0.2587
 1989TIP3    H127602   0.785   1.460   9.242  0.4344  0.0497  0.8791
 1989TIP3    H227603   0.782   1.552   9.122  0.1980 -1.2110 -0.0984
 1990TIP3   OH227604   4.457   5.003   9.789  0.1973  0.1152 -0.0270
 1990TIP3    H127605   4.506   4.921   9.796  1.1976  0.7832  1.3706
 1990TIP3    H227606   4.523   5.071   9.805 -1.0591  1.0728  1.3622
 1991TIP3   OH227607   2.504   5.463   0.989 -0.1190  0.7487  0.0967
 1991TIP3    H127608   2.445   5.462   1.065 -0.2209 -1.5481  0.0570
 1991TIP3    H227609   2.592   5.459   1.027 -0.1953 -2.0162  0.1852
 1992TIP3   OH227610   2.631   3.532   2.572  0.0838 -0.0533 -0.2275
 1992TIP3    H127611   2.552   3.490   2.538  0.4415 -0.9050 -0.0476
 1992TIP3    H227612   2.681   3.557   2.495 -0.5559  0.8723 -0.3455
 1993TIP3   OH227613   4.374   2.084   0.178 -0.3265 -0.5730  0.3720
 1993TIP3    H127614   4.379   2.000   0.133 -0.1957 -0.0593 -0.6080
 1993TIP3    H227615   4.454   2.087   0.231  0.4551 -0.4162 -0.7863
 1994TIP3   OH227616   3.745   6.084   0.020 -0.2175  0.8435  0.0790
 1994TIP3    H127617   3.701   6.010   0.061 -0.2250  0.7193 -0.1513
 1994TIP3    H227618   3.821   6.046  -0.024 -0.7049  0.8386 -0.7846
 1995TIP3   OH227619   1.432   5.082   1.842  0.3002  0.0492  0.2321
 1995TIP3    H127620   1.386   5.025   1.780 -0.2995  0.9331 -0.1661
 1995TIP3    H227621   1.367   5.101   1.909  0.0936  1.2166 -0.2719
 1996TIP3   OH227622   1.269   0.422   1.675  0.2646 -0.0833  0.1225
 1996TIP3    H127623   1.214   0.388   1.746 -0.1382 -0.1997 -0.2442
 1996TIP3    H227624   1.353   0.440   1.717  1.3939 -3.9600 -0.1681
 1997TIP3   OH227625   5.414   4.326   0.245 -0.4905  0.2765 -0.4412
 1997TIP3    H127626   5.459   4.311   0.328  0.1708  1.0345 -0.6509
 1997TIP3    H227627   5.467   4.392   0.200 -1.2127  0.3818 -1.1719
 1998TIP3   OH227628   0.787   0.273   8.494  0.4214  0.6787  0.0882
 1998TIP3    H127629   0.760   0.353   8.539 -0.5648  1.3645 -1.6242
 1998TIP3    H227630   0.827   0.220   8.563  1.2774  2.6936  1.2496
 1999TIP3   OH227631   4.690   5.818   0.586 -0.1574 -0.4609  0.2222
 1999TIP3    H127632   4.720   5.815   0.677  0.0125  2.2685  0.3266
 1999TIP3    H227633   4.678   5.911   0.567 -1.2250 -1.0090 -2.2360
 2000TIP3   OH227634   5.152   4.258   9.611 -0.2028  0.2903 -0.0019
 2000TIP3    H127635   5.147   4.335   9.554  2.1294  2.2418  2.1850
 2000TIP3    H227636   5.113   4.188   9.560  2.1092  1.7252 -4.2263
 2001TIP3   OH227637   4.097   5.436   1.784 -0.2385 -0.5908  0.6208
 2001TIP3    H127638   4.125   5.508   1.728  0.8494 -1.4864 -0.0250
 2001TIP3    H227639   4.171   5.421   1.843 -1.1052 -0.1108  1.8862
 2002TIP3   OH227640   2.639   3.305   2.947  0.4155 -0.4254  0.8115
 2002TIP3    H127641   2.701   3.339   2.882 -2.4864  3.3956 -0.3273
 2002TIP3    H227642   2.675   3.333   3.031  0.3780  1.8088  0.1642
 2003TIP3   OH227643   4.453   1.904   8.062 -0.3849 -0.0718 -0.5391
 2003TIP3    H127644   4.454   1.952   7.979 -0.8248 -1.7050 -1.5358
 2003TIP3    H227645   4.463   1.972   8.129  0.8075  1.2185 -1.9432
 2004TIP3   OH227646   2.700   3.431   9.922  0.6589 -0.2004  0.6402
 2004TIP3    H127647   2.775   3.443   9.980  1.3800  0.4686 -0.3990
 2004TIP3    H227648   2.737   3.393   9.842 -0.2170 -0.5189  0.3712
 2005TIP3   OH227649   2.507   4.655   2.032  0.3165  0.2159 -0.5241
 2005TIP3    H127650   2.430   4.687   1.985  0.6621 -0.2760 -1.4472
 2005TIP3    H227651   2.575   4.719   2.011  0.6547 -0.3844 -1.2762
 2006TIP3   OH227652   2.352   2.378  10.009 -0.1724  0.4066  0.4544
 2006TIP3    H127653   2.324   2.438  10.078 -1.4002  0.9334 -0.4576
 2006TIP3    H227654   2.292   2.304  10.015  1.7503 -1.1262  2.0047
 2007TIP3   OH227655   1.625   1.780   0.578  0.4165 -0.0787 -0.0802
 2007TIP3    H127656   1.647   1.789   0.485 -0.2832  0.4186 -0.2020
 2007TIP3    H227657   1.698   1.730   0.615  1.3604  0.8618 -0.6277
 2008TIP3   OH227658   6.102   1.980   1.873  0.1114  0.3628 -0.4610
 2008TIP3    H127659   6.143   2.047   1.819  0.2497  0.4185 -0.2868
 2008TIP3    H227660   6.025   1.953   1.823 -0.5966  1.4742  0.0087
 2009TIP3   OH227661   3.336   5.232   9.234 -0.0885  0.6747  0.3646
 2009TIP3    H127662   3.266   5.218   9.170  0.7055  0.6275 -0.5179
 2009TIP3    H227663   3.362   5.323   9.222  0.9390  0.3037 -0.2879
 2010TIP3   OH227664   0.829   3.629   1.807 -0.6819  0.6294 -0.2372
 2010TIP3    H127665   0.748   3.595   1.769  0.1161 -0.1207 -1.3225
 2010TIP3    H227666   0.829   3.722   1.783 -1.5231  0.7935  0.3438
 2011TIP3   OH227667   4.598   4.319   2.670  0.0591  0.5538  0.4590
 2011TIP3    H127668   4.545   4.241   2.653  1.0364  0.1613 -0.9481
 2011TIP3    H227669   4.556   4.360   2.746 -2.1408  0.1545 -0.4533
 2012TIP3   OH227670   5.660   4.403   1.094 -0.2981 -0.1424 -0.5072
 2012TIP3    H127671   5.746   4.415   1.135 -1.3747 -0.8918  2.2305
 2012TIP3    H227672   5.664   4.456   1.015  2.8487 -0.5923 -0.8094
 2013TIP3   OH227673   6.021   0.903   1.724 -0.2202 -0.2538  0.3057
 2013TIP3    H127674   5.945   0.892   1.781 -0.8280  0.8508 -0.2691
 2013TIP3    H227675   5.999   0.853   1.645  0.1298 -0.8262  0.5598
 2014TIP3   OH227676   0.903   1.521   2.243  0.1550  0.5778  0.0256
 2014TIP3    H127677   0.902   1.481   2.330 -2.0977  1.2298  0.3838
 2014TIP3    H227678   0.886   1.614   2.259 -0.9032  0.6094 -1.1171
 2015TIP3   OH227679   0.315   2.145   1.573 -0.4512 -0.3119 -0.0616
 2015TIP3    H127680   0.265   2.064   1.560 -2.1217  0.6232  0.1846
 2015TIP3    H227681   0.273   2.187   1.648  0.5803  0.6360  0.0069
 2016TIP3   OH227682   3.935   2.836   0.406  0.2093  0.3752  0.0318
 2016TIP3    H127683   3.907   2.751   0.372 -0.8516  0.5543  0.4427
 2016TIP3    H227684   3.917   2.831   0.500  1.8987  0.3723  0.3977
 2017TIP3   OH227685   1.271   1.999   9.002 -0.3420 -0.1155 -0.1155
 2017TIP3    H127686   1.199   1.984   9.063  0.3245 -1.6979  0.3409
 2017TIP3    H227687   1.235   2.059   8.937 -1.9560 -0.5641  0.3040
 2018TIP3   OH227688   3.809   6.126   0.287  0.6245 -0.5355 -0.5404
 2018TIP3    H127689   3.788   6.139   0.194  0.3128 -0.0338 -0.4051
 2018TIP3    H227690   3.796   6.212   0.327 -0.3655 -1.0026  0.1779
 2019TIP3   OH227691   2.900   1.552   8.346  0.5706  0.2528  0.1312
 2019TIP3    H127692   2.896   1.495   8.270  0.9617 -0.0182  0.3099
 2019TIP3    H227693   2.954   1.626   8.318 -1.0937  1.2676 -0.5610
 2020TIP3   OH227694   3.970   2.583   0.248  0.2964 -0.2325  0.2682
 2020TIP3    H127695   3.997   2.543   0.165  0.7705  0.2735  0.1736
 2020TIP3    H227696   4.020   2.664   0.253 -1.1271  0.6851  0.1420
 2021TIP3   OH227697   2.728   5.650   7.848  0.1819  0.7157  0.3313
 2021TIP3    H127698   2.720   5.662   7.754  0.4642  1.4696  0.3972
 2021TIP3    H227699   2.701   5.559   7.863 -1.2203  0.9976 -0.3011
 2022TIP3   OH227700   6.336   1.422   0.945 -0.3944 -0.4480  0.4440
 2022TIP3    H127701   6.378   1.508   0.947 -0.9943 -0.1471  0.2819
 2022TIP3    H227702   6.318   1.402   1.037 -1.2681  0.1112  0.4050
 2023TIP3   OH227703   0.025   2.105   1.157 -0.0556  0.1763 -0.0708
 2023TIP3    H127704   0.026   2.062   1.071  1.5989  0.8180 -0.3976
 2023TIP3    H227705   0.006   2.035   1.219 -0.1822 -0.4942 -0.8504
 2024TIP3   OH227706   1.374   2.260   7.699 -0.0194  0.7162  0.0770
 2024TIP3    H127707   1.383   2.167   7.679 -0.0598  0.6731  0.2534
 2024TIP3    H227708   1.283   2.270   7.727 -0.2897  0.9910 -0.8773
 2025TIP3   OH227709   3.753   4.275   1.191 -0.1699  0.7967 -0.3412
 2025TIP3    H127710   3.735   4.188   1.156  0.6824  0.7957 -0.7895
 2025TIP3    H227711   3.669   4.303   1.229  0.1342 -1.1757  1.9756
 2026TIP3   OH227712   2.733   3.231   1.993 -0.1087 -0.2064 -0.4522
 2026TIP3    H127713   2.751   3.321   2.020  1.7502 -0.5795 -0.3061
 2026TIP3    H227714   2.820   3.191   1.984 -0.8931 -2.3982  0.8752
 2027TIP3   OH227715   4.484   0.786   9.398  0.1783 -0.2162  0.3328
 2027TIP3    H127716   4.548   0.775   9.469 -0.7237  1.6797  1.5155
 2027TIP3    H227717   4.408   0.828   9.440 -0.7566  0.1297 -1.5780
 2028TIP3   OH227718   4.930   2.037   9.114  0.1083 -0.2413  0.2118
 2028TIP3    H127719   4.994   1.969   9.093  0.9832  0.9494 -1.1167
 2028TIP3    H227720   4.960   2.114   9.067 -0.0709  1.5140  2.7772
 2029TIP3   OH227721   5.252   5.398   9.118 -0.1409 -0.0140  0.0413
 2029TIP3    H127722   5.273   5.385   9.210 -1.6173 -0.1062  0.3946
 2029TIP3    H227723   5.161   5.429   9.118 -0.9557 -2.1605 -1.4818
 2030TIP3   OH227724   5.970   1.409   0.221 -0.1488  0.8849 -0.1383
 2030TIP3    H127725   5.998   1.319   0.207  2.5953  1.1247  2.6718
 2030TIP3    H227726   6.018   1.460   0.155  0.1129  0.5080 -0.2404
 2031TIP3   OH227727   6.223   6.037   0.908 -0.1351  0.3522 -0.4594
 2031TIP3    H127728   6.212   6.008   0.999 -1.3902 -0.1885 -0.7650
 2031TIP3    H227729   6.222   6.132   0.913  0.9649  0.3508  0.2082
 2032TIP3   OH227730   0.208   4.773   9.205 -0.1929  0.2304 -0.5493
 2032TIP3    H127731   0.242   4.774   9.294 -0.2109 -1.9412 -0.4817
 2032TIP3    H227732   0.133   4.833   9.208  1.6790  2.7246  0.0335
 2033TIP3   OH227733   3.303   2.390   8.770  0.0399  0.2439 -0.1240
 2033TIP3    H127734   3.392   2.354   8.764 -0.2479 -0.7690  1.2382
 2033TIP3    H227735   3.274   2.395   8.679  1.2398 -0.0680 -0.5503
 2034TIP3   OH227736   0.422   3.044   8.362 -0.2444 -0.3400 -0.3272
 2034TIP3    H127737   0.406   3.116   8.301  1.0339 -0.1965 -0.5090
 2034TIP3    H227738   0.355   2.979   8.340  0.0347 -0.1805 -1.7144
 2035TIP3   OH227739   2.611   3.672   3.259 -0.2230  0.0515  0.6822
 2035TIP3    H127740   2.563   3.622   3.193 -2.1008  1.2032  1.0671
 2035TIP3    H227741   2.586   3.763   3.242  1.9812  0.7423  0.8589
 2036TIP3   OH227742   5.534   1.228   0.890 -0.4397  0.6466 -0.1163
 2036TIP3    H127743   5.509   1.142   0.922  1.0271  0.0769 -0.3951
 2036TIP3    H227744   5.453   1.268   0.860 -1.0373 -0.9422 -0.6802
 2037TIP3   OH227745   4.337   0.277   9.349 -0.0537 -0.6764  0.0273
 2037TIP3    H127746   4.337   0.370   9.373  0.2576  0.0748 -2.5304
 2037TIP3    H227747   4.246   0.249   9.359 -0.4215  0.3060 -0.4084
 2038TIP3   OH227748   2.717   0.420   9.294  0.7353  0.5243 -0.7950
 2038TIP3    H127749   2.721   0.467   9.377  0.7749  1.1995 -1.1704
 2038TIP3    H227750   2.746   0.332   9.315 -0.2110  0.4085  0.1058
 2039TIP3   OH227751   3.716   1.377   9.425 -0.9553 -0.5521 -0.0035
 2039TIP3    H127752   3.710   1.452   9.365  0.2879  0.0658  0.5979
 2039TIP3    H227753   3.635   1.328   9.411 -1.5862  0.6574 -0.7490
 2040TIP3   OH227754   5.353   0.628   9.417 -0.2627 -0.3794 -0.1946
 2040TIP3    H127755   5.369   0.533   9.415 -2.5239 -0.8879  1.3768
 2040TIP3    H227756   5.432   0.665   9.456 -0.7121 -2.1374  2.7454
 2041TIP3   OH227757   5.701   4.072   8.775 -0.2419 -0.4876 -0.4251
 2041TIP3    H127758   5.657   3.999   8.819 -0.3213 -0.2436 -0.0970
 2041TIP3    H227759   5.778   4.033   8.733  0.1662 -0.6224  0.4301
 2042TIP3   OH227760   3.248   0.970   0.775  0.5187  0.3811  0.4481
 2042TIP3    H127761   3.320   0.945   0.832  2.4052  2.7243 -0.7150
 2042TIP3    H227762   3.204   1.041   0.821  1.1286  1.2678 -0.2869
 2043TIP3   OH227763   4.333   1.387   2.380  0.4435 -0.2255  0.5824
 2043TIP3    H127764   4.258   1.346   2.337  0.0718  0.0727  0.9377
 2043TIP3    H227765   4.306   1.395   2.472  1.1474 -0.6715  0.8313
 2044TIP3   OH227766   4.176   3.012   1.820  0.6691  0.2760  0.2910
 2044TIP3    H127767   4.152   3.011   1.913  2.1123  0.9643  0.6915
 2044TIP3    H227768   4.253   2.956   1.814 -0.4036 -1.1979 -0.8304
 2045TIP3   OH227769   4.298   0.795   9.875 -0.2374  0.2025  0.2745
 2045TIP3    H127770   4.232   0.829   9.815  1.3642  1.1867 -1.0224
 2045TIP3    H227771   4.348   0.733   9.822 -0.4473 -0.9476  1.3913
 2046TIP3   OH227772   3.970   1.945   9.305 -0.3207 -0.1508 -0.3794
 2046TIP3    H127773   4.016   1.988   9.233 -1.9203 -0.4412 -1.6213
 2046TIP3    H227774   4.026   1.870   9.328  1.2097  1.0782  0.0922
 2047TIP3   OH227775   0.169   6.322   8.705 -0.6172  0.3613 -0.9444
 2047TIP3    H127776   0.211   6.254   8.652  1.4664 -0.4852  1.5442
 2047TIP3    H227777   0.239   6.352   8.764 -2.8569  0.7869  1.6977
 2048TIP3   OH227778   1.594   3.082   9.171 -0.4794 -0.0860  0.5376
 2048TIP3    H127779   1.618   3.135   9.247 -1.4650 -0.4682  1.1297
 2048TIP3    H227780   1.498   3.079   9.173 -0.5137 -0.2914 -0.5956
 2049TIP3   OH227781   1.127   3.882   2.462 -0.2244  0.1520 -0.1237
 2049TIP3    H127782   1.034   3.904   2.471 -0.1703  0.6817 -0.8409
 2049TIP3    H227783   1.127   3.801   2.412 -0.4225 -1.5981  2.5061
 2050TIP3   OH227784   3.345   2.290   9.265 -0.2417 -0.0294 -0.4711
 2050TIP3    H127785   3.383   2.206   9.240  0.3225 -0.2398  0.9828
 2050TIP3    H227786   3.409   2.355   9.237  0.8301 -0.3227  1.1390
 2051TIP3   OH227787   3.145   3.233   1.185 -0.1253  0.7042  0.2393
 2051TIP3    H127788   3.088   3.240   1.109 -1.0492 -0.0520  0.8259
 2051TIP3    H227789   3.084   3.226   1.259  0.7295 -0.1269  0.8847
 2052TIP3   OH227790   1.101   3.454   2.460  0.1168 -0.0658 -0.5894
 2052TIP3    H127791   1.075   3.484   2.547 -1.9140 -1.4589 -0.6746
 2052TIP3    H227792   1.094   3.532   2.405 -2.4429  0.0033 -0.2653
 2053TIP3   OH227793   0.569   1.309   8.681 -0.2046 -0.7684 -0.1808
 2053TIP3    H127794   0.554   1.247   8.752  2.1378 -2.6046 -1.1605
 2053TIP3    H227795   0.482   1.327   8.646 -1.2934 -0.7624  2.3178
 2054TIP3   OH227796   4.831   0.959   0.325  0.9513 -0.1025 -0.3499
 2054TIP3    H127797   4.782   1.005   0.256 -0.5052 -0.6795  0.2420
 2054TIP3    H227798   4.824   0.866   0.301  1.1450 -0.2452  0.1328
 2055TIP3   OH227799   1.149   6.313   1.060 -0.0782 -0.4293 -0.2694
 2055TIP3    H127800   1.061   6.306   1.096  0.0745 -0.3200  0.1338
 2055TIP3    H227801   1.143   6.378   0.991 -0.0825  0.4040  0.4980
 2056TIP3   OH227802   5.682   0.826   8.923  0.6425  0.4647 -0.1838
 2056TIP3    H127803   5.665   0.755   8.861 -0.9260  0.6465 -0.0155
 2056TIP3    H227804   5.773   0.814   8.949  0.9622 -0.3614 -1.5608
 2057TIP3   OH227805   4.939   3.766   2.369  0.0374  0.0017  0.3012
 2057TIP3    H127806   4.882   3.827   2.323 -0.1121 -0.7026 -0.4731
 2057TIP3    H227807   4.881   3.697   2.400  0.4429 -0.6724 -0.4087
 2058TIP3   OH227808   5.580   3.947   9.543 -0.3518  0.3588 -0.2124
 2058TIP3    H127809   5.496   3.907   9.565  0.2463 -0.7484  0.1420
 2058TIP3    H227810   5.611   3.984   9.625  0.3627 -0.8874  0.0960
 2059TIP3   OH227811   6.234   6.172   9.242  0.0898 -0.1163  0.3104
 2059TIP3    H127812   6.167   6.191   9.176 -0.9513  0.3292  1.4594
 2059TIP3    H227813   6.265   6.258   9.270 -0.0100 -0.2692  0.9156
 2060TIP3   OH227814   2.949   2.645   9.067 -0.0239 -0.3382 -0.2668
 2060TIP3    H127815   2.985   2.627   8.980  0.3585 -0.0243 -0.1775
 2060TIP3    H227816   2.859   2.614   9.062 -0.6639  1.5652 -1.4487
 2061TIP3   OH227817   5.247   2.053   9.862 -0.2745  0.0248  0.1429
 2061TIP3    H127818   5.249   2.029   9.770 -1.0841 -1.1302  0.4116
 2061TIP3    H227819   5.193   2.132   9.865  0.1515  0.3455 -0.4165
 2062TIP3   OH227820   4.982   1.127   9.775  0.4702  0.4412  0.5915
 2062TIP3    H127821   4.976   1.201   9.714 -0.8117  0.6463  0.9159
 2062TIP3    H227822   4.914   1.145   9.840  0.0113 -1.1114  0.5813
 2063TIP3   OH227823   5.858   3.947   9.466  0.1733 -0.1257 -0.2656
 2063TIP3    H127824   5.764   3.948   9.449  0.1192 -3.2984 -0.9086
 2063TIP3    H227825   5.897   3.996   9.393 -0.8419 -2.3195 -2.4405
 2064TIP3   OH227826   1.719   6.064   9.782  0.6473  0.2023  0.5553
 2064TIP3    H127827   1.651   6.003   9.812 -0.7388  1.9526  1.1363
 2064TIP3    H227828   1.700   6.076   9.689  0.1976  0.5955  0.6892
 2065TIP3   OH227829   4.523   2.972   0.502 -0.0112 -0.0654  0.3966
 2065TIP3    H127830   4.594   3.000   0.444 -1.5274  2.5052 -0.3845
 2065TIP3    H227831   4.466   2.920   0.445 -1.3066  2.1478 -0.4338
 2066TIP3   OH227832   1.527   1.771   1.827  0.2203 -0.0937  0.6246
 2066TIP3    H127833   1.455   1.798   1.883  0.3813  0.5041  0.5527
 2066TIP3    H227834   1.543   1.679   1.849 -0.3784 -0.1472  0.8341
 2067TIP3   OH227835   2.310   0.653   1.438 -0.5241 -0.9227 -0.1654
 2067TIP3    H127836   2.245   0.587   1.417 -0.6397 -1.1030  0.7085
 2067TIP3    H227837   2.345   0.625   1.522 -0.5261  0.0860  0.1796
 2068TIP3   OH227838   5.223   6.000   9.280 -0.0283  0.2406  0.3428
 2068TIP3    H127839   5.238   5.908   9.260 -0.3460 -0.0653  1.4303
 2068TIP3    H227840   5.289   6.022   9.345 -0.9722  0.3121  1.3072
 2069TIP3   OH227841   0.188   1.095   1.102 -0.5455  0.3113  0.3560
 2069TIP3    H127842   0.190   1.000   1.105  1.0664  0.2499 -1.2193
 2069TIP3    H227843   0.153   1.116   1.015  1.7815  1.0746 -0.4628
 2070TIP3   OH227844   5.012   2.175   1.937  0.5003 -0.0220  0.2206
 2070TIP3    H127845   5.019   2.108   2.005  1.5043  0.9609  1.1414
 2070TIP3    H227846   5.045   2.255   1.979  0.4069  0.7952 -1.1866
 2071TIP3   OH227847   2.010   1.929   1.784 -0.0246 -0.4069 -0.5867
 2071TIP3    H127848   2.034   1.837   1.796  1.3242 -0.0896 -0.7023
 2071TIP3    H227849   1.972   1.933   1.696 -0.9683 -0.9993 -0.2253
 2072TIP3   OH227850   0.526   3.340   8.441  0.5220  0.4568  0.0990
 2072TIP3    H127851   0.523   3.435   8.444 -1.7791  0.4365  0.4154
 2072TIP3    H227852   0.505   3.318   8.350 -0.4847  0.2545  0.3685
 2073TIP3   OH227853   2.244   4.160   9.631  0.0980 -0.0870 -0.5197
 2073TIP3    H127854   2.152   4.163   9.659  0.4397 -0.4963  0.6944
 2073TIP3    H227855   2.263   4.250   9.602 -0.2525  0.4089  0.7017
 2074TIP3   OH227856   2.676   1.914   0.590  0.5615 -0.4002  0.7296
 2074TIP3    H127857   2.758   1.882   0.628  0.9866 -0.0584  0.1220
 2074TIP3    H227858   2.635   1.836   0.553  1.0302 -0.4439  0.2800
 2075TIP3   OH227859   4.025   4.938   9.043 -0.1324 -0.1937  0.1567
 2075TIP3    H127860   4.081   4.864   9.066 -1.6683 -1.7501 -0.8718
 2075TIP3    H227861   4.086   5.007   9.017  1.3289 -1.3634  0.3672
 2076TIP3   OH227862   3.396   4.285   1.219  0.0147 -0.5749  0.5234
 2076TIP3    H127863   3.430   4.368   1.252 -0.5006 -1.1854  2.7926
 2076TIP3    H227864   3.410   4.289   1.125  1.3602  1.4482  0.7416
 2077TIP3   OH227865   2.478   0.052   8.593  0.6994 -0.3674  1.0004
 2077TIP3    H127866   2.468  -0.033   8.635  2.3171  0.0747  2.3945
 2077TIP3    H227867   2.426   0.112   8.646 -1.1492 -0.5704 -0.4802
 2078TIP3   OH227868   0.323   2.521   0.965 -0.2279 -0.1536 -0.5948
 2078TIP3    H127869   0.418   2.523   0.971 -0.2741  1.8668  0.4058
 2078TIP3    H227870   0.295   2.463   1.036  0.2327 -0.0487 -0.3277
 2079TIP3   OH227871   4.845   3.193   2.154  0.7006 -0.3964 -0.6905
 2079TIP3    H127872   4.918   3.219   2.098  0.0608  1.0242 -0.9066
 2079TIP3    H227873   4.776   3.256   2.134  0.6356  0.5584  2.1247
 2080TIP3   OH227874   4.952   5.327   1.812  0.5652 -0.0580  0.4851
 2080TIP3    H127875   5.032   5.328   1.759 -0.7097 -1.8257 -1.6483
 2080TIP3    H227876   4.883   5.356   1.751 -0.6835 -0.3195  1.7322
 2081TIP3   OH227877   1.243   3.289   8.207 -0.0201  0.1908  0.5085
 2081TIP3    H127878   1.175   3.230   8.239  0.2413  0.1880  1.0681
 2081TIP3    H227879   1.257   3.350   8.279 -0.7850  1.3863 -0.3166
 2082TIP3   OH227880   5.028   4.889   1.263  0.0648 -0.4533 -0.3721
 2082TIP3    H127881   5.118   4.916   1.246 -0.2410  0.5054 -0.5595
 2082TIP3    H227882   5.028   4.860   1.354  0.2767  0.9469  0.1047
 2083TIP3   OH227883   2.366   3.918   9.549  0.3210  0.5050  0.4560
 2083TIP3    H127884   2.319   3.996   9.578  0.3421  0.6111  0.2117
 2083TIP3    H227885   2.329   3.899   9.463 -0.7983 -0.6887  1.1683
 2084TIP3   OH227886   1.693   2.268   2.413  0.4289  0.3775 -0.1388
 2084TIP3    H127887   1.714   2.283   2.321  2.1864  1.3473  0.3962
 2084TIP3    H227888   1.729   2.343   2.459  2.2417 -1.4960  1.6927
 2085TIP3   OH227889   2.452   2.214   8.773 -0.1734 -0.2857  0.1059
 2085TIP3    H127890   2.394   2.182   8.842 -1.0518  0.3627 -0.3067
 2085TIP3    H227891   2.455   2.143   8.708 -1.3203  0.0557 -0.3403
 2086TIP3   OH227892   0.511   1.442   9.705  0.8796  0.5644  0.5132
 2086TIP3    H127893   0.439   1.455   9.767  0.2687  3.3165 -0.6240
 2086TIP3    H227894   0.495   1.356   9.667 -2.2826  1.3236 -0.1770
 2087TIP3   OH227895   3.554   2.986   8.649  0.0610  0.0792 -0.8641
 2087TIP3    H127896   3.486   2.920   8.657  0.6440 -0.6256 -1.5550
 2087TIP3    H227897   3.521   3.048   8.584  0.5706 -0.9040 -2.0786
 2088TIP3   OH227898   1.550   5.357   0.903  0.1798 -0.0074 -0.3426
 2088TIP3    H127899   1.523   5.355   0.995  1.0580 -0.3882 -0.0852
 2088TIP3    H227900   1.468   5.355   0.854 -0.2945  0.1670  0.4304
 2089TIP3   OH227901   4.120   1.272   8.778 -0.1897  0.4141 -0.1672
 2089TIP3    H127902   4.163   1.272   8.863 -0.2662 -0.2939 -0.1223
 2089TIP3    H227903   4.099   1.180   8.761 -0.1364  0.5409 -0.9710
 2090TIP3   OH227904   0.085   0.677   0.462 -1.0158 -0.4589 -0.2035
 2090TIP3    H127905   0.023   0.745   0.490 -0.9045 -0.1269 -0.7487
 2090TIP3    H227906   0.045   0.640   0.384 -1.3599 -1.4305  0.4173
 2091TIP3   OH227907   0.867   5.699   2.054  0.1486 -0.3110 -0.5749
 2091TIP3    H127908   0.858   5.607   2.027 -3.1621 -0.6225  1.0702
 2091TIP3    H227909   0.798   5.745   2.006 -0.1925  0.7081  0.8201
 2092TIP3   OH227910   4.175   1.580   0.014  0.2982  0.4744  0.4294
 2092TIP3    H127911   4.178   1.672  -0.013  1.2792  0.0360 -1.0702
 2092TIP3    H227912   4.228   1.576   0.094  0.0904  1.2318  0.6109
 2093TIP3   OH227913   4.023   5.933   2.699  0.6877 -0.6443  0.0907
 2093TIP3    H127914   4.022   5.838   2.698 -0.8073 -0.6738 -1.6559
 2093TIP3    H227915   3.937   5.958   2.735 -0.5354 -0.0812 -2.9158
 2094TIP3   OH227916   1.936   3.078   8.791  0.3540  0.8989 -0.4249
 2094TIP3    H127917   1.862   3.117   8.745 -0.0536  0.8542  0.1720
 2094TIP3    H227918   1.936   2.986   8.762 -1.0117  0.4079  0.9747
 2095TIP3   OH227919   0.306   2.381   8.944 -0.5734 -0.4917 -0.3813
 2095TIP3    H127920   0.230   2.373   8.885 -2.4850  3.7956  1.0763
 2095TIP3    H227921   0.311   2.474   8.963  2.9206 -1.0717  2.5377
 2096TIP3   OH227922   5.918   5.388   8.070 -0.3580  0.0413  0.2055
 2096TIP3    H127923   5.921   5.296   8.045  0.6397  0.3088 -0.7434
 2096TIP3    H227924   5.973   5.433   8.005  0.9290  1.0285  1.8847
 2097TIP3   OH227925   5.983   5.406   3.417  0.4920  0.1995  0.0033
 2097TIP3    H127926   5.958   5.321   3.454  1.2913  0.7178  1.8340
 2097TIP3    H227927   5.902   5.457   3.418 -0.4252 -0.9593 -2.6616
 2098TIP3   OH227928   2.105   0.534   0.434  0.3830 -0.4337  0.0305
 2098TIP3    H127929   2.112   0.585   0.515 -2.5942  0.1738 -0.0062
 2098TIP3    H227930   2.034   0.472   0.450  0.3009 -0.8880 -1.8315
 2099TIP3   OH227931   1.956   1.151   1.358 -0.1188 -0.0279  0.2682
 2099TIP3    H127932   1.914   1.176   1.440  1.3273  2.0812  0.4682
 2099TIP3    H227933   1.896   1.089   1.317 -1.9657  0.6304  1.8406
 2100TIP3   OH227934   4.326   2.139   2.846 -0.6225 -0.5287  0.0458
 2100TIP3    H127935   4.349   2.160   2.755 -0.1239 -0.4054  0.1998
 2100TIP3    H227936   4.402   2.165   2.897 -0.7860 -0.8685  0.4697
 2101TIP3   OH227937   1.175   6.347   9.733  0.5395 -0.4614  0.2338
 2101TIP3    H127938   1.271   6.342   9.729  0.5152 -0.6854 -0.1494
 2101TIP3    H227939   1.158   6.432   9.774  0.9031 -0.5895  0.6628
 2102TIP3   OH227940   4.510   6.246   9.478  0.2169  0.1514  0.2008
 2102TIP3    H127941   4.537   6.176   9.419 -1.1113 -1.4362  1.3843
 2102TIP3    H227942   4.535   6.327   9.433 -0.7864 -0.9558 -2.5300
 2103TIP3   OH227943   4.502   5.988   2.045 -0.0561 -0.2680  0.2101
 2103TIP3    H127944   4.491   6.083   2.032 -0.5453 -0.3882 -0.3081
 2103TIP3    H227945   4.428   5.949   1.998  0.4937 -0.9358 -0.1122
 2104TIP3   OH227946   5.226   0.350   2.267  0.4978  0.1213  0.0601
 2104TIP3    H127947   5.132   0.343   2.251  0.4930 -0.7828  0.3792
 2104TIP3    H227948   5.247   0.271   2.318  1.5075  0.0819 -0.3928
 2105TIP3   OH227949   3.310   1.565   1.759 -0.6581 -0.3473 -0.0946
 2105TIP3    H127950   3.387   1.569   1.703 -1.6085 -1.9197 -1.6073
 2105TIP3    H227951   3.272   1.478   1.742 -2.8088  0.4022  0.5218
 2106TIP3   OH227952   1.316   4.204   2.709 -0.2849  0.0696  0.3355
 2106TIP3    H127953   1.368   4.124   2.702  0.5996  0.6495  0.0067
 2106TIP3    H227954   1.381   4.273   2.722 -1.1400  0.5054  2.7619
 2107TIP3   OH227955   0.713   4.143   9.749  0.2690  0.9031  0.5168
 2107TIP3    H127956   0.751   4.155   9.836  1.1634  0.3039  0.2320
 2107TIP3    H227957   0.761   4.068   9.712 -0.2413  1.0095 -0.4017
 2108TIP3   OH227958   1.212   6.003   0.822  0.0625  0.1342  0.0407
 2108TIP3    H127959   1.187   5.950   0.898  0.7814 -1.7005 -0.9612
 2108TIP3    H227960   1.212   5.942   0.749  3.2485  0.9456 -0.7795
 2109TIP3   OH227961   4.639   4.963   1.761 -0.0481 -0.7313  0.6281
 2109TIP3    H127962   4.576   4.916   1.816 -1.1643  0.7271  0.6661
 2109TIP3    H227963   4.669   4.898   1.698 -1.2876 -1.5810  0.8781
 2110TIP3   OH227964   4.003   0.586   1.239 -0.2066  1.0418 -0.0123
 2110TIP3    H127965   4.069   0.575   1.171  1.0713  2.0653  0.9869
 2110TIP3    H227966   4.005   0.504   1.289  0.0836  0.9385 -0.1936
 2111TIP3   OH227967   4.392   5.389   1.058  0.5482  0.2444 -0.6293
 2111TIP3    H127968   4.472   5.341   1.079  0.9553  0.3799 -1.7890
 2111TIP3    H227969   4.416   5.444   0.983 -0.0557  1.8624  0.3096
 2112TIP3   OH227970   4.978   5.925   9.521  0.4871 -0.0367  0.0303
 2112TIP3    H127971   5.069   5.898   9.507  0.4709  1.0580 -2.7730
 2112TIP3    H227972   4.984   6.003   9.575  1.0117 -1.2844  1.8478
 2113TIP3   OH227973   3.892   4.501   1.513  0.2444 -0.3014  0.3626
 2113TIP3    H127974   3.919   4.578   1.563 -0.2891 -0.7106  1.3116
 2113TIP3    H227975   3.850   4.537   1.435  0.8163  0.3586  0.3525
 2114TIP3   OH227976   3.058   5.743   0.362 -0.1502 -0.0610 -0.0507
 2114TIP3    H127977   3.099   5.656   0.355  0.7140  0.3836 -0.8406
 2114TIP3    H227978   3.125   5.803   0.328 -0.5608  0.9699  0.8983
 2115TIP3   OH227979   2.278   3.806   9.309 -0.0935 -0.2327  0.0447
 2115TIP3    H127980   2.320   3.747   9.246  1.8471 -0.6068  1.5804
 2115TIP3    H227981   2.286   3.893   9.270 -0.3363 -0.6378 -0.9217
 2116TIP3   OH227982   0.573   2.457   1.059 -0.3840 -0.2007  0.0305
 2116TIP3    H127983   0.510   2.479   1.127 -0.5690  0.9185 -0.4869
 2116TIP3    H227984   0.635   2.530   1.059 -1.1121  0.4752 -1.8601
 2117TIP3   OH227985   4.346   2.163   1.711  0.0073  0.2024  0.2280
 2117TIP3    H127986   4.337   2.086   1.655 -0.5771  0.2451  0.2596
 2117TIP3    H227987   4.395   2.226   1.657  2.0426 -0.7939  0.8226
 2118TIP3   OH227988   4.508   1.030   1.806  0.0497  0.0110  0.2106
 2118TIP3    H127989   4.593   1.005   1.770 -0.5045 -1.3520 -0.2089
 2118TIP3    H227990   4.524   1.115   1.846  1.0580  0.9042 -1.9183
 2119TIP3   OH227991   4.999   5.703   2.556 -0.0096 -0.0055  0.1034
 2119TIP3    H127992   4.941   5.644   2.604  1.5751 -0.5338  1.4968
 2119TIP3    H227993   4.950   5.785   2.548 -1.7726 -1.1094 -0.7687
 2120TIP3   OH227994   0.085   1.695   7.732 -0.0418  0.3626  0.4026
 2120TIP3    H127995   0.009   1.668   7.681 -0.8791 -1.3365  2.3671
 2120TIP3    H227996   0.057   1.777   7.774 -0.9901 -0.4316  1.3914
 2121TIP3   OH227997   4.256   5.417   0.387  0.0276 -0.5680 -0.0992
 2121TIP3    H127998   4.221   5.501   0.357 -1.1075  0.0621  2.6310
 2121TIP3    H227999   4.182   5.356   0.380 -0.5468 -0.1908  2.0467
 2122TIP3   OH228000   6.389   3.286   3.004  0.6052 -0.9394 -0.3050
 2122TIP3    H128001   6.314   3.305   2.948  1.9856  1.4729 -1.5146
 2122TIP3    H228002   6.419   3.200   2.976  0.0599 -0.6345 -1.8962
 2123TIP3   OH228003   4.135   3.198   0.955  0.1276  0.0787 -0.2659
 2123TIP3    H128004   4.198   3.176   1.023 -0.1342 -1.8706 -0.6178
 2123TIP3    H228005   4.050   3.188   0.997 -0.0566  2.9262  0.2794
 2124TIP3   OH228006   0.150   3.830   7.710 -0.2581 -0.2455  0.1543
 2124TIP3    H128007   0.133   3.746   7.751 -0.3141 -0.2232  0.1766
 2124TIP3    H228008   0.239   3.852   7.735 -1.1151  0.9926  2.4069
 2125TIP3   OH228009   5.926   2.890   8.175  0.1400 -0.0673 -0.1086
 2125TIP3    H128010   5.864   2.819   8.191 -1.0225  1.2903  1.5927
 2125TIP3    H228011   5.943   2.885   8.081 -1.4448 -1.3427 -0.3708
 2126TIP3   OH228012   0.293   4.487   2.161 -0.2592  0.0680  0.2666
 2126TIP3    H128013   0.339   4.567   2.187  0.9939 -0.6151  0.2268
 2126TIP3    H228014   0.263   4.504   2.072 -1.0857  0.9308  0.6832
 2127TIP3   OH228015   5.331   1.651   0.478  0.2854 -0.2153  0.2432
 2127TIP3    H128016   5.333   1.680   0.387 -1.0967  0.0627  0.2801
 2127TIP3    H228017   5.423   1.642   0.503  0.7261  1.5004 -0.6161
 2128TIP3   OH228018   1.558   6.364   1.442 -0.8526  0.4752  0.7201
 2128TIP3    H128019   1.467   6.340   1.422 -0.9253  1.4347 -0.1505
 2128TIP3    H228020   1.610   6.301   1.392 -1.0439  0.7190  0.2040
 2129TIP3   OH228021   1.761   5.966   2.006 -0.1304  0.0400  0.6436
 2129TIP3    H128022   1.697   5.940   2.073 -1.4070  0.7369 -0.2567
 2129TIP3    H228023   1.767   5.891   1.948 -1.8534  0.7165 -0.4996
 2130TIP3   OH228024   3.458   5.154   2.655  0.0262  0.3689  0.1685
 2130TIP3    H128025   3.432   5.235   2.611  0.8574  0.2446 -0.5799
 2130TIP3    H228026   3.489   5.097   2.584 -0.2909 -0.5105  0.7125
 2131TIP3   OH228027   3.398   3.580   0.260 -0.3252  0.2527 -0.4687
 2131TIP3    H128028   3.390   3.642   0.188  1.1440 -1.5625 -2.3056
 2131TIP3    H228029   3.491   3.581   0.282 -0.6109  0.1067  0.8319
 2132TIP3   OH228030   0.610   4.821   8.443  0.0100  0.4681 -1.1875
 2132TIP3    H128031   0.637   4.828   8.351 -0.1659  0.0496 -1.2733
 2132TIP3    H228032   0.659   4.746   8.477 -1.4982 -0.7240 -1.5279
 2133TIP3   OH228033   5.500   5.657   2.487  0.7251 -0.0994  0.2643
 2133TIP3    H128034   5.481   5.632   2.577  0.7556 -3.5398 -0.5522
 2133TIP3    H228035   5.457   5.590   2.434 -0.9229  2.8217 -2.4721
 2134TIP3   OH228036   2.705   4.963   9.202 -0.2557 -0.0967 -0.0632
 2134TIP3    H128037   2.745   4.877   9.208 -0.3410 -0.0295  3.6090
 2134TIP3    H228038   2.779   5.023   9.193 -0.1354 -0.4405 -1.5994
 2135TIP3   OH228039   2.165   3.635   1.814 -0.4859 -0.1618 -0.2056
 2135TIP3    H128040   2.131   3.721   1.791 -0.6509 -0.5240 -1.3334
 2135TIP3    H228041   2.259   3.650   1.830 -0.9580  0.6956  2.2029
 2136TIP3   OH228042   5.386   5.001   0.030 -0.4129  0.1159 -0.8450
 2136TIP3    H128043   5.445   5.073   0.008 -1.1208  0.2153 -2.5738
 2136TIP3    H228044   5.396   4.939  -0.043  0.5418 -1.8237  0.8183
 2137TIP3   OH228045   0.101   4.099   2.535 -0.0136  0.7820 -0.4281
 2137TIP3    H128046   0.151   4.114   2.455 -0.1153 -1.0712 -0.8910
 2137TIP3    H228047   0.025   4.156   2.527 -0.0683  0.5556 -1.7212
 2138TIP3   OH228048   0.609   3.813   1.530  0.5269 -0.5716  0.0566
 2138TIP3    H128049   0.578   3.783   1.615  1.6522 -1.8417  0.0665
 2138TIP3    H228050   0.703   3.826   1.542  0.0850  3.7357  0.1939
 2139TIP3   OH228051   2.129   0.463   1.713 -0.0883  0.0624  0.0042
 2139TIP3    H128052   2.104   0.425   1.628 -1.6348  3.0171 -1.0001
 2139TIP3    H228053   2.219   0.491   1.702 -0.5849  1.3187 -1.0684
 2140TIP3   OH228054   2.413   4.238   1.247 -0.1385 -0.5979  0.3224
 2140TIP3    H128055   2.457   4.298   1.186  0.4882 -1.7466 -0.3933
 2140TIP3    H228056   2.392   4.293   1.323  3.3811 -0.1339  1.1364
 2141TIP3   OH228057   5.402   4.188   9.444  0.0764 -0.1953  0.0371
 2141TIP3    H128058   5.377   4.222   9.358  2.6893  2.4924  0.1556
 2141TIP3    H228059   5.320   4.186   9.493 -1.1220  0.4147 -1.8109
 2142TIP3   OH228060   2.322   2.600   2.501  0.1527 -0.6155  0.0779
 2142TIP3    H128061   2.329   2.568   2.411 -1.0372 -0.3864 -0.1121
 2142TIP3    H228062   2.390   2.552   2.549  2.6200  1.1520 -1.4267
 2143TIP3   OH228063   5.856   5.907   0.935  0.0888 -0.0487  0.2175
 2143TIP3    H128064   5.909   5.828   0.929 -0.7765 -0.5877 -0.5381
 2143TIP3    H228065   5.769   5.877   0.960 -0.9836  0.2830 -2.7363
 2144TIP3   OH228066   0.367   5.928   2.056  0.1548  0.3475 -0.1162
 2144TIP3    H128067   0.327   5.934   1.969  1.6448  1.0657 -0.7903
 2144TIP3    H228068   0.384   6.019   2.081  0.0771  0.1272  0.7714
 2145TIP3   OH228069   1.404   1.017   8.996  0.0965 -0.0969  0.1055
 2145TIP3    H128070   1.383   1.079   9.066  1.3525 -0.3877  0.7744
 2145TIP3    H228071   1.336   1.031   8.930 -0.9505  0.3912  1.2455
 2146TIP3   OH228072   1.085   2.905   8.689 -0.3327  0.1167 -0.6460
 2146TIP3    H128073   1.001   2.912   8.642  0.1097 -0.9937 -1.6656
 2146TIP3    H228074   1.144   2.962   8.641 -0.1879 -0.0849 -0.7087
 2147TIP3   OH228075   2.440   5.554   8.093  0.2013  0.1962  0.0628
 2147TIP3    H128076   2.395   5.636   8.075 -0.0370 -0.2237 -1.3670
 2147TIP3    H228077   2.421   5.536   8.186 -0.3047  1.3900  0.2124
 2148TIP3   OH228078   4.635   3.797   9.006  0.2325 -0.3241 -0.0170
 2148TIP3    H128079   4.570   3.727   9.016  0.3825 -0.2066  2.2569
 2148TIP3    H228080   4.583   3.873   8.979 -0.2764 -0.7037 -0.1310
 2149TIP3   OH228081   5.565   1.521   9.459  0.5829  0.0388  0.0910
 2149TIP3    H128082   5.593   1.482   9.376 -0.7843 -0.4170 -0.1976
 2149TIP3    H228083   5.510   1.453   9.499  0.2673  0.7082  0.8105
 2150TIP3   OH228084   3.732   5.314   9.724  0.8383  0.8894 -0.6119
 2150TIP3    H128085   3.748   5.267   9.806  0.1229  1.3187 -0.2094
 2150TIP3    H228086   3.642   5.347   9.733 -0.2086 -1.1280 -2.5917
 2151TIP3   OH228087   4.259   5.515   8.761  0.1148 -0.2577 -0.0167
 2151TIP3    H128088   4.186   5.530   8.700  0.3323 -0.9291 -0.4550
 2151TIP3    H228089   4.267   5.420   8.765  1.0043 -0.1916 -0.0089
 2152TIP3   OH228090   4.925   3.023   1.475  0.0412  0.2305 -0.2493
 2152TIP3    H128091   4.901   3.116   1.471  0.8018  0.4298 -0.3788
 2152TIP3    H228092   5.011   3.019   1.432  1.6062  0.0394  2.6268
 2153TIP3   OH228093   3.416   6.105   1.871 -0.5134  0.1190 -0.5712
 2153TIP3    H128094   3.333   6.147   1.892  0.0504  0.5484  0.9581
 2153TIP3    H228095   3.401   6.012   1.891  0.0843  0.5450  2.3232
 2154TIP3   OH228096   4.771   1.041   1.707 -0.5228  0.4300  0.3756
 2154TIP3    H128097   4.834   1.086   1.651  0.2826 -0.0109  0.9078
 2154TIP3    H228098   4.795   0.948   1.700 -2.7439 -0.0941 -1.4572
 2155TIP3   OH228099   0.638   3.877   3.241 -0.3068  0.6176  0.4412
 2155TIP3    H128100   0.630   3.961   3.287 -1.7045 -0.0592  1.5091
 2155TIP3    H228101   0.579   3.819   3.288 -0.5625 -0.5551 -1.2643
 2156TIP3   OH228102   4.293   2.955   1.389 -0.1715 -0.5964 -0.4810
 2156TIP3    H128103   4.366   2.940   1.449 -1.5553  0.8737  1.7079
 2156TIP3    H228104   4.248   2.871   1.384  1.5856 -1.5223 -1.8569
 2157TIP3   OH228105   2.523   0.831   1.136 -0.2363  0.3696  0.3046
 2157TIP3    H128106   2.594   0.850   1.199 -0.2026  0.5563  0.2111
 2157TIP3    H228107   2.564   0.840   1.050 -0.2913  0.1470  0.2550
 2158TIP3   OH228108   1.515   3.728   7.891 -0.0681 -0.4854  0.1690
 2158TIP3    H128109   1.489   3.802   7.945  0.1578 -0.5622  0.3828
 2158TIP3    H228110   1.441   3.715   7.831  0.1722  0.3377 -0.3229
 2159TIP3   OH228111   5.068   4.992   2.740  0.0509  0.6703  0.3714
 2159TIP3    H128112   5.119   5.041   2.804 -1.3994  1.6727  0.8246
 2159TIP3    H228113   5.096   5.026   2.655  0.9794  0.3347  0.5343
 2160TIP3   OH228114   2.688   3.415   9.412 -0.2619 -0.0212  0.0257
 2160TIP3    H128115   2.736   3.494   9.388  2.6312 -1.7343 -0.3034
 2160TIP3    H228116   2.665   3.374   9.328  1.6410 -1.3668  0.1063
 2161TIP3   OH228117   2.081   2.777   0.044 -0.2463  0.1133  0.0956
 2161TIP3    H128118   2.033   2.694   0.044 -0.7685  0.3512 -2.0017
 2161TIP3    H228119   2.045   2.825  -0.031  1.7689  1.2078 -0.2220
 2162TIP3   OH228120   0.509   5.036   0.252 -0.3826 -0.0010  0.6134
 2162TIP3    H128121   0.501   5.116   0.303 -1.4888 -0.3245  0.9673
 2162TIP3    H228122   0.567   4.980   0.304 -0.7020  0.0495  1.0242
 2163TIP3   OH228123   2.236   4.658   3.169 -0.2275  0.3486  0.1945
 2163TIP3    H128124   2.266   4.632   3.256 -0.0224  0.2437  0.0932
 2163TIP3    H228125   2.317   4.674   3.119 -0.3455  0.5762  0.0752
 2164TIP3   OH228126   1.467   1.138   1.882  0.2941 -0.1922 -0.1326
 2164TIP3    H128127   1.393   1.194   1.859  2.0091  1.2290 -2.6010
 2164TIP3    H228128   1.455   1.060   1.827  2.2737  1.5092 -3.2983
 2165TIP3   OH228129   1.392   4.228   1.955 -0.1616  0.3488 -0.3663
 2165TIP3    H128130   1.380   4.285   2.031  0.1105 -0.3405  0.1932
 2165TIP3    H228131   1.430   4.286   1.888 -0.4729  0.9740 -0.0159
 2166TIP3   OH228132   6.040   0.714   2.409 -0.0093 -0.1437 -0.5488
 2166TIP3    H128133   6.118   0.706   2.464 -0.3366  0.9660  0.1170
 2166TIP3    H228134   6.073   0.753   2.328 -0.1741  2.7584  0.6659
 2167TIP3   OH228135   4.316   4.787   1.605  0.4654 -0.4137 -0.0148
 2167TIP3    H128136   4.274   4.850   1.545 -0.3009  0.7957  1.7171
 2167TIP3    H228137   4.257   4.711   1.603 -0.1432  0.0441  0.0194
 2168TIP3   OH228138   1.063   2.703   1.743  0.5079 -0.1272  0.2013
 2168TIP3    H128139   1.064   2.785   1.792 -0.5895  0.5098 -0.7896
 2168TIP3    H228140   1.117   2.643   1.795 -1.1202  0.3119  2.5475
 2169TIP3   OH228141   4.187   4.066   2.327  0.2003 -0.4154  0.1551
 2169TIP3    H128142   4.216   3.981   2.294 -0.3660 -0.7576  0.5078
 2169TIP3    H228143   4.227   4.130   2.269  0.3018 -0.9454 -0.3681
 2170TIP3   OH228144   0.345   0.966   9.525  0.1723  0.0951 -0.1338
 2170TIP3    H128145   0.320   0.876   9.504 -1.4763  0.7306 -1.0713
 2170TIP3    H228146   0.273   0.999   9.580  0.6422  0.9192  0.0104
 2171TIP3   OH228147   3.421   0.009   1.399  0.1701  0.0147 -0.0721
 2171TIP3    H128148   3.480   0.052   1.337 -0.6207  1.3104  0.0444
 2171TIP3    H228149   3.464   0.022   1.484 -0.0770  0.6146 -0.0339
 2172TIP3   OH228150   0.264   6.109   1.201 -0.3970  0.2687  0.1958
 2172TIP3    H128151   0.290   6.195   1.236  0.4812 -0.3353  1.0729
 2172TIP3    H228152   0.226   6.129   1.115 -2.6901  1.8026  1.4737
 2173TIP3   OH228153   1.208   3.138   0.625  0.0369  0.2491  0.1514
 2173TIP3    H128154   1.132   3.147   0.567  0.1104 -0.1670 -0.0191
 2173TIP3    H228155   1.270   3.204   0.593  1.5490 -2.2404 -2.6418
 2174TIP3   OH228156   5.102   2.014   2.351 -0.1305 -0.1863 -0.3801
 2174TIP3    H128157   5.169   2.058   2.403 -0.2105 -0.5917  0.0746
 2174TIP3    H228158   5.029   2.002   2.411 -0.1969 -0.7260 -0.5563
 2175TIP3   OH228159   5.722   3.778   8.789  0.2221 -0.2270  0.0325
 2175TIP3    H128160   5.698   3.718   8.860 -0.2501  0.5780  0.5685
 2175TIP3    H228161   5.717   3.724   8.710 -0.0895 -0.9215  0.5097
 2176TIP3   OH228162   1.917   0.913   9.224 -0.2655  0.3183  0.7345
 2176TIP3    H128163   1.918   0.821   9.252 -1.5976  0.0436 -0.0328
 2176TIP3    H228164   1.916   0.909   9.129  1.0390  1.1750  0.6663
 2177TIP3   OH228165   3.620   2.466   9.601 -0.4220  0.2199 -0.4888
 2177TIP3    H128166   3.655   2.467   9.512  1.0511  1.9254  0.0492
 2177TIP3    H228167   3.536   2.512   9.593 -0.4001  0.1821 -1.0220
 2178TIP3   OH228168   2.744   1.921   0.229  0.2196 -0.1030 -0.3012
 2178TIP3    H128169   2.752   2.008   0.189  0.9269  1.4951  2.9784
 2178TIP3    H228170   2.832   1.883   0.223  0.1644 -0.1581 -0.7939
 2179TIP3   OH228171   1.330   0.947   1.679 -0.1186  0.4335 -0.3075
 2179TIP3    H128172   1.401   0.922   1.620 -0.3643 -0.7071 -0.1576
 2179TIP3    H228173   1.321   0.871   1.738 -2.2673  0.0120 -1.0844
 2180TIP3   OH228174   3.404   4.250   2.385  0.4318 -0.3619 -0.3692
 2180TIP3    H128175   3.450   4.333   2.368 -1.2891  0.8806  0.7108
 2180TIP3    H228176   3.429   4.226   2.474  0.3102 -0.6034 -0.3989
 2181TIP3   OH228177   4.967   0.033   0.769  0.0629  0.2245 -0.1602
 2181TIP3    H128178   4.926  -0.031   0.712 -1.2880  1.2179 -0.3598
 2181TIP3    H228179   4.895   0.089   0.797  0.8516  0.3066  1.8052
 2182TIP3   OH228180   1.321   1.646   2.137 -0.5040 -0.0208  0.2267
 2182TIP3    H128181   1.316   1.722   2.078  1.3751 -1.9618 -2.6713
 2182TIP3    H228182   1.406   1.654   2.179 -0.3919 -0.4181  0.0767
 2183TIP3   OH228183   6.413   3.776   9.020  0.2445  0.6596 -0.2861
 2183TIP3    H128184   6.331   3.793   9.066  0.3431 -0.5818  0.3936
 2183TIP3    H228185   6.458   3.860   9.020 -1.5818  1.7177 -1.8829
 2184TIP3   OH228186   5.625   4.114   9.809 -0.3013  0.1030 -0.3779
 2184TIP3    H128187   5.645   4.137   9.900  1.0003  0.7682 -0.8084
 2184TIP3    H228188   5.535   4.144   9.796  0.1728  1.8211  0.1101
 2185TIP3   OH228189   4.751   1.781   8.762 -0.2831  0.2313  0.3458
 2185TIP3    H128190   4.712   1.694   8.761 -0.4618  0.3127  0.1185
 2185TIP3    H228191   4.841   1.768   8.792  0.3898 -0.3021 -1.7569
 2186TIP3   OH228192   2.476   0.160   7.493  0.4715 -0.0006 -0.0429
 2186TIP3    H128193   2.467   0.065   7.491  0.8433 -0.0253 -1.3574
 2186TIP3    H228194   2.568   0.176   7.469  0.5508  0.6788  0.6716
 2187TIP3   OH228195   2.810   3.754   9.727 -0.2124  0.1847 -0.1009
 2187TIP3    H128196   2.828   3.667   9.761 -0.4116  0.4693  0.7549
 2187TIP3    H228197   2.789   3.740   9.635  1.1679 -0.4984 -0.3331
 2188TIP3   OH228198   4.772   5.374   1.605  0.2461 -0.2745 -0.0023
 2188TIP3    H128199   4.766   5.427   1.525 -1.6214  1.7150  1.3434
 2188TIP3    H228200   4.745   5.286   1.577  0.0697  0.2549 -1.6258
 2189TIP3   OH228201   1.635   6.384   2.272  0.4155 -0.2854 -0.0232
 2189TIP3    H128202   1.659   6.343   2.189  0.8112 -0.1197  0.0083
 2189TIP3    H228203   1.596   6.467   2.247  1.7323  0.3704 -0.0095
 2190TIP3   OH228204   5.896   1.654   1.580  0.7240  0.3389 -0.3983
 2190TIP3    H128205   5.914   1.613   1.496  2.3318  1.1663 -0.4881
 2190TIP3    H228206   5.801   1.665   1.582  0.6898  0.5685 -2.2175
 2191TIP3   OH228207   5.866   2.670   0.861  0.1147 -0.0987  0.3107
 2191TIP3    H128208   5.950   2.644   0.822 -0.6066 -2.2676  0.1129
 2191TIP3    H228209   5.850   2.758   0.826  1.1547 -0.6010 -1.5583
 2192TIP3   OH228210   1.218   1.974   9.452 -0.6675 -0.0968 -0.3769
 2192TIP3    H128211   1.241   2.066   9.465 -0.9219 -0.0683 -0.1136
 2192TIP3    H228212   1.187   1.970   9.361 -0.2106 -0.0167 -0.5381
 2193TIP3   OH228213   5.159   1.649   0.152 -0.1659  0.4505  0.3338
 2193TIP3    H128214   5.106   1.649   0.232 -1.4270  0.3532 -0.4631
 2193TIP3    H228215   5.111   1.708   0.092  0.2596 -0.1734 -0.6424
 2194TIP3   OH228216   6.317   4.998   9.444 -0.5471  0.2373 -0.6962
 2194TIP3    H128217   6.288   5.078   9.488  1.1015  0.8789 -0.6964
 2194TIP3    H228218   6.300   4.928   9.508 -0.0007  0.8892  0.1842
 2195TIP3   OH228219   0.875   3.635   9.575  0.0860  0.0192 -0.5325
 2195TIP3    H128220   0.886   3.558   9.630  1.3390  0.1518 -0.5688
 2195TIP3    H228221   0.909   3.609   9.489  1.2399  0.8303 -0.3452
 2196TIP3   OH228222   2.625   5.006   2.661 -0.8498  0.4724  0.2024
 2196TIP3    H128223   2.657   5.011   2.571  1.5943  2.2855  1.0759
 2196TIP3    H228224   2.694   4.959   2.708 -2.9933 -2.3171  0.8785
 2197TIP3   OH228225   3.813   1.378   2.023  0.1451 -0.1467  0.2620
 2197TIP3    H128226   3.888   1.343   1.975  0.2100  1.9585 -1.2941
 2197TIP3    H228227   3.851   1.444   2.081 -0.4145  0.3341  0.0826
 2198TIP3   OH228228   3.355   2.767   9.340  0.3385 -0.0442 -1.0221
 2198TIP3    H128229   3.364   2.719   9.257  0.7203  0.7691 -1.4580
 2198TIP3    H228230   3.419   2.838   9.334 -0.2736  0.5724 -0.4129
 2199TIP3   OH228231   1.240   1.691   8.561  0.1356  0.4155 -0.1652
 2199TIP3    H128232   1.261   1.767   8.615 -0.3769  0.7896 -0.4886
 2199TIP3    H228233   1.324   1.662   8.527  0.5896 -0.2852  1.4199
 2200TIP3   OH228234   4.270   5.097   0.311 -0.0832  0.4584  0.7874
 2200TIP3    H128235   4.190   5.066   0.268  0.7011 -1.5131  0.6327
 2200TIP3    H228236   4.258   5.074   0.403 -0.0365  0.9398  0.9180
 2201TIP3   OH228237   6.384   3.843   0.195  0.0927  0.5611  0.3111
 2201TIP3    H128238   6.399   3.813   0.105 -0.8354 -1.4698  0.7812
 2201TIP3    H228239   6.472   3.855   0.231  0.5536 -1.5377  0.0226
 2202TIP3   OH228240   0.115   0.955   0.626  0.1860  0.6243  0.0243
 2202TIP3    H128241   0.129   1.048   0.646  0.4812  0.4756  0.5268
 2202TIP3    H228242   0.202   0.915   0.635  0.3347  0.5378 -1.5712
 2203TIP3   OH228243   5.429   4.540   9.187  0.0794 -0.2642  0.6157
 2203TIP3    H128244   5.349   4.488   9.196 -0.4369  0.4844  0.4282
 2203TIP3    H228245   5.500   4.477   9.201 -0.4738 -1.3941 -1.3501
 2204TIP3   OH228246   3.799   1.419   1.369  0.5377 -0.1168 -0.2376
 2204TIP3    H128247   3.733   1.414   1.438  0.6800  1.9401  0.1174
 2204TIP3    H228248   3.755   1.461   1.296  1.1223  0.1651 -0.4337
 2205TIP3   OH228249   0.052   3.471   9.256  0.0635 -0.0505 -0.4522
 2205TIP3    H128250  -0.035   3.509   9.270 -0.1244 -0.4460 -0.5464
 2205TIP3    H228251   0.035   3.384   9.222  0.4996 -0.1414 -0.4400
 2206TIP3   OH228252   4.931   2.892   2.101  0.5351  0.1051 -0.1343
 2206TIP3    H128253   4.845   2.913   2.139  0.2164  0.7028 -1.1443
 2206TIP3    H228254   4.957   2.972   2.055  2.3428  0.4560  1.3823
 2207TIP3   OH228255   0.862   5.770   1.084 -0.0529 -0.0047 -0.2111
 2207TIP3    H128256   0.801   5.791   1.013 -0.3360 -1.0510 -0.2951
 2207TIP3    H228257   0.853   5.676   1.096  1.4405 -0.1528 -0.1001
 2208TIP3   OH228258   2.837   3.585   0.497  0.2415 -0.0808  0.2997
 2208TIP3    H128259   2.878   3.502   0.471  2.0291  1.1740 -1.2179
 2208TIP3    H228260   2.784   3.563   0.573 -0.0434 -2.7683 -0.5593
 2209TIP3   OH228261   2.226   4.449   2.468  0.3880  0.2320  0.2412
 2209TIP3    H128262   2.221   4.482   2.378 -0.9944  3.0244  1.2275
 2209TIP3    H228263   2.135   4.446   2.497  0.9245  1.6745  2.2667
 2210TIP3   OH228264   4.945   5.901  10.012 -0.0443  0.0393 -0.1319
 2210TIP3    H128265   5.002   5.937   9.943  1.1426 -3.9941 -1.5545
 2210TIP3    H228266   5.004   5.889  10.086 -0.1780  0.0717 -0.0215
 2211TIP3   OH228267   2.528   1.578   8.901  0.5452 -0.1257  0.7808
 2211TIP3    H128268   2.551   1.553   8.991  0.3897 -1.2883  0.5168
 2211TIP3    H228269   2.611   1.570   8.853  0.1694 -1.8503  0.3501
 2212TIP3   OH228270   0.490   0.406   8.400  0.2972 -0.3287 -0.5000
 2212TIP3    H128271   0.511   0.407   8.306  1.0742 -1.3388 -0.3444
 2212TIP3    H228272   0.446   0.322   8.414  1.3992 -0.7850  0.2983
 2213TIP3   OH228273   3.030   4.517   1.703  0.0026 -0.6463 -0.2101
 2213TIP3    H128274   3.038   4.451   1.635  0.3042 -1.5782  0.6980
 2213TIP3    H228275   3.036   4.468   1.785 -1.0416  0.3505  0.4974
 2214TIP3   OH228276   0.615   3.898   8.568 -0.3680 -0.1590 -0.2907
 2214TIP3    H128277   0.567   3.980   8.565 -1.5861 -0.8191  0.5483
 2214TIP3    H228278   0.681   3.906   8.498  1.2932  2.5678  1.4047
 2215TIP3   OH228279   5.516   1.102   2.657  0.6945 -0.3093 -0.4414
 2215TIP3    H128280   5.586   1.152   2.698  1.1724 -1.9061  0.7830
 2215TIP3    H228281   5.444   1.105   2.720  0.3470 -0.2677 -0.8371
 2216TIP3   OH228282   3.555   5.721   9.910  0.1353  0.1805  0.1726
 2216TIP3    H128283   3.558   5.804   9.861  1.7264  0.5837  0.9104
 2216TIP3    H228284   3.646   5.703   9.934 -0.3603 -1.0397  1.2829
 2217TIP3   OH228285   3.571   2.809   0.041  0.0732 -0.3254 -0.1661
 2217TIP3    H128286   3.642   2.802  -0.022  0.1300  0.3341 -0.1809
 2217TIP3    H228287   3.511   2.737   0.019  1.4588 -1.8516  0.7927
 2218TIP3   OH228288   4.491   5.053   3.675  0.1936  0.1562  0.2250
 2218TIP3    H128289   4.465   5.133   3.721  1.1291  0.0753  0.9044
 2218TIP3    H228290   4.566   5.020   3.724  0.5103 -0.5409 -0.7087
 2219TIP3   OH228291   3.923   3.514   2.301 -0.3789  0.1226 -0.4739
 2219TIP3    H128292   3.974   3.520   2.383  0.6235  2.4198 -1.1792
 2219TIP3    H228293   3.833   3.531   2.328 -0.2754 -0.5274  0.3295
 2220TIP3   OH228294   1.561   4.832   8.337  0.4359  0.3845  0.0794
 2220TIP3    H128295   1.597   4.767   8.398 -0.9158 -0.8716 -0.3980
 2220TIP3    H228296   1.600   4.810   8.252 -2.2282 -1.8049 -0.7144
 2221TIP3   OH228297   1.013   1.375   0.488 -0.1435 -0.4369 -0.2167
 2221TIP3    H128298   1.046   1.429   0.416 -0.0958 -0.5274 -0.2644
 2221TIP3    H228299   1.069   1.297   0.486  1.4059  0.5840  1.4275
 2222TIP3   OH228300   6.222   4.540   1.204  0.5839  0.2299  0.1664
 2222TIP3    H128301   6.281   4.465   1.196 -0.2096 -0.3002 -0.9999
 2222TIP3    H228302   6.198   4.560   1.114 -2.9451 -1.1566  0.6488
 2223TIP3   OH228303   6.154   3.762   8.810  0.1779  0.7897 -0.1186
 2223TIP3    H128304   6.231   3.744   8.756 -0.8527 -0.7840 -1.1788
 2223TIP3    H228305   6.122   3.847   8.780  1.4793  1.4777  0.3629
 2224TIP3   OH228306   0.307   2.873   9.390 -0.5280  0.6464 -0.4248
 2224TIP3    H128307   0.345   2.863   9.303  2.7259  0.1360  0.9082
 2224TIP3    H228308   0.378   2.907   9.444 -1.0089 -2.8447  2.9053
 2225TIP3   OH228309   1.958   5.536   0.694 -0.8735  0.0068  0.3767
 2225TIP3    H128310   1.951   5.631   0.688  1.5785  0.2344  0.1376
 2225TIP3    H228311   1.936   5.516   0.785 -1.9684  0.7196  0.2837
 2226TIP3   OH228312   3.947   3.503   9.186  0.2839  0.2948  0.0907
 2226TIP3    H128313   3.989   3.450   9.118 -0.2831  0.0383 -0.0613
 2226TIP3    H228314   4.014   3.512   9.254 -0.1369 -1.9993  0.8783
 2227TIP3   OH228315   1.238   2.025   8.166 -0.2139  0.8547 -0.2629
 2227TIP3    H128316   1.168   2.066   8.115 -0.9325 -1.3251 -1.1707
 2227TIP3    H228317   1.305   2.003   8.102  1.0876  2.3597  0.5135
 2228TIP3   OH228318   3.323   2.513   1.658  0.2121 -0.0289  0.4191
 2228TIP3    H128319   3.341   2.478   1.746 -0.4562  0.8245  0.9182
 2228TIP3    H228320   3.409   2.544   1.627  0.6791 -1.4174  0.2521
 2229TIP3   OH228321   1.289   4.648   2.509 -0.0602  0.1851  0.2707
 2229TIP3    H128322   1.328   4.735   2.516  1.4278 -0.3635 -0.8194
 2229TIP3    H228323   1.361   4.591   2.484 -1.1790 -1.2326  0.1403
 2230TIP3   OH228324   2.046   6.072   7.594 -0.8467  0.0850 -0.4425
 2230TIP3    H128325   2.010   6.090   7.680  0.0055 -0.7327  0.1068
 2230TIP3    H228326   2.108   6.144   7.578 -0.7893  0.0786 -0.2433
 2231TIP3   OH228327   0.313   3.426   1.651  0.0956 -0.5192 -0.3181
 2231TIP3    H128328   0.276   3.363   1.589  0.4823  0.4404 -1.5530
 2231TIP3    H228329   0.282   3.511   1.621  1.7525  0.1305 -0.2903
 2232TIP3   OH228330   6.059   0.792   8.407  0.1331 -0.2297  0.1277
 2232TIP3    H128331   6.000   0.840   8.349 -0.8068 -0.0170  1.2282
 2232TIP3    H228332   6.122   0.857   8.437 -0.7163  0.1877  1.0625
 2233TIP3   OH228333   1.209   4.113   3.238 -0.3065  0.2526  0.7157
 2233TIP3    H128334   1.141   4.177   3.219 -1.7688 -0.9772  1.6060
 2233TIP3    H228335   1.285   4.165   3.265 -0.5235  1.6871 -1.2651
 2234TIP3   OH228336   1.744   0.021   0.504 -0.9570  0.4741  0.1124
 2234TIP3    H128337   1.699   0.097   0.542 -0.2148  0.1003  1.8536
 2234TIP3    H228338   1.673  -0.037   0.475 -1.6082  0.5900  1.3840
 2235TIP3   OH228339   2.602   5.189   9.800  0.4289 -0.1811 -0.0500
 2235TIP3    H128340   2.520   5.154   9.765  0.2631 -1.2905  1.3353
 2235TIP3    H228341   2.671   5.136   9.758  0.3461 -0.2223 -0.1348
 2236TIP3   OH228342   5.681   0.843   9.253  0.2179 -0.1463  0.6757
 2236TIP3    H128343   5.732   0.924   9.251  0.4238 -0.1504  3.0109
 2236TIP3    H228344   5.661   0.829   9.346 -1.1014 -1.9793  0.1786
 2237TIP3   OH228345   5.175   0.819   2.571 -0.2335  0.3000 -0.2206
 2237TIP3    H128346   5.182   0.760   2.496 -0.4776 -0.3439  0.2557
 2237TIP3    H228347   5.080   0.834   2.581 -0.1919  0.5228 -0.1510
 2238TIP3   OH228348   0.181   1.469   8.968 -0.0053  0.4087 -0.1094
 2238TIP3    H128349   0.231   1.540   9.009 -0.3139  0.6095 -0.0809
 2238TIP3    H228350   0.156   1.412   9.042  0.0660  0.3779 -0.1088
 2239TIP3   OH228351   5.361   4.904   0.504 -0.7453  1.2167 -0.1720
 2239TIP3    H128352   5.376   4.960   0.428  1.8975 -0.2039 -0.8276
 2239TIP3    H228353   5.287   4.848   0.477 -1.4581  2.3629 -0.6740
 2240TIP3   OH228354   1.597   1.036   8.392  0.4487  0.0697  0.0189
 2240TIP3    H128355   1.689   1.061   8.395  0.9958 -1.5307 -1.6392
 2240TIP3    H228356   1.556   1.099   8.332  0.4868  0.6620  0.6046
 2241TIP3   OH228357   0.599   5.969   9.933  0.6711 -0.0667 -0.7719
 2241TIP3    H128358   0.633   6.058   9.946  0.0094  0.3026 -1.5293
 2241TIP3    H228359   0.562   5.969   9.845 -0.7698 -0.6226 -0.2007
 2242TIP3   OH228360   0.345   4.839   3.206  0.0748  0.4357 -0.0123
 2242TIP3    H128361   0.262   4.846   3.253  0.0965  2.1227 -0.1657
 2242TIP3    H228362   0.330   4.884   3.123  0.3812 -1.5062 -1.1739
 2243TIP3   OH228363   3.695   5.981   0.846  0.6195  0.0188 -0.1439
 2243TIP3    H128364   3.672   5.913   0.783 -1.3401  1.0763 -0.6412
 2243TIP3    H228365   3.680   5.940   0.932  0.4678 -0.5074 -0.4193
 2244TIP3   OH228366   1.068   4.744   1.773  0.0876 -0.1015  0.2420
 2244TIP3    H128367   1.107   4.765   1.858  2.2830  0.2965 -0.7904
 2244TIP3    H228368   1.056   4.649   1.775 -0.9670  0.0298  1.3910
 2245TIP3   OH228369   5.110   2.980   3.564 -0.5259  0.1223 -0.5514
 2245TIP3    H128370   5.163   3.007   3.639 -0.1736  1.5823 -1.2747
 2245TIP3    H228371   5.104   2.885   3.570  0.5043  0.1208  0.6513
 2246TIP3   OH228372   5.365   4.615   9.443 -0.0648  0.0639  1.0952
 2246TIP3    H128373   5.289   4.557   9.450 -2.1662  2.5641  0.5763
 2246TIP3    H228374   5.399   4.600   9.355  1.0137 -2.0920  1.8163
 2247TIP3   OH228375   5.621   6.327   1.315  0.1168 -0.1744 -0.4239
 2247TIP3    H128376   5.603   6.412   1.356  0.7975  0.3474 -1.1766
 2247TIP3    H228377   5.540   6.304   1.270  0.1708  0.4509 -0.8562
 2248TIP3   OH228378   0.739   6.276   7.238 -0.3228 -0.3953  0.2051
 2248TIP3    H128379   0.677   6.207   7.215 -0.3378 -0.2012 -0.3486
 2248TIP3    H228380   0.759   6.320   7.155  1.5201 -1.2538  0.1466
 2249TIP3   OH228381   0.843   3.903   2.460 -0.1916  0.3727  0.5513
 2249TIP3    H128382   0.839   3.870   2.549  1.4222  0.1847  0.5830
 2249TIP3    H228383   0.752   3.920   2.436 -0.6179  0.7678  2.3531
 2250TIP3   OH228384   6.416   4.961   9.212  0.0538  0.0864  0.2068
 2250TIP3    H128385   6.442   5.052   9.197 -0.8964  0.3159 -0.1657
 2250TIP3    H228386   6.391   4.958   9.304  2.9483 -0.5614  1.0451
 2251TIP3   OH228387   1.137   2.053   0.757 -0.0058  0.3374  0.3827
 2251TIP3    H128388   1.113   2.132   0.804 -2.6041 -0.2591  0.2310
 2251TIP3    H228389   1.150   1.987   0.826 -0.5918  0.2552  0.4238
 2252TIP3   OH228390   0.708   1.580   1.061 -0.2307 -0.1774 -0.4525
 2252TIP3    H128391   0.652   1.653   1.085  0.1546  0.0680 -0.2946
 2252TIP3    H228392   0.722   1.533   1.143 -0.6264 -0.5360 -0.5860
 2253TIP3   OH228393   3.415   4.336   9.775 -0.2945 -0.1675 -0.3660
 2253TIP3    H128394   3.322   4.346   9.791 -0.3591 -0.1884 -0.7305
 2253TIP3    H228395   3.425   4.343   9.680  0.2467  1.4286 -0.2365
 2254TIP3   OH228396   5.284   1.326   0.788 -0.4240  0.0679 -0.5252
 2254TIP3    H128397   5.212   1.264   0.797 -0.7540  0.5375  0.1836
 2254TIP3    H228398   5.244   1.403   0.746 -0.4241  0.4617  0.1849
 2255TIP3   OH228399   3.817   3.897   9.800  0.5765 -0.0516 -0.1871
 2255TIP3    H128400   3.911   3.897   9.814  0.5262 -0.8631  0.1900
 2255TIP3    H228401   3.803   3.838   9.727  0.3688  0.1996 -0.3548
 2256TIP3   OH228402   0.617   5.927   9.367  0.1198  0.1027  0.1726
 2256TIP3    H128403   0.554   5.999   9.375  0.4506  0.3462  0.6885
 2256TIP3    H228404   0.701   5.966   9.391  0.3582 -0.3774  0.1341
 2257TIP3   OH228405   5.934   2.530   1.348 -0.0059  0.3986  0.3334
 2257TIP3    H128406   5.851   2.575   1.364  0.2898  1.2195 -0.4270
 2257TIP3    H228407   5.914   2.438   1.365 -1.5066  0.3547 -1.3687
 2258TIP3   OH228408   1.470   2.488   2.047  0.2697 -0.2881  0.3126
 2258TIP3    H128409   1.381   2.489   2.083  0.8399  1.5064  1.8088
 2258TIP3    H228410   1.496   2.396   2.054 -0.0710 -0.2726  3.6603
 2259TIP3   OH228411   2.947   2.088   1.088 -0.3045 -0.4522  0.3579
 2259TIP3    H128412   2.953   2.102   0.994  2.6205 -1.7116  0.2469
 2259TIP3    H228413   2.919   2.173   1.123 -1.4242  0.0447 -1.6026
 2260TIP3   OH228414   4.887   5.466   2.079 -0.0102 -0.1135 -0.5633
 2260TIP3    H128415   4.940   5.534   2.037  2.4793 -1.4646  0.1965
 2260TIP3    H228416   4.870   5.402   2.010 -0.2063  0.0704 -0.6859
 2261TIP3   OH228417   2.757   1.833   9.428 -0.0617  0.0194 -0.7928
 2261TIP3    H128418   2.815   1.815   9.354  2.1493 -3.2223  1.4773
 2261TIP3    H228419   2.815   1.859   9.499 -2.0360  2.0891  0.2211
 2262TIP3   OH228420   3.513   3.364   3.313  0.1433  0.7298  0.1145
 2262TIP3    H128421   3.539   3.326   3.397  1.0287 -0.6899 -0.7717
 2262TIP3    H228422   3.555   3.451   3.313 -0.6687  1.1567  1.5244
 2263TIP3   OH228423   2.339   3.621   9.101  0.5103 -0.5962 -0.0183
 2263TIP3    H128424   2.269   3.610   9.036  0.4534  1.6291 -0.4227
 2263TIP3    H228425   2.369   3.532   9.119  0.4023 -1.3605 -2.9759
 2264TIP3   OH228426   0.972   1.805   2.378  0.6310  0.0102  0.0087
 2264TIP3    H128427   1.065   1.804   2.355  0.1902 -2.2289 -2.0947
 2264TIP3    H228428   0.933   1.868   2.318  0.5943 -0.1201 -0.1053
 2265TIP3   OH228429   6.293   3.065   9.929  0.3053 -0.2936 -0.1955
 2265TIP3    H128430   6.334   3.057  10.016 -0.7044 -2.1674  0.1742
 2265TIP3    H228431   6.200   3.050   9.945 -0.1047  0.7206 -1.4447
 2266TIP3   OH228432   6.081   5.429   8.921 -0.0955 -0.4981 -0.0137
 2266TIP3    H128433   5.991   5.406   8.898  0.2682 -1.3081 -0.6940
 2266TIP3    H228434   6.100   5.507   8.869 -0.3631 -0.3977  0.0395
 2267TIP3   OH228435   0.477   2.527   0.057 -0.4326  0.1538  0.1583
 2267TIP3    H128436   0.461   2.617   0.084  0.4524  0.9404 -1.7782
 2267TIP3    H228437   0.543   2.534  -0.012  0.8746 -2.1104  1.0584
 2268TIP3   OH228438   1.454   1.139   1.162  0.3205 -0.4911  0.3268
 2268TIP3    H128439   1.471   1.148   1.255  0.6719  0.4716  0.1846
 2268TIP3    H228440   1.399   1.061   1.154 -1.1506  0.3954  1.4898
 2269TIP3   OH228441   5.782   1.835   1.878 -0.0418 -0.0798 -0.2886
 2269TIP3    H128442   5.801   1.794   1.962 -0.3126 -1.1275 -0.7243
 2269TIP3    H228443   5.820   1.923   1.885 -1.9893  0.6761  1.7360
 2270TIP3   OH228444   3.134   5.880   7.806 -0.3082  0.2190  0.7710
 2270TIP3    H128445   3.061   5.854   7.862 -2.0999  0.8112 -1.1656
 2270TIP3    H228446   3.196   5.807   7.812 -0.4561  0.2074  3.3530
 2271TIP3   OH228447   3.921   3.435   0.531 -0.2713 -0.0991  0.5540
 2271TIP3    H128448   3.945   3.472   0.616  0.4989 -0.9894  0.7457
 2271TIP3    H228449   3.961   3.493   0.467  3.3443 -1.9679  0.8547
 2272TIP3   OH228450   4.176   0.002   9.318  0.0750 -0.0676 -0.9814
 2272TIP3    H128451   4.084  -0.015   9.297 -0.1097 -0.0544 -0.2283
 2272TIP3    H228452   4.173   0.049   9.401  0.7157  0.9005 -1.4847
 2273TIP3   OH228453   5.252   3.897   8.827 -0.2098  0.2936 -0.1463
 2273TIP3    H128454   5.332   3.943   8.853 -0.4548 -0.8296  3.0390
 2273TIP3    H228455   5.281   3.808   8.806 -0.3917  0.4330 -1.0233
 2274TIP3   OH228456   5.675   2.766   9.493 -1.0277 -0.9907 -0.0128
 2274TIP3    H128457   5.760   2.744   9.531 -1.1431  0.4531  1.1771
 2274TIP3    H228458   5.690   2.768   9.399  0.5209  0.2431  0.2276
 2275TIP3   OH228459   3.881   1.942   1.470  0.4404 -0.1355  0.3422
 2275TIP3    H128460   3.837   1.976   1.391  0.1203  1.8345  1.2942
 2275TIP3    H228461   3.929   2.018   1.504  4.4406 -2.0742 -0.4500
 2276TIP3   OH228462   5.914   3.500   1.441 -0.4602 -0.3403 -0.6825
 2276TIP3    H128463   5.943   3.591   1.446  1.7372 -0.8222 -2.7847
 2276TIP3    H228464   5.918   3.469   1.532  1.6672  0.8562 -0.2940
 2277TIP3   OH228465   0.086   3.824   1.883  0.1522 -0.3321 -0.0116
 2277TIP3    H128466   0.097   3.736   1.920 -0.0303 -0.3660 -0.0353
 2277TIP3    H228467   0.155   3.876   1.925  0.8185 -0.6838 -0.6555
 2278TIP3   OH228468   5.185   1.611   0.731  0.5112  0.3747 -0.3235
 2278TIP3    H128469   5.103   1.594   0.683 -0.2576  2.7088  0.0326
 2278TIP3    H228470   5.157   1.657   0.810  2.0342 -0.6763  0.8780
 2279TIP3   OH228471   1.568   2.491   9.349 -0.0067 -0.3890 -0.2706
 2279TIP3    H128472   1.654   2.499   9.391 -0.7395  1.7291  1.0176
 2279TIP3    H228473   1.511   2.457   9.418 -0.8181  1.2354 -0.0818
 2280TIP3   OH228474   2.299   0.171   8.800  0.3993  0.2989  0.2329
 2280TIP3    H128475   2.335   0.258   8.815 -3.8543  1.8889  3.1558
 2280TIP3    H228476   2.230   0.185   8.734  2.1621 -1.8275 -2.2908
 2281TIP3   OH228477   4.035   3.537   8.878 -0.0793  0.2411  0.7872
 2281TIP3    H128478   4.028   3.618   8.929 -0.4904 -0.1576  1.3750
 2281TIP3    H228479   4.033   3.467   8.943  2.6188 -0.2000  0.5000
 2282TIP3   OH228480   5.518   2.336   1.518  0.0539  0.0833  0.0493
 2282TIP3    H128481   5.470   2.267   1.473  1.3086  0.1487 -1.4521
 2282TIP3    H228482   5.543   2.297   1.602  0.2481 -1.1139 -0.5461
 2283TIP3   OH228483   0.019   5.196   2.226  0.3375  0.0444 -0.1564
 2283TIP3    H128484   0.104   5.196   2.182  0.4094 -0.2981 -0.0161
 2283TIP3    H228485   0.036   5.160   2.313  0.1095  0.2900 -0.0086
 2284TIP3   OH228486   2.711   5.245   1.214  0.3681 -0.3309 -0.3790
 2284TIP3    H128487   2.772   5.315   1.193  0.0351  0.2590  0.5724
 2284TIP3    H228488   2.725   5.228   1.308 -0.8621 -0.2394 -0.1668
 2285TIP3   OH228489   1.295   4.983   8.403  0.5714  0.1276  0.3025
 2285TIP3    H128490   1.295   5.006   8.310 -0.5813  0.9724  0.4922
 2285TIP3    H228491   1.368   5.032   8.441  1.7195 -1.0332 -0.3143
 2286TIP3   OH228492   2.811   5.409   0.909  0.3523 -0.2059 -0.4627
 2286TIP3    H128493   2.809   5.461   0.989  0.9631  1.5245 -1.5289
 2286TIP3    H228494   2.903   5.387   0.897  0.0435 -2.1035  0.2834
 2287TIP3   OH228495   5.229   0.451   9.757  0.3854  0.3829  0.5174
 2287TIP3    H128496   5.314   0.488   9.733  0.2297  1.0160  0.9145
 2287TIP3    H228497   5.231   0.448   9.853 -0.1883  0.7791  0.5496
 2288TIP3   OH228498   3.231   5.244   8.185  0.0445  0.4604  0.4729
 2288TIP3    H128499   3.308   5.238   8.128 -0.7945  1.7274 -0.8584
 2288TIP3    H228500   3.197   5.155   8.187  0.5617  0.2268 -0.3567
 2289TIP3   OH228501   0.644   2.186   9.438  0.1233 -0.4357 -0.4757
 2289TIP3    H128502   0.562   2.227   9.413  1.1377  1.9335 -0.2059
 2289TIP3    H228503   0.618   2.108   9.488 -2.0064  1.2263  1.2050
 2290TIP3   OH228504   2.003   4.786   3.088 -0.1177  0.1508 -0.6089
 2290TIP3    H128505   2.081   4.737   3.117 -1.3994 -2.8394 -1.7996
 2290TIP3    H228506   2.037   4.852   3.028  1.5027 -2.6396 -3.0730
 2291TIP3   OH228507   6.105   4.756   0.321 -0.1197 -0.3825 -0.4242
 2291TIP3    H128508   6.129   4.675   0.366 -1.1145 -0.9523 -0.8901
 2291TIP3    H228509   6.104   4.732   0.228  0.2292  0.3411 -0.6178
 2292TIP3   OH228510   0.383   4.527   7.250 -0.5582  0.3039 -0.0352
 2292TIP3    H128511   0.412   4.458   7.310 -0.4481  0.1490 -0.2618
 2292TIP3    H228512   0.324   4.581   7.302 -0.4088  0.2126  0.2317
 2293TIP3   OH228513   1.352   0.619   9.274  0.7602 -0.5358 -0.2026
 2293TIP3    H128514   1.446   0.610   9.285  0.5647 -2.2046  0.4757
 2293TIP3    H228515   1.339   0.621   9.180  1.6053  2.0557 -0.3367
 2294TIP3   OH228516   0.701   1.305   9.344  0.9646 -0.6952  0.0940
 2294TIP3    H128517   0.770   1.239   9.336  1.6702 -0.0415  0.5817
 2294TIP3    H228518   0.627   1.258   9.382  1.3498 -1.2712  0.1430
 2295TIP3   OH228519   1.332   5.685   1.472  0.2318 -0.0155  0.0082
 2295TIP3    H128520   1.280   5.763   1.450 -0.4718 -1.2124 -3.1479
 2295TIP3    H228521   1.332   5.682   1.567 -1.0439  2.9554  0.2095
 2296TIP3   OH228522   4.122   1.287   1.249 -0.0612  0.0512  0.2652
 2296TIP3    H128523   4.169   1.364   1.283  0.5983  0.2239 -0.9542
 2296TIP3    H228524   4.031   1.302   1.273 -0.2090  2.0130 -1.2276
 2297TIP3   OH228525   0.333   0.686   9.699  0.5245 -0.3868  0.0932
 2297TIP3    H128526   0.277   0.743   9.751  0.1020  0.2351 -1.0025
 2297TIP3    H228527   0.273   0.640   9.640  1.1002 -0.0443 -0.7842
 2298TIP3   OH228528   0.341   2.789   8.627 -0.1554 -0.2003  0.1131
 2298TIP3    H128529   0.279   2.829   8.566 -0.1928 -0.1754  0.1673
 2298TIP3    H228530   0.353   2.855   8.695  1.1143  0.4256 -0.6761
 2299TIP3   OH228531   3.012   4.630   1.111 -0.6018 -0.1702  0.7421
 2299TIP3    H128532   2.990   4.538   1.099  0.4152 -0.1222 -2.0623
 2299TIP3    H228533   3.087   4.629   1.171  2.2637 -1.6477 -2.5384
 2300TIP3   OH228534   3.449   3.796   2.227  0.1455 -0.0675 -0.3235
 2300TIP3    H128535   3.354   3.803   2.229 -0.1857 -2.2235  4.4287
 2300TIP3    H228536   3.466   3.724   2.166 -1.5021 -1.0485  0.2990
 2301TIP3   OH228537   5.762   2.870   8.554  0.3806  0.9125  0.0691
 2301TIP3    H128538   5.826   2.920   8.502  2.4962 -0.8296  0.8347
 2301TIP3    H228539   5.764   2.912   8.640 -1.3045  2.2862 -0.5153
 2302TIP3   OH228540   5.776   5.501   8.480  0.1237  0.6798 -0.2778
 2302TIP3    H128541   5.833   5.508   8.404 -1.0289  2.1355 -1.0649
 2302TIP3    H228542   5.803   5.421   8.523  2.2081  0.9148 -1.0552
 2303TIP3   OH228543   5.483   6.153   1.737 -0.1041  0.0874  0.0525
 2303TIP3    H128544   5.400   6.169   1.692  0.8869  0.5038 -1.7168
 2303TIP3    H228545   5.459   6.148   1.830 -1.9537  1.2199 -0.3081
 2304TIP3   OH228546   0.315   5.130   7.514  0.1103 -0.0165  0.0967
 2304TIP3    H128547   0.279   5.209   7.555  1.4404  0.4139  0.4663
 2304TIP3    H228548   0.398   5.158   7.476  0.1524 -1.0309 -0.5990
 2305TIP3   OH228549   1.887   6.020   8.983 -0.2880 -0.0669  0.0477
 2305TIP3    H128550   1.818   5.954   8.986 -0.3169 -0.0209  1.3449
 2305TIP3    H228551   1.856   6.085   8.920 -1.0139 -0.4932 -0.0422
 2306TIP3   OH228552   5.504   3.560   1.849  0.3421  0.3134  0.7510
 2306TIP3    H128553   5.532   3.600   1.767 -1.2581  0.3203  0.1732
 2306TIP3    H228554   5.579   3.506   1.876  0.7348 -0.0593 -0.9591
 2307TIP3   OH228555   6.052   5.925   2.653  0.1844  0.0181 -0.3912
 2307TIP3    H128556   6.111   5.902   2.724 -0.2422 -0.3131 -0.1384
 2307TIP3    H228557   6.049   5.847   2.597  1.3049  0.6164 -1.3413
 2308TIP3   OH228558   3.193   1.383   9.861 -0.0099 -0.0878  0.0147
 2308TIP3    H128559   3.221   1.471   9.884  3.7579 -1.4857  1.7751
 2308TIP3    H228560   3.206   1.376   9.767 -0.1296  1.1466 -0.1006
 2309TIP3   OH228561   1.294   0.574   2.233  0.2905 -0.3620  0.0279
 2309TIP3    H128562   1.261   0.657   2.266 -1.0744 -0.1168 -1.8119
 2309TIP3    H228563   1.355   0.544   2.300  1.7057  2.6651  0.2520
 2310TIP3   OH228564   3.617   0.136   8.990  0.1822  0.2071  0.4306
 2310TIP3    H128565   3.673   0.069   8.951  0.0555  0.6644 -0.5617
 2310TIP3    H228566   3.615   0.114   9.083  1.3872 -0.2680  0.3649
 2311TIP3   OH228567   4.912   0.844   7.517 -0.2290 -0.1534 -0.1663
 2311TIP3    H128568   4.864   0.853   7.599  2.1517 -1.8623  1.5834
 2311TIP3    H228569   5.003   0.863   7.541  0.5707 -0.8425 -2.3933
 2312TIP3   OH228570   5.771   0.411   1.899 -0.6691  0.1473 -0.4657
 2312TIP3    H128571   5.773   0.316   1.896  0.3414  0.1484 -0.0067
 2312TIP3    H228572   5.838   0.439   1.837 -1.1756  0.5785 -0.8392
 2313TIP3   OH228573   0.218   1.798   8.820 -0.0624 -0.0389  0.5913
 2313TIP3    H128574   0.161   1.729   8.786  0.6614 -0.8238  0.9435
 2313TIP3    H228575   0.214   1.788   8.915  0.6022 -0.0573  0.6206
 2314TIP3   OH228576   1.437   5.406   3.192 -0.3126 -0.7752  0.0800
 2314TIP3    H128577   1.501   5.469   3.159 -0.7262  0.4304  1.4539
 2314TIP3    H228578   1.398   5.450   3.268 -1.1287 -2.4110  0.6479
 2315TIP3   OH228579   6.193   3.682   0.393 -0.6436 -0.1476 -0.1397
 2315TIP3    H128580   6.238   3.600   0.371  0.1055  0.6396 -1.7598
 2315TIP3    H228581   6.263   3.740   0.421 -1.2117 -0.1246  1.3069
 2316TIP3   OH228582   5.460   3.829   1.944  0.1226 -0.1741  0.0062
 2316TIP3    H128583   5.451   3.736   1.925  0.6057 -0.2569  0.1728
 2316TIP3    H228584   5.474   3.870   1.858 -1.8567 -0.0125 -0.3024
 2317TIP3   OH228585   4.161   3.125   2.808  0.4953  0.5035 -0.3488
 2317TIP3    H128586   4.187   3.170   2.888  0.6068 -0.6093  0.2651
 2317TIP3    H228587   4.098   3.059   2.837 -0.0367  0.5847 -1.2903
 2318TIP3   OH228588   4.148   0.893   0.365  0.2581 -0.0905 -0.0176
 2318TIP3    H128589   4.230   0.862   0.404  0.4317  0.7833  0.3306
 2318TIP3    H228590   4.145   0.851   0.279 -0.5678 -2.7889  1.2155
 2319TIP3   OH228591   1.439   4.089   3.615  0.1818 -0.0837 -0.0509
 2319TIP3    H128592   1.419   4.182   3.625 -0.8059 -0.2040 -0.7818
 2319TIP3    H228593   1.535   4.085   3.618  0.1903  0.6362  2.4887
 2320TIP3   OH228594   4.885   0.853   2.493  0.0451 -0.7156 -0.8296
 2320TIP3    H128595   4.791   0.858   2.510 -0.1367  0.0158 -1.9385
 2320TIP3    H228596   4.891   0.839   2.398  1.0697  0.8020 -1.0192
 2321TIP3   OH228597   5.003   0.474   0.180  0.2156 -0.0264 -0.3362
 2321TIP3    H128598   4.953   0.511   0.107 -1.3614 -1.7978 -0.2412
 2321TIP3    H228599   4.999   0.541   0.248  0.1166  0.8891 -1.2140
 2322TIP3   OH228600   3.752   3.304   9.302  0.0029 -0.4158  0.1586
 2322TIP3    H128601   3.804   3.371   9.257  0.8355 -0.2715  1.2904
 2322TIP3    H228602   3.710   3.352   9.374 -0.3917 -0.8701  0.2334
 2323TIP3   OH228603   2.042   1.561   8.124 -0.4150  0.1974 -0.2282
 2323TIP3    H128604   2.039   1.540   8.031 -0.0534  1.4453 -0.5375
 2323TIP3    H228605   2.135   1.574   8.144 -0.4108 -0.7624  0.4938
 2324TIP3   OH228606   3.692   2.789   0.916  0.0322  0.7195 -0.1960
 2324TIP3    H128607   3.719   2.756   1.002  1.7865 -0.8109 -1.2567
 2324TIP3    H228608   3.745   2.867   0.902 -0.4286  1.1073  0.2022
 2325TIP3   OH228609   2.289   1.539   7.862  0.8249 -0.7956 -0.6346
 2325TIP3    H128610   2.206   1.492   7.871 -0.4627  1.0467 -2.1326
 2325TIP3    H228611   2.275   1.622   7.907  2.2046 -0.8033 -0.1352
 2326TIP3   OH228612   0.435   1.094   2.698  0.2555 -0.9308 -0.2717
 2326TIP3    H128613   0.493   1.161   2.662  0.0347 -0.6953 -0.1934
 2326TIP3    H228614   0.374   1.142   2.754  0.0683 -1.1919 -0.2478
 2327TIP3   OH228615   2.078   1.153   0.002 -0.6332  0.1245 -0.0590
 2327TIP3    H128616   2.010   1.090  -0.022  0.5013 -0.4466 -1.9645
 2327TIP3    H228617   2.128   1.110   0.071 -0.9679 -0.2836 -0.0696
 2328TIP3   OH228618   3.256   4.670   2.069 -0.1520 -0.4683  0.2617
 2328TIP3    H128619   3.230   4.658   1.978  0.1689  0.2357  0.0703
 2328TIP3    H228620   3.201   4.741   2.101 -0.1265 -0.5823  0.5617
 2329TIP3   OH228621   3.306   1.058   8.511  0.3316 -0.5969  0.0281
 2329TIP3    H128622   3.282   0.965   8.504  0.3685 -0.6534  0.6108
 2329TIP3    H228623   3.280   1.083   8.599 -4.0468  1.2576 -1.5680
 2330TIP3   OH228624   4.371   2.029   2.301 -0.0279 -0.3632 -0.2201
 2330TIP3    H128625   4.402   1.940   2.317  1.8175  0.4837  1.4128
 2330TIP3    H228626   4.450   2.082   2.299 -1.1440  1.4084  0.0679
 2331TIP3   OH228627   0.997   0.959   6.924 -0.0057  0.2795  0.5265
 2331TIP3    H128628   1.026   0.873   6.894 -0.4944  0.8497 -1.7686
 2331TIP3    H228629   1.003   1.015   6.846 -0.8742  2.0274  1.6511
 2332TIP3   OH228630   2.991   2.739   0.918  0.2784 -0.5099  0.0598
 2332TIP3    H128631   3.007   2.676   0.988 -0.7764 -0.3235  0.4839
 2332TIP3    H228632   2.991   2.685   0.838  1.3659 -0.7384  0.1938
 2333TIP3   OH228633   3.798   5.556   9.502 -0.3211  0.0335 -0.1958
 2333TIP3    H128634   3.790   5.465   9.474  0.7634 -0.3933  0.8006
 2333TIP3    H228635   3.730   5.567   9.568  0.8693 -0.6984  1.2013
 2334TIP3   OH228636   1.000   5.854   7.754  0.0035  0.0062 -0.3108
 2334TIP3    H128637   1.076   5.900   7.790 -1.0210  1.4006  0.1923
 2334TIP3    H228638   0.937   5.924   7.735 -1.4763 -1.1708  0.0652
 2335TIP3   OH228639   1.507   0.844   1.481  0.1118 -0.0134  0.6447
 2335TIP3    H128640   1.602   0.858   1.473  0.5662 -1.6350  2.3111
 2335TIP3    H228641   1.495   0.751   1.459 -1.3663  0.5573 -1.1791
 2336TIP3   OH228642   3.535   3.310   0.382 -0.5507  0.2252 -0.2723
 2336TIP3    H128643   3.517   3.220   0.410 -1.2299  0.3795 -0.1799
 2336TIP3    H228644   3.451   3.341   0.348 -0.4558  0.9930  0.1706
 2337TIP3   OH228645   6.098   5.564   8.464  0.2305 -0.2163 -0.1952
 2337TIP3    H128646   6.068   5.537   8.377  0.5488 -0.0658 -0.3524
 2337TIP3    H228647   6.113   5.481   8.510 -0.7422 -0.3026  0.0071
 2338TIP3   OH228648   0.660   6.412   2.591  0.4977 -0.4188 -0.2575
 2338TIP3    H128649   0.691   6.324   2.613 -1.9498 -1.8587 -2.1633
 2338TIP3    H228650   0.655   6.457   2.676  0.8139 -2.4363  0.8961
 2339TIP3   OH228651   5.762   5.572   2.216 -0.1275 -0.1845 -0.3848
 2339TIP3    H128652   5.676   5.597   2.184  1.1058  3.4159 -1.3711
 2339TIP3    H228653   5.813   5.553   2.137  0.7277  0.6603 -0.0657
 2340TIP3   OH228654   3.184   6.225   7.910 -0.0748 -0.1917  0.1525
 2340TIP3    H128655   3.171   6.172   7.831 -0.1493 -1.7430  1.1446
 2340TIP3    H228656   3.107   6.207   7.964  0.8496 -0.6950  1.3635
 2341TIP3   OH228657   0.422   5.492   1.509  0.4143 -0.2284  0.5635
 2341TIP3    H128658   0.497   5.434   1.491  0.8250  0.2009  0.8800
 2341TIP3    H228659   0.458   5.580   1.500 -0.2976 -0.0092 -0.3010
 2342TIP3   OH228660   4.733   1.093   9.128  0.0657 -0.5265 -0.1852
 2342TIP3    H128661   4.813   1.141   9.150 -0.6842  1.0603 -0.7369
 2342TIP3    H228662   4.741   1.077   9.034 -0.1441 -0.5857 -0.1916
 2343TIP3   OH228663   4.361   0.028   1.819 -0.1526 -0.2153 -0.1641
 2343TIP3    H128664   4.318  -0.007   1.897 -0.1352  0.8353  0.3258
 2343TIP3    H228665   4.450  -0.007   1.823 -0.2617 -0.4741  0.0696
 2344TIP3   OH228666   1.513   5.492   8.039 -0.7796  0.2167 -0.3897
 2344TIP3    H128667   1.606   5.513   8.029 -0.7387 -0.0159 -0.4995
 2344TIP3    H228668   1.485   5.464   7.952 -1.1620  1.0952 -0.5595
 2345TIP3   OH228669   2.730   6.092   0.378 -0.1317 -0.0806  0.5593
 2345TIP3    H128670   2.731   5.996   0.372 -0.6628 -0.1019  0.7184
 2345TIP3    H228671   2.638   6.115   0.368 -0.1345  0.3468  1.5160
 2346TIP3   OH228672   5.625   1.082   1.929 -0.0975  0.4644  0.2847
 2346TIP3    H128673   5.686   1.064   2.001 -2.2924  1.3562  2.5353
 2346TIP3    H228674   5.592   0.996   1.904  1.6587  0.0184 -0.6387
 2347TIP3   OH228675   2.066   3.458   2.023  0.6172 -0.6882  0.4649
 2347TIP3    H128676   2.141   3.517   2.021  0.2714 -0.2587 -0.1547
 2347TIP3    H228677   2.054   3.432   1.931 -2.2727  2.1826 -0.1105
 2348TIP3   OH228678   1.210   0.893   9.314 -0.4462 -0.0051  0.0462
 2348TIP3    H128679   1.288   0.838   9.314 -1.2430 -1.1689 -1.1693
 2348TIP3    H228680   1.147   0.845   9.367 -1.1827 -0.3600 -1.1153
 2349TIP3   OH228681   0.649   0.147   8.274 -0.8648 -0.5667  0.0372
 2349TIP3    H128682   0.683   0.200   8.346  0.5221 -2.7262  1.0700
 2349TIP3    H228683   0.719   0.144   8.210 -1.1229 -0.7438 -0.2426
 2350TIP3   OH228684   5.069   1.811   9.976  0.3289  0.1039 -0.5623
 2350TIP3    H128685   5.093   1.751   9.905 -1.9726 -0.9972 -0.5225
 2350TIP3    H228686   5.116   1.892   9.957  1.7666 -0.9973 -1.8937
 2351TIP3   OH228687   4.403   3.372   2.919 -0.4751  0.0439  0.2861
 2351TIP3    H128688   4.478   3.313   2.924  1.4376  2.3476  0.7734
 2351TIP3    H228689   4.330   3.321   2.952  0.4616 -2.8312 -1.6327
 2352TIP3   OH228690   3.258   5.103   3.584 -0.5137 -0.2103 -1.1565
 2352TIP3    H128691   3.220   5.117   3.497  0.9671  0.7399 -1.6853
 2352TIP3    H228692   3.183   5.100   3.642 -1.4773  0.2591 -2.3282
 2353TIP3   OH228693   2.101   2.813   2.256  1.1903  0.4001 -0.0277
 2353TIP3    H128694   2.118   2.724   2.223 -1.1564  0.5123 -1.8588
 2353TIP3    H228695   2.059   2.857   2.182 -2.1342  1.5149  2.3181
 2354TIP3   OH228696   5.160   1.081   2.467 -0.0616  0.0337 -0.8000
 2354TIP3    H128697   5.137   1.000   2.513  0.6024 -0.0368 -0.5833
 2354TIP3    H228698   5.174   1.145   2.536  1.7291 -0.2808 -0.8412
 2355TIP3   OH228699   5.191   5.718   9.288 -0.1960 -0.4845  0.6177
 2355TIP3    H128700   5.211   5.639   9.338  1.4304  0.2753  1.2289
 2355TIP3    H228701   5.096   5.726   9.293 -0.2956 -1.8653  1.3560
 2356TIP3   OH228702   0.857   2.948   1.690  0.0937 -0.0547  0.1032
 2356TIP3    H128703   0.905   3.030   1.692 -0.6734  0.4338 -0.5303
 2356TIP3    H228704   0.881   2.903   1.771  1.3054  0.3318 -0.0263
 2357TIP3   OH228705   0.115   4.277   2.062 -0.3926  0.1612  0.3835
 2357TIP3    H128706   0.055   4.301   1.992  1.0254 -1.2863 -1.4542
 2357TIP3    H228707   0.182   4.346   2.061  0.5320 -0.7126 -0.8979
 2358TIP3   OH228708   5.654   1.009   2.244 -0.3789  0.4121 -0.4165
 2358TIP3    H128709   5.715   1.079   2.222  0.6005 -0.3193 -0.1361
 2358TIP3    H228710   5.709   0.931   2.252 -1.2774 -0.1754  0.3914
 2359TIP3   OH228711   1.713   3.346   3.144 -0.4680  0.0923  0.1915
 2359TIP3    H128712   1.647   3.280   3.167 -0.4657 -0.1557 -0.5015
 2359TIP3    H228713   1.758   3.364   3.227  1.9719 -3.4507 -0.1475
 2360TIP3   OH228714   0.754   2.575   7.804 -0.1085 -0.3560  0.7966
 2360TIP3    H128715   0.692   2.593   7.733 -0.3639 -0.6152  0.9511
 2360TIP3    H228716   0.805   2.500   7.773 -1.8739 -2.1158  1.8774
 2361TIP3   OH228717   5.077   5.557   2.951 -0.0529  0.4673  0.0629
 2361TIP3    H128718   5.155   5.541   3.006 -0.4334 -0.3806  0.3769
 2361TIP3    H228719   5.041   5.639   2.985 -0.3064 -0.0626  1.1350
 2362TIP3   OH228720   3.403   2.203   0.988 -0.0854  0.3815 -0.2769
 2362TIP3    H128721   3.341   2.131   0.977  1.5641 -1.1163 -0.2798
 2362TIP3    H228722   3.381   2.242   1.072 -0.4950 -0.6849  0.1268
 2363TIP3   OH228723   3.170   0.814   7.932  0.1608 -0.7293  0.0453
 2363TIP3    H128724   3.243   0.877   7.925 -0.5832  0.2339  0.6544
 2363TIP3    H228725   3.117   0.830   7.854  0.0117 -0.6447  0.1623
 2364TIP3   OH228726   1.418   4.749   9.301  0.5400 -0.1477 -0.0654
 2364TIP3    H128727   1.374   4.738   9.385 -0.6982 -0.6145 -0.7525
 2364TIP3    H228728   1.443   4.841   9.299 -1.6886  0.4962 -0.2339
 2365TIP3   OH228729   1.856   6.140   0.665  0.4606  0.7791 -0.2335
 2365TIP3    H128730   1.775   6.187   0.645 -0.1363 -0.3623 -0.5459
 2365TIP3    H228731   1.838   6.097   0.749  0.5716  0.1549 -0.5258
 2366TIP3   OH228732   2.483   5.986   8.859 -0.1255  0.3191 -0.2374
 2366TIP3    H128733   2.461   5.981   8.766 -1.7945 -0.4544  0.1792
 2366TIP3    H228734   2.575   5.958   8.863  0.6156  2.2600 -1.8538
 2367TIP3   OH228735   3.436   2.603   9.957 -0.6965 -0.6581  0.1464
 2367TIP3    H128736   3.450   2.510   9.942  1.5256 -0.1071 -1.7410
 2367TIP3    H228737   3.343   2.617   9.938 -0.5978 -2.1448 -1.7035
 2368TIP3   OH228738   4.269   1.833   0.263 -0.7491 -0.8541 -0.2205
 2368TIP3    H128739   4.276   1.738   0.264 -1.1993 -0.9066 -1.1898
 2368TIP3    H228740   4.177   1.851   0.283 -0.6388 -0.6062  0.0921
 2369TIP3   OH228741   1.201   0.472   9.060 -0.2710  0.4356 -0.0556
 2369TIP3    H128742   1.163   0.429   8.983  0.0795  1.9214 -1.1116
 2369TIP3    H228743   1.195   0.565   9.040  0.2249  0.8430  1.5583
 2370TIP3   OH228744   5.643   5.130   0.244 -0.0625  0.2339 -0.2737
 2370TIP3    H128745   5.676   5.067   0.180 -0.3320 -0.2567  0.0664
 2370TIP3    H228746   5.662   5.216   0.205  0.5831 -0.0485 -0.5990
 2371TIP3   OH228747   3.571   1.939   8.914  0.2641  0.4157 -0.5891
 2371TIP3    H128748   3.656   1.905   8.889  0.5781  0.3754  0.4693
 2371TIP3    H228749   3.579   2.034   8.904  0.1913  0.3645 -1.1743
 2372TIP3   OH228750   4.051   2.330   9.499  0.3463 -0.1601 -0.4383
 2372TIP3    H128751   4.057   2.341   9.404  0.8713 -0.0047 -0.3882
 2372TIP3    H228752   3.998   2.251   9.511  0.5539 -0.3671 -0.8631
 2373TIP3   OH228753   1.522   1.901   9.817  0.2931  0.4034  0.9408
 2373TIP3    H128754   1.499   1.966   9.751  0.3360  0.9516  1.4634
 2373TIP3    H228755   1.617   1.891   9.809  0.1512 -0.4755  0.0665
 2374TIP3   OH228756   5.064   2.998   9.597 -0.2151 -0.8208  0.1438
 2374TIP3    H128757   5.122   3.003   9.521  0.1717 -1.6304  0.3672
 2374TIP3    H228758   5.085   3.076   9.649 -0.2481 -0.4386 -0.4198
 2375TIP3   OH228759   0.243   1.641   1.704 -0.2169  0.0962  0.4957
 2375TIP3    H128760   0.302   1.638   1.628 -0.3608  1.0001  0.3312
 2375TIP3    H228761   0.287   1.700   1.766  0.2483 -1.2018  1.4292
 2376TIP3   OH228762   6.015   5.828   3.362 -0.0464  0.0153  0.4852
 2376TIP3    H128763   5.936   5.872   3.331  0.3171 -0.5783 -1.4278
 2376TIP3    H228764   6.065   5.897   3.407 -1.0076  0.7174  0.5042
 2377TIP3   OH228765   4.697   5.221   0.421 -0.0473 -1.0752  0.1060
 2377TIP3    H128766   4.726   5.265   0.341 -0.5573 -1.0753 -0.0833
 2377TIP3    H228767   4.614   5.180   0.398 -1.0400  0.2824  1.0629
 2378TIP3   OH228768   0.675   2.057   3.177 -0.8332  0.0054  0.2225
 2378TIP3    H128769   0.658   2.094   3.263 -0.8773  0.5365 -0.0092
 2378TIP3    H228770   0.763   2.019   3.183  0.2095  2.1952 -0.1871
 2379TIP3   OH228771   5.981   2.804   9.630  0.4845 -0.6094 -0.1091
 2379TIP3    H128772   6.076   2.813   9.621  0.4482 -0.7283 -0.6526
 2379TIP3    H228773   5.953   2.887   9.667  0.8096 -0.5895  0.0952
 2380TIP3   OH228774   3.324   5.706   1.037  0.1573  0.5605  0.1665
 2380TIP3    H128775   3.319   5.795   1.003  1.0431  0.7494  0.5011
 2380TIP3    H228776   3.355   5.717   1.127  0.3863 -0.0928  0.1703
 2381TIP3   OH228777   0.318   3.533   8.626  0.2798  0.0503  0.2897
 2381TIP3    H128778   0.314   3.555   8.719  1.2494  0.5164  0.2344
 2381TIP3    H228779   0.227   3.512   8.603 -0.4183  2.2307  0.7785
 2382TIP3   OH228780   0.282   2.431   1.555 -0.9319 -0.1897 -0.0365
 2382TIP3    H128781   0.313   2.490   1.625 -1.1186 -0.4962  0.3070
 2382TIP3    H228782   0.344   2.358   1.557  0.0238  0.5495 -1.2665
 2383TIP3   OH228783   0.720   0.896   1.027 -0.2481 -0.0313  0.6139
 2383TIP3    H128784   0.788   0.946   0.981  0.4558 -0.3939  1.2510
 2383TIP3    H228785   0.639   0.943   1.007  0.1944  0.4594 -0.0793
 2384TIP3   OH228786   2.171   1.532   2.395  0.2336  0.1905  0.3306
 2384TIP3    H128787   2.143   1.469   2.461  0.2197  0.8016  0.9239
 2384TIP3    H228788   2.114   1.608   2.408  0.4065  0.4171 -0.2112
 2385TIP3   OH228789   1.924   3.701   0.575  0.5112  0.2169  0.7802
 2385TIP3    H128790   1.934   3.695   0.670  1.9121  0.7594  0.6809
 2385TIP3    H228791   1.909   3.794   0.558 -1.0316 -0.0480  0.5657
 2386TIP3   OH228792   2.415   5.484   9.523 -0.2618  0.0165  0.1472
 2386TIP3    H128793   2.492   5.431   9.501 -0.8409 -0.1650 -1.6497
 2386TIP3    H228794   2.351   5.421   9.554  0.3585  0.2006  1.9179
 2387TIP3   OH228795   6.263   0.506   1.615  0.0465  0.1820 -0.5904
 2387TIP3    H128796   6.205   0.517   1.539 -0.0917 -0.1199 -0.5289
 2387TIP3    H228797   6.313   0.427   1.595  0.9818  0.8513 -0.9974
 2388TIP3   OH228798   0.604   3.779   0.265  0.4634  0.1660 -0.2696
 2388TIP3    H128799   0.681   3.799   0.212  2.2655 -0.0816  2.0950
 2388TIP3    H228800   0.561   3.864   0.277  0.1053  0.2513 -1.9065
 2389TIP3   OH228801   3.056   0.626   8.469  0.4013 -0.2195  0.1517
 2389TIP3    H128802   2.989   0.561   8.447  0.5999 -0.5054  0.3760
 2389TIP3    H228803   3.136   0.574   8.481 -0.1679 -0.5310  4.2125
 2390TIP3   OH228804   2.212   1.120   7.247  0.1473 -0.4704  0.2307
 2390TIP3    H128805   2.205   1.117   7.342  1.5763 -1.1050  0.3582
 2390TIP3    H228806   2.132   1.161   7.217  0.3685  1.1951  1.8045
 2391TIP3   OH228807   2.866   5.102   2.002 -0.1104  0.5163 -0.2847
 2391TIP3    H128808   2.882   5.123   2.094 -1.8458  0.9201 -0.0319
 2391TIP3    H228809   2.864   5.187   1.958 -1.0910  0.4721 -0.3496
 2392TIP3   OH228810   1.879   4.538   8.968 -0.3969  0.0691  0.1203
 2392TIP3    H128811   1.890   4.490   9.050 -1.8255 -0.3506  0.0980
 2392TIP3    H228812   1.925   4.485   8.903 -0.3301 -0.2588  0.4311
 2393TIP3   OH228813   1.094   6.104   9.619 -0.0113 -0.2033 -0.1602
 2393TIP3    H128814   1.087   6.172   9.685  0.5078 -1.8322  1.6580
 2393TIP3    H228815   1.189   6.094   9.605 -0.1166  1.0216 -2.2063
 2394TIP3   OH228816   6.140   3.477   2.585  0.5381 -0.3119  1.0586
 2394TIP3    H128817   6.111   3.538   2.654 -0.5542  1.6477 -0.9729
 2394TIP3    H228818   6.063   3.468   2.528  1.3096 -2.0965  0.2321
 2395TIP3   OH228819   5.422   0.108   2.097  0.0140  0.4201  0.3785
 2395TIP3    H128820   5.434   0.065   2.182  0.3812 -0.5622 -0.1542
 2395TIP3    H228821   5.327   0.107   2.083  0.0881 -4.5048 -1.6816
 2396TIP3   OH228822   4.486   1.244   9.051  0.3011  0.0242 -0.0153
 2396TIP3    H128823   4.551   1.174   9.050  0.3946  0.1129 -0.8431
 2396TIP3    H228824   4.402   1.200   9.037  0.2470 -0.0244  0.4484
 2397TIP3   OH228825   4.893   5.844   1.039 -0.4131  0.4056 -0.4096
 2397TIP3    H128826   4.829   5.812   0.976 -1.5002 -0.0477  0.8803
 2397TIP3    H228827   4.884   5.939   1.035 -1.2629  0.3480 -0.1750
 2398TIP3   OH228828   1.196   2.083   2.797  0.0661  0.2058  0.3208
 2398TIP3    H128829   1.262   2.133   2.749 -0.3852 -0.6182 -1.2231
 2398TIP3    H228830   1.240   2.001   2.819 -0.3654 -0.2824 -0.5793
 2399TIP3   OH228831   1.405   4.762   1.276 -0.8151  0.6581 -0.3991
 2399TIP3    H128832   1.390   4.821   1.350  0.7085  1.3562 -0.6064
 2399TIP3    H228833   1.447   4.685   1.314  1.1407  1.5492 -0.6511
 2400TIP3   OH228834   4.643   6.080   0.480  0.5507  0.4757 -0.2366
 2400TIP3    H128835   4.552   6.104   0.462  0.2521  0.1355  0.7459
 2400TIP3    H228836   4.672   6.037   0.400  0.0262  1.0803 -0.7681
 2401TIP3   OH228837   1.438   0.210   8.401 -0.4036 -0.4093  0.1519
 2401TIP3    H128838   1.482   0.284   8.442 -1.9435  1.3657 -1.2207
 2401TIP3    H228839   1.489   0.133   8.429  3.2730  1.3868 -0.9532
 2402TIP3   OH228840   1.396   3.717   1.246  0.1766 -0.0739  0.2781
 2402TIP3    H128841   1.403   3.753   1.158  1.6172  0.9478  0.7781
 2402TIP3    H228842   1.410   3.792   1.304  0.7052 -0.9739  1.3620
 2403TIP3   OH228843   4.846   2.334   0.316 -0.5076 -0.5668 -0.4448
 2403TIP3    H128844   4.887   2.260   0.361  2.4142  1.3622  0.3777
 2403TIP3    H228845   4.815   2.390   0.387  0.8525  0.7698 -0.8488
 2404TIP3   OH228846   1.359   1.200   8.521 -0.0573 -0.7103 -0.2129
 2404TIP3    H128847   1.398   1.156   8.597  0.2297  0.4627  0.3424
 2404TIP3    H228848   1.311   1.131   8.475  0.7387 -1.6862  0.3872
 2405TIP3   OH228849   3.980   0.230   2.142 -0.2497 -0.9812  0.5943
 2405TIP3    H128850   3.920   0.159   2.118  0.2785 -1.5497  0.9258
 2405TIP3    H228851   4.048   0.228   2.074 -0.5909 -0.3424  0.2228
 2406TIP3   OH228852   4.728   6.004   1.569  0.1639 -0.4473  0.3371
 2406TIP3    H128853   4.709   5.924   1.618  0.6261 -0.7817 -0.0188
 2406TIP3    H228854   4.744   6.070   1.636  4.1832 -1.6428  0.8030
 2407TIP3   OH228855   4.927   2.642   1.306  0.7099 -0.1897  0.4180
 2407TIP3    H128856   5.021   2.631   1.297  0.7011  0.2043 -0.1907
 2407TIP3    H228857   4.899   2.684   1.225  0.0616  0.0077  0.7304
 2408TIP3   OH228858   4.173   0.947   2.082 -0.0953 -0.0320  0.0381
 2408TIP3    H128859   4.141   1.012   2.020  0.7003 -0.8972 -1.3466
 2408TIP3    H228860   4.193   0.997   2.161 -1.7397  1.0063 -0.1521
 2409TIP3   OH228861   1.472   6.136   9.075  0.4015 -0.1310  0.2861
 2409TIP3    H128862   1.482   6.175   8.989  1.6623 -2.2435 -0.6053
 2409TIP3    H228863   1.438   6.048   9.058  0.8091 -0.6437  1.9266
 2410TIP3   OH228864   1.498   5.560   8.865  0.0867 -0.3146  0.4100
 2410TIP3    H128865   1.515   5.652   8.846 -3.7730  0.1849 -1.6971
 2410TIP3    H228866   1.584   5.518   8.863  1.7816  2.9184 -0.5617
 2411TIP3   OH228867   4.264   3.586   2.809 -0.1636  0.1707 -0.3388
 2411TIP3    H128868   4.295   3.497   2.821 -0.1313  0.2402  0.1207
 2411TIP3    H228869   4.342   3.640   2.818 -0.2389  0.2689 -0.2661
 2412TIP3   OH228870   4.237   3.713   0.970  0.3245  0.1365 -0.1424
 2412TIP3    H128871   4.221   3.698   1.063 -0.9499  1.0045 -0.1878
 2412TIP3    H228872   4.325   3.678   0.955  0.1443 -0.9783  1.1419
 2413TIP3   OH228873   0.169   3.180   0.366 -0.1572 -0.0773  0.1352
 2413TIP3    H128874   0.181   3.088   0.389  2.2636 -0.0724 -0.8112
 2413TIP3    H228875   0.133   3.219   0.445 -4.2762 -2.2860 -0.3681
 2414TIP3   OH228876   5.430   1.405   1.748  0.1238 -0.1062 -0.7824
 2414TIP3    H128877   5.420   1.434   1.839 -1.2210 -0.1022 -0.9147
 2414TIP3    H228878   5.498   1.462   1.712  0.5415  0.0132  0.1675
 2415TIP3   OH228879   2.397   0.798   0.821  0.7163 -0.4944  0.0375
 2415TIP3    H128880   2.353   0.758   0.896 -0.5612  0.7953  0.0326
 2415TIP3    H228881   2.339   0.779   0.747  0.6800  0.3315 -0.1601
 2416TIP3   OH228882   4.500   6.170   1.817 -0.3226  0.2220  0.0755
 2416TIP3    H128883   4.438   6.180   1.744 -0.6332  1.3869  0.4870
 2416TIP3    H228884   4.583   6.203   1.782 -0.2464 -0.0721 -0.0307
 2417TIP3   OH228885   0.778   2.071   1.458  0.1349  0.4890 -0.2880
 2417TIP3    H128886   0.834   2.145   1.434  2.1691 -0.8438  0.1424
 2417TIP3    H228887   0.790   2.061   1.552  0.9250 -1.1833 -0.5468
 2418TIP3   OH228888   4.077   1.296   0.628  0.0047 -0.0414 -0.1632
 2418TIP3    H128889   4.074   1.215   0.679  3.3393  0.0459  0.3535
 2418TIP3    H228890   4.082   1.366   0.694  0.9320  0.2998 -0.5781
 2419TIP3   OH228891   0.387   6.030   2.376  0.5236  0.4483  0.1385
 2419TIP3    H128892   0.341   6.041   2.293  1.7629  1.5507 -0.4466
 2419TIP3    H228893   0.403   6.119   2.406  1.1815  0.0736  0.9320
 2420TIP3   OH228894   0.014   3.921   2.172  0.2107 -0.0437 -0.2890
 2420TIP3    H128895   0.079   3.875   2.118  2.8302  0.3462  2.2907
 2420TIP3    H228896  -0.011   3.997   2.120 -0.1779 -1.5200 -2.4064
 2421TIP3   OH228897   4.709   2.684   0.706  0.0989 -0.2401 -0.4573
 2421TIP3    H128898   4.782   2.715   0.759 -1.3693 -0.9367  2.1318
 2421TIP3    H228899   4.661   2.763   0.682 -0.1092 -0.0076  0.6865
 2422TIP3   OH228900   1.164   0.061   7.359  0.2085 -0.0716  0.0024
 2422TIP3    H128901   1.204   0.123   7.300 -0.6745  0.4838 -0.0359
 2422TIP3    H228902   1.225   0.054   7.432 -0.0608  1.5282  0.4293
 2423TIP3   OH228903   1.760   2.084   0.864  0.4147  0.2425 -0.7030
 2423TIP3    H128904   1.853   2.070   0.880  0.3334  1.3827  1.0009
 2423TIP3    H228905   1.744   2.174   0.891 -0.8727  0.6065 -2.5260
 2424TIP3   OH228906   4.967   0.865   0.018 -0.0611 -0.4765 -0.3970
 2424TIP3    H128907   4.873   0.884   0.017 -0.1105 -0.6943 -1.2830
 2424TIP3    H228908   4.975   0.783  -0.030  0.7456  0.4602 -1.9563
 2425TIP3   OH228909   2.559   5.189   0.035  0.1227 -0.0861 -0.3533
 2425TIP3    H128910   2.502   5.113   0.025  0.2627 -0.2618  0.1708
 2425TIP3    H228911   2.601   5.198  -0.051 -2.0975  1.2166 -1.3901
 2426TIP3   OH228912   4.715   5.103   0.669 -0.5983 -0.4324  0.0216
 2426TIP3    H128913   4.775   5.037   0.634  0.7350  1.5058 -1.6350
 2426TIP3    H228914   4.720   5.175   0.606 -1.1472  1.6793  2.2227
 2427TIP3   OH228915   4.543   6.142   0.201  0.6407 -0.3992 -0.6241
 2427TIP3    H128916   4.491   6.069   0.168  1.7361 -1.4148 -0.1612
 2427TIP3    H228917   4.621   6.143   0.145  0.6073  0.4671 -0.6712
 2428TIP3   OH228918   5.824   0.128   8.635 -0.5274  0.5239 -0.4297
 2428TIP3    H128919   5.762   0.095   8.701 -0.5479  2.2188  0.4670
 2428TIP3    H228920   5.877   0.051   8.611  0.1360  0.0087  2.3096
 2429TIP3   OH228921   1.671   2.788   1.830 -0.3591 -0.3770 -0.4270
 2429TIP3    H128922   1.709   2.708   1.864 -0.3574  0.2255  1.0514
 2429TIP3    H228923   1.635   2.764   1.744 -0.3567 -1.9387 -0.0072
 2430TIP3   OH228924   1.425   3.245   2.218  0.3659 -0.3182 -0.3748
 2430TIP3    H128925   1.423   3.234   2.123  0.9473  2.3902 -0.8108
 2430TIP3    H228926   1.506   3.203   2.245 -0.4273 -2.2582 -0.8258
 2431TIP3   OH228927   0.639   5.675   7.632 -0.1883 -0.2638 -0.2492
 2431TIP3    H128928   0.694   5.753   7.630  0.0377 -0.4359 -1.1700
 2431TIP3    H228929   0.699   5.602   7.644 -0.1145 -0.5045 -1.8102
 2432TIP3   OH228930   5.041   4.789   9.358  0.0965 -0.3778 -0.0057
 2432TIP3    H128931   4.975   4.853   9.387  0.4664 -0.5775  1.3387
 2432TIP3    H228932   5.121   4.815   9.405  0.8708 -0.4100 -1.2749
 2433TIP3   OH228933   5.011   3.574   9.107 -0.2326 -0.5264  0.0185
 2433TIP3    H128934   5.056   3.577   9.191 -0.6036  2.6463  0.2208
 2433TIP3    H228935   5.075   3.534   9.047 -0.0476 -3.0441  1.7464
 2434TIP3   OH228936   3.096   4.317   9.241 -0.5392  0.5431 -0.1137
 2434TIP3    H128937   3.053   4.232   9.255  0.6681 -0.1118 -0.1470
 2434TIP3    H228938   3.168   4.317   9.305 -0.4291  1.4704 -0.2314
 2435TIP3   OH228939   4.336   6.268   0.791  0.2498 -0.1060 -0.2034
 2435TIP3    H128940   4.257   6.301   0.835  0.5895  1.1993 -0.5477
 2435TIP3    H228941   4.303   6.229   0.710 -0.1589 -0.7076  0.2366
 2436TIP3   OH228942   1.436   3.659   1.609  0.3466  0.7207  0.2134
 2436TIP3    H128943   1.432   3.748   1.573 -0.9420  0.4862 -0.2571
 2436TIP3    H228944   1.529   3.645   1.627  0.6536  1.9030 -0.3639
 2437TIP3   OH228945   2.532   4.463   0.312  0.0171  0.0324 -0.2543
 2437TIP3    H128946   2.556   4.454   0.404  0.6140  0.5392 -0.3481
 2437TIP3    H228947   2.613   4.491   0.269 -0.5362  0.9317 -0.7426
 2438TIP3   OH228948   0.698   2.497   3.286  0.6277  0.2642 -0.0377
 2438TIP3    H128949   0.746   2.474   3.206  0.3357 -0.6745  0.0439
 2438TIP3    H228950   0.632   2.559   3.257  1.4758  1.0900 -0.2630
 2439TIP3   OH228951   3.928   0.997   1.029  0.2231 -0.5064 -0.2260
 2439TIP3    H128952   4.018   0.964   1.026 -0.3201 -2.0239 -0.7535
 2439TIP3    H228953   3.878   0.927   1.071 -1.2236 -1.0526 -2.6529
 2440TIP3   OH228954   6.210   5.036   1.389 -0.5291 -0.2500  0.0584
 2440TIP3    H128955   6.212   5.061   1.297 -0.2164  0.3678  0.2244
 2440TIP3    H228956   6.230   4.943   1.390  1.1173  0.0655 -0.3971
 2441TIP3   OH228957   6.052   4.231   8.346  0.2197 -0.4403  0.1852
 2441TIP3    H128958   6.000   4.303   8.309 -0.3079 -1.7553 -1.7909
 2441TIP3    H228959   6.130   4.273   8.380 -0.5388  1.1829  0.0273
 2442TIP3   OH228960   0.775   2.477   9.701 -0.1361 -0.7706 -0.1585
 2442TIP3    H128961   0.739   2.548   9.753 -0.6700 -2.1897  1.5046
 2442TIP3    H228962   0.799   2.518   9.618  1.2646  1.7219  1.3413
 2443TIP3   OH228963   6.324   4.657   1.526 -0.1329  0.0863  0.4354
 2443TIP3    H128964   6.243   4.609   1.507 -0.0641 -0.5691  1.6727
 2443TIP3    H228965   6.358   4.615   1.605  1.3617  0.4226 -0.0004
 2444TIP3   OH228966   2.141   5.181   2.253 -0.4020 -0.2151  0.5777
 2444TIP3    H128967   2.173   5.143   2.171 -1.4982  0.3878 -0.1574
 2444TIP3    H228968   2.156   5.112   2.319 -0.6355 -1.1912 -0.3590
 2445TIP3   OH228969   4.694   2.489   0.493  0.7975 -0.0808 -0.1841
 2445TIP3    H128970   4.710   2.565   0.550  0.5105  0.3620 -0.6839
 2445TIP3    H228971   4.610   2.508   0.451  1.7489  0.3926 -1.9884
 2446TIP3   OH228972   4.870   2.790   1.092 -0.6340 -0.2480 -0.7514
 2446TIP3    H128973   4.939   2.808   1.029  1.9560 -2.5331  1.1965
 2446TIP3    H228974   4.834   2.876   1.114  2.8065  1.2952 -0.5986
 2447TIP3   OH228975   4.164   2.792   0.184 -0.6113 -0.0652 -0.1856
 2447TIP3    H128976   4.195   2.858   0.122  0.4572 -0.4258 -0.0595
 2447TIP3    H228977   4.139   2.841   0.262  0.3041  0.1889 -0.0440
 2448TIP3   OH228978   1.887   1.041   8.408  0.1352  0.1209  1.0269
 2448TIP3    H128979   1.952   0.977   8.380 -1.5693 -1.2573  0.0261
 2448TIP3    H228980   1.938   1.121   8.426  1.7692  0.4308 -3.6098
 2449TIP3   OH228981   3.198   1.617   2.154 -0.3023  0.3803  0.6657
 2449TIP3    H128982   3.222   1.667   2.233 -0.6526  0.8788  0.4617
 2449TIP3    H228983   3.107   1.590   2.170 -0.2063  0.0393  0.6516
 2450TIP3   OH228984   4.514   5.134   0.222  0.8463 -0.1365 -0.1012
 2450TIP3    H128985   4.509   5.223   0.186  0.7366  0.2942  0.9336
 2450TIP3    H228986   4.431   5.122   0.267  1.3105 -0.3321  0.7194
 2451TIP3   OH228987   1.707   1.198  10.002  0.3157  0.0437  0.0304
 2451TIP3    H128988   1.732   1.248   9.924  1.0639  0.4354  0.5102
 2451TIP3    H228989   1.746   1.247  10.075 -1.5890  0.5091  0.7913
 2452TIP3   OH228990   4.670   1.899   1.525  0.1553  0.5705  0.2893
 2452TIP3    H128991   4.703   1.945   1.448 -0.1979 -0.4791 -0.5180
 2452TIP3    H228992   4.696   1.954   1.599 -1.1441  2.6359 -0.6688
 2453TIP3   OH228993   3.811   3.249   0.348 -0.2187  0.3190  0.4143
 2453TIP3    H128994   3.721   3.281   0.341 -0.4335 -0.0592  1.3289
 2453TIP3    H228995   3.859   3.322   0.387  0.5600  1.6835 -2.8018
 2454TIP3   OH228996   4.110   2.596   3.133  0.6866 -0.4946 -0.5642
 2454TIP3    H128997   4.078   2.538   3.064 -0.3729  1.9034 -2.2120
 2454TIP3    H228998   4.030   2.629   3.176  1.2306  0.2046 -0.0650
 2455TIP3   OH228999   6.115   6.221   2.453 -0.0115 -0.8118 -0.1460
 2455TIP3    H129000   6.192   6.202   2.507  1.3462 -0.0129 -1.6964
 2455TIP3    H229001   6.114   6.317   2.447 -1.3757 -0.7946  0.1550
 2456TIP3   OH229002   5.471   4.958   9.756  0.1948  0.0574  0.1837
 2456TIP3    H129003   5.501   4.916   9.675  1.0236 -0.6288  0.8281
 2456TIP3    H229004   5.512   5.044   9.755 -0.6086  0.4477 -0.6008
 2457TIP3   OH229005   1.875   5.110   2.198 -0.3137  0.8684 -0.4098
 2457TIP3    H129006   1.900   5.021   2.223 -0.1090  0.4247 -2.0640
 2457TIP3    H229007   1.941   5.166   2.239  0.4899  0.1258 -0.6605
 2458TIP3   OH229008   1.232   3.483   2.853  0.0068 -0.3726 -0.0663
 2458TIP3    H129009   1.232   3.388   2.849  0.4312 -0.4615  1.5391
 2458TIP3    H229010   1.146   3.509   2.818 -0.9035 -1.4432  1.3171
 2459TIP3   OH229011   4.171   2.256   1.928  0.3575  0.3849  0.1282
 2459TIP3    H129012   4.234   2.290   1.991 -1.3855 -0.3394  2.3626
 2459TIP3    H229013   4.225   2.209   1.864  2.1788  1.0569  1.1015
 2460TIP3   OH229014   5.664   4.129   1.043 -0.1976  0.3327  0.2344
 2460TIP3    H129015   5.693   4.218   1.060  0.4560  0.0773  0.5072
 2460TIP3    H229016   5.569   4.135   1.037 -0.3616  0.7418  2.2830
 2461TIP3   OH229017   2.601   5.948   1.508  0.0803 -0.2181 -0.0405
 2461TIP3    H129018   2.579   5.987   1.593 -0.9588  0.2218 -0.4886
 2461TIP3    H229019   2.568   6.011   1.444 -1.8753 -1.9229 -0.8043
 2462TIP3   OH229020   0.825   6.156   0.171 -0.1962  0.2323  0.0015
 2462TIP3    H129021   0.765   6.097   0.215  0.9925 -0.4988  0.7059
 2462TIP3    H229022   0.773   6.197   0.101 -1.2482 -1.0542  0.0025
 2463TIP3   OH229023   1.294   2.714   9.847  0.3580 -0.3656 -0.2598
 2463TIP3    H129024   1.224   2.676   9.794  1.1427  0.3413 -1.9056
 2463TIP3    H229025   1.266   2.702   9.937 -1.5206 -0.7420 -0.8546
 2464TIP3   OH229026   2.174   0.377   0.194  0.3062 -0.2757  0.0511
 2464TIP3    H129027   2.087   0.343   0.172  0.5173  0.1325 -1.5488
 2464TIP3    H229028   2.158   0.444   0.260 -0.9184  1.4860 -1.8929
 2465TIP3   OH229029   3.020   2.285   3.125 -0.0650 -0.6835  0.5886
 2465TIP3    H129030   3.103   2.332   3.134 -0.3637 -0.1317  0.5076
 2465TIP3    H229031   3.015   2.262   3.032 -0.0678 -0.5961  0.5673
 2466TIP3   OH229032   1.991   0.972   0.721  0.2624 -1.0427  0.1388
 2466TIP3    H129033   1.947   1.031   0.782 -0.4198 -0.2449 -1.0854
 2466TIP3    H229034   2.045   1.030   0.667 -1.1147 -1.3739 -1.6777
 2467TIP3   OH229035   1.747   2.049   1.129  0.0529  0.0714  0.2184
 2467TIP3    H129036   1.714   2.052   1.039 -0.7458  2.6341  0.5238
 2467TIP3    H229037   1.843   2.046   1.119  0.0173  1.3489 -0.7520
 2468TIP3   OH229038   3.976   4.404   2.513 -0.4335 -0.5100 -0.6109
 2468TIP3    H129039   4.063   4.369   2.533 -0.2707 -0.6604 -1.5128
 2468TIP3    H229040   3.915   4.334   2.539 -0.2809 -0.4317 -0.0428
 2469TIP3   OH229041   0.251   5.860   8.565  0.5496 -0.3633  0.2563
 2469TIP3    H129042   0.269   5.776   8.608  0.4542 -0.2239  0.5640
 2469TIP3    H229043   0.322   5.869   8.502  0.6520 -0.5976  0.3346
 2470TIP3   OH229044   4.970   5.985   2.567  0.1937  0.4141 -0.4632
 2470TIP3    H129045   5.037   6.042   2.528  2.2876 -1.4899  0.1658
 2470TIP3    H229046   4.943   6.032   2.647  2.0764  0.4549  0.1968
 2471TIP3   OH229047   3.565   5.122   9.053 -0.2197 -0.0255  0.0758
 2471TIP3    H129048   3.590   5.167   8.972 -3.0014 -0.7369 -1.2888
 2471TIP3    H229049   3.520   5.189   9.105 -0.8399 -0.2253 -0.1951
 2472TIP3   OH229050   1.875   2.620   3.206 -0.1982 -0.3017 -0.0230
 2472TIP3    H129051   1.781   2.611   3.189 -0.5953 -0.3461  1.9223
 2472TIP3    H229052   1.882   2.625   3.302  1.7173  0.5815 -0.1554
 2473TIP3   OH229053   6.348   5.387   2.055  0.4175  0.4179 -0.0052
 2473TIP3    H129054   6.286   5.328   2.011  1.0866  0.3263 -0.8474
 2473TIP3    H229055   6.376   5.338   2.132 -0.3417  0.3438  0.2314
 2474TIP3   OH229056   5.786   0.784   2.329  0.0605  0.0398  0.0279
 2474TIP3    H129057   5.768   0.732   2.250  1.0566 -0.3140  0.0199
 2474TIP3    H229058   5.847   0.730   2.380 -1.5253 -0.3156  1.6631
 2475TIP3   OH229059   0.025   2.796   3.272 -0.0660 -0.0098  0.6697
 2475TIP3    H129060   0.039   2.709   3.236  3.1903  0.1036  1.3289
 2475TIP3    H229061   0.074   2.796   3.355 -1.1862  2.0049  1.4189
 2476TIP3   OH229062   4.889   5.229   2.679 -0.3194  0.1570  0.0124
 2476TIP3    H129063   4.929   5.205   2.763 -1.2609 -1.0034  0.1512
 2476TIP3    H229064   4.947   5.191   2.613  1.0209  1.9744  0.0469
 2477TIP3   OH229065   5.268   3.756   9.112 -0.5729 -0.7320  0.1889
 2477TIP3    H129066   5.330   3.694   9.074  1.3049  0.6288  0.9103
 2477TIP3    H229067   5.239   3.809   9.037  2.9238  1.7850  0.3437
 2478TIP3   OH229068   2.593   2.336   2.240  0.6279 -0.0762 -0.5531
 2478TIP3    H129069   2.684   2.355   2.219  0.0808  2.1636 -1.1383
 2478TIP3    H229070   2.579   2.247   2.208  2.3193 -0.0679 -1.4126
 2479TIP3   OH229071   4.438   1.455   9.675  0.1825  0.2213 -1.2426
 2479TIP3    H129072   4.515   1.420   9.719 -0.4100 -0.5801 -0.8262
 2479TIP3    H229073   4.365   1.407   9.712 -0.4880  0.6862 -1.9278
 2480TIP3   OH229074   6.141   2.226   0.285 -0.8034 -0.1687 -0.4673
 2480TIP3    H129075   6.094   2.220   0.202  0.8245 -2.3139 -1.3232
 2480TIP3    H229076   6.132   2.139   0.324  0.8733 -0.0730  0.2051
 2481TIP3   OH229077   4.688   2.222   2.027 -0.3889  0.2740 -0.7370
 2481TIP3    H129078   4.661   2.311   2.051  1.0320  0.6169 -0.2788
 2481TIP3    H229079   4.783   2.230   2.012 -0.8177 -0.3062 -4.7039
 2482TIP3   OH229080   5.526   5.380   8.453 -0.0610 -0.4063  0.2936
 2482TIP3    H129081   5.602   5.433   8.478 -1.2652  1.8832 -0.5701
 2482TIP3    H229082   5.509   5.325   8.529  0.0794  1.9170  2.1307
 2483TIP3   OH229083   5.380   0.114   0.566 -0.1335  0.2122  0.4854
 2483TIP3    H129084   5.308   0.134   0.626 -0.2341  0.0457  0.4192
 2483TIP3    H229085   5.360   0.026   0.533 -0.9244  0.9182 -1.0149
 2484TIP3   OH229086   3.216   1.308   1.756 -0.4046  0.0974 -0.0784
 2484TIP3    H129087   3.229   1.221   1.792  0.5500 -0.0745 -0.7856
 2484TIP3    H229088   3.152   1.296   1.686 -1.0842  0.1649  0.5185
 2485TIP3   OH229089   4.001   3.945   2.741 -0.5165  0.2178  0.1295
 2485TIP3    H129090   3.910   3.972   2.756 -0.9589 -0.7963 -0.6131
 2485TIP3    H229091   4.009   3.942   2.645 -0.1492 -1.1080  0.1855
 2486TIP3   OH229092   5.728   3.110   9.371 -0.1259  0.4331  0.1038
 2486TIP3    H129093   5.780   3.110   9.451 -2.0072  0.3244  1.4120
 2486TIP3    H229094   5.646   3.066   9.396 -0.8046  0.4592 -1.8702
 2487TIP3   OH229095   2.839   3.653   8.603 -0.0401 -0.4214 -0.7142
 2487TIP3    H129096   2.908   3.686   8.661 -0.4288  0.4037 -0.7117
 2487TIP3    H229097   2.788   3.595   8.659 -1.7354  2.0301  0.4828
 2488TIP3   OH229098   3.961   6.139   0.567 -0.0383  0.0197 -0.2385
 2488TIP3    H129099   3.897   6.210   0.559  0.0911  0.7561  3.4096
 2488TIP3    H229100   4.044   6.179   0.540 -0.0991  1.1059  1.0643
 2489TIP3   OH229101   4.909   1.800   1.840 -0.0949  0.0962  0.0821
 2489TIP3    H129102   4.960   1.848   1.775  0.2849  1.8373  1.6051
 2489TIP3    H229103   4.922   1.848   1.921 -0.9701 -1.7297  1.3592
 2490TIP3   OH229104   2.944   4.277   0.760 -0.6231  0.3344  0.1071
 2490TIP3    H129105   3.002   4.204   0.779  0.0009  0.4208 -1.3791
 2490TIP3    H229106   2.856   4.243   0.778 -0.2174 -0.1742  1.2123
 2491TIP3   OH229107   3.610   1.278   0.949  0.1161  0.1757  0.5795
 2491TIP3    H129108   3.656   1.359   0.929 -0.6207  0.1823 -1.2849
 2491TIP3    H229109   3.518   1.299   0.939 -0.0655 -1.3399 -2.3479
 2492TIP3   OH229110   3.231   1.799   0.060 -0.4488  0.2683 -0.2593
 2492TIP3    H129111   3.276   1.774  -0.021  1.0717 -0.7213  0.8473
 2492TIP3    H229112   3.260   1.889   0.077  1.5230 -0.4917  0.6550
 2493TIP3   OH229113   5.451   2.367   9.871  0.2225  0.2405 -0.2377
 2493TIP3    H129114   5.368   2.387   9.828 -0.1172 -0.7362 -0.0657
 2493TIP3    H229115   5.518   2.396   9.809 -0.2461 -1.5473 -1.6685
 2494TIP3   OH229116   5.273   6.231   0.496  0.0974  0.0232 -0.4637
 2494TIP3    H129117   5.346   6.218   0.557 -1.1645  0.5953  1.2548
 2494TIP3    H229118   5.207   6.167   0.524 -1.1493  1.4031 -0.1397
 2495TIP3   OH229119   4.461   1.175   8.554  0.6221  0.0542 -0.1331
 2495TIP3    H129120   4.453   1.098   8.610 -0.3386  0.1588 -0.1126
 2495TIP3    H229121   4.510   1.144   8.477  1.1322 -0.3123  0.3295
 2496TIP3   OH229122   0.218   2.422   0.003 -0.5332  0.5703 -0.3011
 2496TIP3    H129123   0.153   2.395   0.068 -1.1001 -1.8612 -1.7524
 2496TIP3    H229124   0.302   2.411   0.046 -0.9459  0.4370  0.4874
 2497TIP3   OH229125   4.771   6.264   0.664  0.9380 -0.1557  0.0485
 2497TIP3    H129126   4.713   6.227   0.731  0.3892  0.4300 -0.0952
 2497TIP3    H229127   4.773   6.196   0.596  0.2057 -0.0793 -0.0629
 2498TIP3   OH229128   3.999   4.569   1.017 -0.2025  0.4133  0.0218
 2498TIP3    H129129   4.043   4.635   0.963  0.8365 -0.6857 -0.5230
 2498TIP3    H229130   4.055   4.492   1.010 -1.5280 -0.6118  0.4387
 2499TIP3   OH229131   5.191   5.442   2.442  0.1175 -0.2657  0.7762
 2499TIP3    H129132   5.190   5.435   2.537 -1.3493  1.3792  0.9363
 2499TIP3    H229133   5.194   5.536   2.425 -1.4469 -0.4417 -0.7625
 2500TIP3   OH229134   1.717   2.807   7.596  0.2648  0.3971  0.2699
 2500TIP3    H129135   1.728   2.888   7.546 -1.1965  0.9147  0.7294
 2500TIP3    H229136   1.691   2.837   7.683  0.7978 -0.5496  0.7621
 2501TIP3   OH229137   1.436   5.681   9.379  0.2011 -0.1834 -0.7154
 2501TIP3    H129138   1.485   5.615   9.330 -0.2406 -0.5485 -0.6712
 2501TIP3    H229139   1.391   5.632   9.447  0.3689  0.2509 -0.2842
 2502TIP3   OH229140   3.299   3.428   0.568  0.9946  0.0947  0.0099
 2502TIP3    H129141   3.381   3.470   0.543  0.3581  1.0593 -0.5087
 2502TIP3    H229142   3.268   3.387   0.487  0.4674  0.5898 -0.0414
 2503TIP3   OH229143   6.311   1.035   9.882  0.1328  0.5903 -0.5082
 2503TIP3    H129144   6.393   1.072   9.849 -0.2788 -0.7478 -3.2815
 2503TIP3    H229145   6.338   0.983   9.958  2.3546 -1.7491 -2.7084
 2504TIP3   OH229146   5.440   5.977   9.481 -0.0362 -0.4750 -0.3913
 2504TIP3    H129147   5.528   5.944   9.499  0.3518  0.3538 -0.7364
 2504TIP3    H229148   5.423   6.038   9.553 -1.1775 -2.1420  0.8491
 2505TIP3   OH229149   1.513   0.247   0.493 -0.2153  0.7369  0.0550
 2505TIP3    H129150   1.529   0.245   0.399 -0.7839  1.7703 -0.0752
 2505TIP3    H229151   1.418   0.252   0.501 -0.2389 -0.3974  0.7179
 2506TIP3   OH229152   4.681   0.739   9.213  0.0374  0.4159 -0.2064
 2506TIP3    H129153   4.647   0.657   9.179 -0.3706  0.9409 -1.0945
 2506TIP3    H229154   4.619   0.765   9.282  1.6652 -1.4070  2.1060
 2507TIP3   OH229155   1.337   5.962   1.427 -0.0078  0.0210  0.9585
 2507TIP3    H129156   1.417   6.014   1.425 -0.8565  1.4347 -2.1849
 2507TIP3    H229157   1.272   6.016   1.383 -2.0547 -2.1003  1.1734
 2508TIP3   OH229158   2.879   5.367   1.549 -0.3886 -0.2617 -0.2601
 2508TIP3    H129159   2.962   5.364   1.501  0.2038  0.7035  0.6445
 2508TIP3    H229160   2.868   5.278   1.583  1.2758  0.0158  1.1825
 2509TIP3   OH229161   2.808   0.160   8.969 -0.6557  0.4656 -0.3084
 2509TIP3    H129162   2.727   0.115   8.990  0.2119 -0.5487  1.0957
 2509TIP3    H229163   2.793   0.200   8.884 -1.7489 -1.7970 -1.2413
 2510TIP3   OH229164   2.663   2.677   1.684 -0.0281  0.6376  0.0116
 2510TIP3    H129165   2.724   2.750   1.678  1.4159 -0.6057 -1.3094
 2510TIP3    H229166   2.589   2.703   1.629  1.4104  0.3147 -2.2085
 2511TIP3   OH229167   1.639   0.484   0.469  0.2512  0.0819 -0.5406
 2511TIP3    H129168   1.606   0.526   0.389  0.5958  1.3514 -0.0356
 2511TIP3    H229169   1.583   0.407   0.480 -1.3141  1.1368 -0.7574
 2512TIP3   OH229170   0.579   1.681   2.116  0.0720  0.0897  0.3370
 2512TIP3    H129171   0.622   1.737   2.181 -0.5326 -0.4732  1.2391
 2512TIP3    H229172   0.536   1.613   2.167 -2.1193  0.7663 -0.4966
 2513TIP3   OH229173   5.663   3.364   9.964 -0.1490  0.2288  0.1426
 2513TIP3    H129174   5.577   3.369   9.922 -0.6256 -0.6916  0.9411
 2513TIP3    H229175   5.722   3.333   9.895 -0.2582  1.6988 -0.6432
 2514TIP3   OH229176   4.727   3.953   3.482  0.1212 -0.2929 -0.1979
 2514TIP3    H129177   4.749   3.994   3.565  1.5169 -1.1938 -0.1004
 2514TIP3    H229178   4.695   4.025   3.427  1.3497  0.7103  0.3597
 2515TIP3   OH229179   4.678   0.705   9.568 -0.2416 -0.3426 -0.0787
 2515TIP3    H129180   4.742   0.634   9.565 -1.3129 -1.3622  0.1121
 2515TIP3    H229181   4.717   0.771   9.624 -0.1391 -1.7804  1.6313
 2516TIP3   OH229182   3.866   6.218   0.866  0.6215  0.2889  0.1207
 2516TIP3    H129183   3.895   6.178   0.784  2.5097 -0.1337  0.9458
 2516TIP3    H229184   3.785   6.172   0.887  1.4329 -1.3723 -0.2378
 2517TIP3   OH229185   3.675   2.145   0.457 -0.2561  0.1654  0.1612
 2517TIP3    H129186   3.636   2.068   0.416  0.4128  0.2562 -0.6511
 2517TIP3    H229187   3.716   2.194   0.385  2.4074 -0.5251  1.1059
 2518TIP3   OH229188   1.303   6.259   8.145 -0.3893  0.0464  0.4622
 2518TIP3    H129189   1.360   6.188   8.115  0.3731  1.5827 -1.9906
 2518TIP3    H229190   1.214   6.224   8.138 -0.1853 -0.1177 -2.7051
 2519TIP3   OH229191   6.119   3.979   2.293  0.3466 -0.2880  0.0093
 2519TIP3    H129192   6.185   3.922   2.255 -0.3568 -0.7421 -0.5370
 2519TIP3    H229193   6.072   4.016   2.218 -1.2444 -1.4183  0.3894
 2520TIP3   OH229194   1.942   0.135   0.990  0.2325  0.4638  0.7818
 2520TIP3    H129195   1.942   0.218   1.038 -0.7154 -0.6445  2.8182
 2520TIP3    H229196   1.855   0.131   0.951 -0.0216  0.0730  1.3757
 2521TIP3   OH229197   1.152   6.338   0.471  0.4569 -0.3062 -0.1027
 2521TIP3    H129198   1.160   6.310   0.562  0.4439 -0.7034 -0.2193
 2521TIP3    H229199   1.224   6.294   0.426  1.0681  0.6814 -0.1074
 2522TIP3   OH229200   4.993   4.098   2.426  0.7464 -0.0026 -0.0607
 2522TIP3    H129201   4.979   4.053   2.509 -0.1145  1.7454  0.7709
 2522TIP3    H229202   4.926   4.062   2.367 -1.4419  1.7101  1.2452
 2523TIP3   OH229203   1.081   5.109   8.179 -0.4603  0.1111  0.1095
 2523TIP3    H129204   0.988   5.109   8.154 -1.6175  0.5972  3.8551
 2523TIP3    H229205   1.116   5.028   8.141 -2.9003 -1.0559  0.1511
 2524TIP3   OH229206   0.346   0.958   9.857 -0.6445  0.4123 -0.1733
 2524TIP3    H129207   0.375   0.912   9.936  2.0822  0.1891 -1.1669
 2524TIP3    H229208   0.265   0.914   9.831 -1.0537 -0.1571  1.9163
 2525TIP3   OH229209   5.563   4.563   2.664 -0.0152  0.0764  0.1818
 2525TIP3    H129210   5.633   4.529   2.720 -0.0604  1.3990  1.0767
 2525TIP3    H229211   5.484   4.517   2.693 -0.2354  1.5035  1.9795
 2526TIP3   OH229212   4.095   4.892   2.878  0.6388  0.6478 -0.4586
 2526TIP3    H129213   4.012   4.850   2.857  0.6566  0.7291 -0.6909
 2526TIP3    H229214   4.073   4.985   2.884  0.7749  0.7020 -0.8228
 2527TIP3   OH229215   5.974   3.980   8.958 -0.0443  0.0096 -0.4485
 2527TIP3    H129216   5.974   4.023   8.872 -0.8543  0.9702  0.0009
 2527TIP3    H229217   5.953   3.889   8.939 -0.9390  0.3529 -1.2377
 2528TIP3   OH229218   5.611   6.214   0.111 -0.0311 -0.5407 -0.1651
 2528TIP3    H129219   5.640   6.305   0.109  0.0666 -0.5725 -0.1846
 2528TIP3    H229220   5.559   6.207   0.191  1.9832 -1.0942  1.1498
 2529TIP3   OH229221   1.106   5.553   8.604  0.1972 -0.0021  0.5739
 2529TIP3    H129222   1.107   5.642   8.568  2.1528  0.5832  1.8830
 2529TIP3    H229223   1.105   5.565   8.699  0.5690 -1.3546  0.7739
 2530TIP3   OH229224   4.651   4.527   4.413  0.5548 -0.2925  0.1470
 2530TIP3    H129225   4.706   4.453   4.387  1.6662  0.8726 -0.9238
 2530TIP3    H229226   4.711   4.585   4.461 -0.7341 -0.9207  2.7289
 2531TIP3   OH229227   1.434   4.227   3.009  0.0524  0.4743 -0.4768
 2531TIP3    H129228   1.423   4.158   2.944 -0.8533  2.2141 -2.2650
 2531TIP3    H229229   1.512   4.202   3.058  0.5951 -1.0596 -2.0280
 2532TIP3   OH229230   1.799   3.722   7.991  0.0170  0.2940 -0.4253
 2532TIP3    H129231   1.716   3.719   7.943 -0.7369 -2.1558  0.8400
 2532TIP3    H229232   1.796   3.805   8.039 -2.4957 -0.4204  0.8133
 2533TIP3   OH229233   5.019   3.211   0.729  0.2531  0.8021  0.3394
 2533TIP3    H129234   5.036   3.279   0.794 -0.2644  1.0013  0.2768
 2533TIP3    H229235   4.937   3.170   0.758 -1.1499  2.2952 -1.2960
 2534TIP3   OH229236   2.943   1.826   0.627 -0.0959  0.1001  0.1153
 2534TIP3    H129237   2.897   1.745   0.649 -0.1268  0.3045  0.8293
 2534TIP3    H229238   2.969   1.815   0.535  1.4252 -1.4531  0.6858
 2535TIP3   OH229239   5.146   3.071   3.113 -0.0644 -0.0988 -0.3625
 2535TIP3    H129240   5.106   3.115   3.187  0.5870 -2.9306  1.8488
 2535TIP3    H229241   5.101   2.986   3.107  2.8874 -1.8310 -0.1613
 2536TIP3   OH229242   3.649   1.666   2.004  0.0741 -0.0324  0.3664
 2536TIP3    H129243   3.705   1.710   1.940 -0.4746  2.2673  1.4003
 2536TIP3    H229244   3.682   1.695   2.089 -0.3810 -1.5866  1.1195
 2537TIP3   OH229245   3.086   5.476   0.684 -0.2492 -0.1630  0.3818
 2537TIP3    H129246   3.058   5.404   0.627 -0.9904 -0.8216  1.5571
 2537TIP3    H229247   3.156   5.439   0.738  2.2326  1.1347 -1.7008
 2538TIP3   OH229248   2.952   6.393   0.943 -0.0843 -0.7870 -0.1087
 2538TIP3    H129249   2.999   6.346   0.874  0.6856 -1.7972  1.0660
 2538TIP3    H229250   2.883   6.332   0.971 -2.6171  0.8983 -2.2268
 2539TIP3   OH229251   1.354   2.920   9.141 -0.1823  0.5449  0.0485
 2539TIP3    H129252   1.314   3.006   9.133 -1.4166 -0.0350 -0.3183
 2539TIP3    H229253   1.361   2.889   9.050  0.7416  0.4632  0.1375
 2540TIP3   OH229254   1.812   1.177   1.597 -0.6238 -0.2987 -0.2152
 2540TIP3    H129255   1.820   1.242   1.667 -2.3482  0.5146 -0.7171
 2540TIP3    H229256   1.863   1.102   1.628 -0.6950  0.3330  1.5379
 2541TIP3   OH229257   2.099   1.346   0.987 -0.1057 -0.6832  0.3084
 2541TIP3    H129258   2.009   1.371   0.966 -0.4344 -1.5083  0.7018
 2541TIP3    H229259   2.093   1.298   1.069  0.8517  0.2827  0.9711
 2542TIP3   OH229260   6.166   1.151   7.798  0.0201 -0.1399  0.2457
 2542TIP3    H129261   6.194   1.108   7.879  0.2290 -0.3060  0.0888
 2542TIP3    H229262   6.232   1.124   7.733 -0.1037  0.0509  0.0394
 2543TIP3   OH229263   0.893   1.116   9.332  0.3628  0.0496 -0.4045
 2543TIP3    H129264   0.936   1.132   9.416  1.1134  1.3719 -1.0156
 2543TIP3    H229265   0.921   1.028   9.307 -0.5864 -0.7221  1.1305
 2544TIP3   OH229266   0.069   3.546   2.624 -0.2600  0.0584  0.1463
 2544TIP3    H129267  -0.016   3.566   2.663 -1.0201  0.3331 -1.5613
 2544TIP3    H229268   0.091   3.623   2.572  0.8496 -0.1684  0.2463
 2545TIP3   OH229269   4.842   3.819   0.349  0.4117  0.0399 -0.1188
 2545TIP3    H129270   4.809   3.906   0.370  2.8517  0.7086  1.2757
 2545TIP3    H229271   4.937   3.825   0.359  0.8914 -2.2108 -2.2060
 2546TIP3   OH229272   5.640   0.126   8.361  0.5301 -0.8246  0.4277
 2546TIP3    H129273   5.636   0.184   8.437 -1.8329 -0.2076 -0.1033
 2546TIP3    H229274   5.640   0.184   8.285  0.2407 -1.4731 -0.0787
 2547TIP3   OH229275   2.289   2.897   7.878 -0.0255 -0.2375  0.6267
 2547TIP3    H129276   2.326   2.891   7.966 -2.0488 -1.7871  1.4434
 2547TIP3    H229277   2.286   2.991   7.860  0.3329  0.1169  2.2602
 2548TIP3   OH229278   3.606   4.384   9.460  0.3186  0.2038 -1.2824
 2548TIP3    H129279   3.659   4.311   9.426 -1.4532 -1.6171 -0.3784
 2548TIP3    H229280   3.652   4.413   9.538  1.0722  0.0940 -1.6769
 2549TIP3   OH229281   2.855   5.755   8.963  0.1216  0.0440  0.3869
 2549TIP3    H129282   2.797   5.789   8.895  0.4613  0.7257  0.4290
 2549TIP3    H229283   2.914   5.828   8.983  0.5354 -0.4083  0.8474
 2550TIP3   OH229284   6.055   5.784   1.667  0.4742 -0.2135 -0.1798
 2550TIP3    H129285   6.030   5.876   1.670  1.3102 -0.0078  1.1708
 2550TIP3    H229286   5.993   5.740   1.726  1.3401 -0.1799  0.7724
 2551TIP3   OH229287   5.711   1.203   9.515 -0.8166 -0.2783 -0.1591
 2551TIP3    H129288   5.752   1.248   9.589 -0.5322 -1.7234  0.6111
 2551TIP3    H229289   5.617   1.208   9.532 -0.9036  1.5486 -1.0267
 2552TIP3   OH229290   3.122   5.709   9.197  0.1299 -0.1503  0.3357
 2552TIP3    H129291   3.139   5.778   9.261 -1.4982 -0.2125  0.9008
 2552TIP3    H229292   3.042   5.737   9.152 -0.4310 -1.5408  0.4161
 2553TIP3   OH229293   4.347   0.185  10.026 -0.1767 -0.7311  0.1944
 2553TIP3    H129294   4.366   0.098   9.990 -1.5582 -0.3710 -1.5342
 2553TIP3    H229295   4.292   0.168  10.103  1.6186 -1.4495  1.3907
 2554TIP3   OH229296   4.621   1.242   0.197 -0.2446  0.0132  0.0174
 2554TIP3    H129297   4.715   1.253   0.188 -0.1902 -1.3042 -1.4309
 2554TIP3    H229298   4.585   1.328   0.172  0.5664  0.8177  1.4815
 2555TIP3   OH229299   4.691   2.830   2.935 -0.0144  0.1796  0.3988
 2555TIP3    H129300   4.686   2.924   2.919  0.4739  0.4437  1.6805
 2555TIP3    H229301   4.711   2.822   3.028  1.4398 -1.1615  0.0170
 2556TIP3   OH229302   2.298   0.286   1.916  0.0331 -0.4891  0.1154
 2556TIP3    H129303   2.289   0.380   1.897 -0.1661 -0.9266 -2.1785
 2556TIP3    H229304   2.211   0.260   1.948 -0.9020 -0.4422 -2.1468
 2557TIP3   OH229305   0.279   5.902   2.908  0.2010  0.2550 -0.1777
 2557TIP3    H129306   0.302   5.949   2.828 -2.0048 -1.8542 -2.2283
 2557TIP3    H229307   0.194   5.936   2.933 -0.0205 -0.4752  0.1055
 2558TIP3   OH229308   5.052   1.454   2.546 -0.0563 -0.2484 -0.2100
 2558TIP3    H129309   5.081   1.425   2.459  1.2956 -0.5916  0.3302
 2558TIP3    H229310   5.098   1.396   2.607 -1.7982 -0.7107  0.7227
 2559TIP3   OH229311   5.106   0.133   8.668  0.2666 -0.0351  0.1442
 2559TIP3    H129312   5.012   0.121   8.660  0.2005 -0.0487  0.8757
 2559TIP3    H229313   5.144   0.060   8.620 -0.0844  0.5858 -1.0992
 2560TIP3   OH229314   1.749   3.644   2.706  0.4136  0.0443  0.0213
 2560TIP3    H129315   1.697   3.720   2.678 -0.7102  1.1895  4.4883
 2560TIP3    H229316   1.690   3.570   2.696 -0.6482  0.7117  1.1265
 2561TIP3   OH229317   1.432   0.282   9.366  0.1641 -0.3265  0.5127
 2561TIP3    H129318   1.506   0.226   9.389  0.1830 -0.4806  0.0974
 2561TIP3    H229319   1.458   0.369   9.396  1.0525 -0.1397 -0.6879
 2562TIP3   OH229320   5.111   1.985   0.971 -0.5826 -0.2610 -0.4206
 2562TIP3    H129321   5.025   2.026   0.979  0.3216  1.7392 -0.4110
 2562TIP3    H229322   5.167   2.053   0.933  1.7900 -0.3329  2.5521
 2563TIP3   OH229323   3.196   2.749   0.129 -0.5089  0.4608  0.2727
 2563TIP3    H129324   3.174   2.666   0.172 -0.3196 -0.4745 -1.3724
 2563TIP3    H229325   3.124   2.764   0.067 -1.0767  2.0819  1.2515
 2564TIP3   OH229326   0.885   0.147   1.703  0.1988 -0.7801  0.1271
 2564TIP3    H129327   0.880   0.211   1.631 -3.4963 -0.6471  0.3191
 2564TIP3    H229328   0.910   0.065   1.660 -0.5839 -0.3933 -1.1486
 2565TIP3   OH229329   5.620   5.229   9.393  0.8149 -0.1851  0.0088
 2565TIP3    H129330   5.556   5.167   9.359  0.0199 -0.1081  1.3034
 2565TIP3    H229331   5.636   5.289   9.320 -2.5687  1.3569  0.3800
 2566TIP3   OH229332   4.685   0.856   7.345 -0.0926 -0.1278  0.5856
 2566TIP3    H129333   4.765   0.892   7.384  0.4212 -0.6317  0.0139
 2566TIP3    H229334   4.670   0.775   7.394  0.7014 -0.8991 -0.3927
 2567TIP3   OH229335   4.220   1.079   9.004 -0.7222 -0.0029 -0.3689
 2567TIP3    H129336   4.131   1.079   9.038 -0.7197  0.7576 -0.3298
 2567TIP3    H229337   4.258   0.997   9.035 -1.2700 -0.1323 -0.0244
 2568TIP3   OH229338   4.079   3.852   0.368  0.1105  0.0215  0.3393
 2568TIP3    H129339   4.148   3.904   0.328  0.6443  0.0730  1.2961
 2568TIP3    H229340   4.021   3.915   0.409 -0.7033 -0.0033 -0.7464
 2569TIP3   OH229341   3.081   1.417   0.725  0.4365 -0.5379  0.1399
 2569TIP3    H129342   3.016   1.348   0.726  0.9115 -1.0419 -1.2744
 2569TIP3    H229343   3.030   1.498   0.727 -0.0951 -0.8686  2.8957
 2570TIP3   OH229344   4.359   5.382   1.462 -0.3825  0.2466  0.3821
 2570TIP3    H129345   4.280   5.351   1.419 -0.9248  0.3309  1.2823
 2570TIP3    H229346   4.383   5.311   1.522  1.9155 -1.0684 -1.8956
 2571TIP3   OH229347   5.513   5.570   1.306 -0.2372  0.0392  0.2315
 2571TIP3    H129348   5.586   5.597   1.250  1.0348 -2.6007  0.4758
 2571TIP3    H229349   5.517   5.630   1.381  0.0476  1.5595 -0.9559
 2572TIP3   OH229350   2.850   5.346   8.166  0.3133  0.3327 -0.0738
 2572TIP3    H129351   2.791   5.402   8.114  1.1931  0.5680 -0.8460
 2572TIP3    H229352   2.927   5.401   8.180  0.6557 -0.2405  0.2770
 2573TIP3   OH229353   1.058   1.368   9.393 -0.0137  0.1218 -0.0863
 2573TIP3    H129354   1.069   1.429   9.321  0.3205  3.2630  2.3994
 2573TIP3    H229355   1.145   1.328   9.404 -0.3589 -1.3200 -2.0346
 2574TIP3   OH229356   3.316   0.483   8.436  0.0323 -0.2064 -0.2341
 2574TIP3    H129357   3.282   0.471   8.348  0.2002 -0.2848 -0.2896
 2574TIP3    H229358   3.411   0.490   8.424  0.2367 -1.9028  0.1112
 2575TIP3   OH229359   3.930   5.615   1.547 -0.9247  0.1540 -0.2133
 2575TIP3    H129360   3.902   5.552   1.613 -0.9540 -0.7047 -1.0189
 2575TIP3    H229361   3.911   5.571   1.464 -0.4016  0.9963 -0.7816
 2576TIP3   OH229362   2.409   0.588   7.894 -0.2064 -0.1093  0.0074
 2576TIP3    H129363   2.347   0.558   7.827  1.8744 -0.0872 -2.0155
 2576TIP3    H229364   2.453   0.508   7.923 -1.4566 -0.2006  1.8512
 2577TIP3   OH229365   3.823   0.445   8.258 -0.1153  0.6633  0.3170
 2577TIP3    H129366   3.850   0.490   8.178  0.1310  0.1375  0.1016
 2577TIP3    H229367   3.898   0.453   8.317  1.0594 -1.8495 -0.7134
 2578TIP3   OH229368   5.747   1.274   1.722 -0.0666  0.4165  0.2666
 2578TIP3    H129369   5.693   1.233   1.790  0.8601  1.5936  1.7709
 2578TIP3    H229370   5.772   1.359   1.758  2.1788  0.2394 -0.6678
 2579TIP3   OH229371   6.233   3.958   1.389 -0.1339  0.3837  0.9895
 2579TIP3    H129372   6.214   3.873   1.349  0.0790  0.9771 -0.4271
 2579TIP3    H229373   6.328   3.965   1.386 -0.0681  0.1730  2.2000
 2580TIP3   OH229374   0.507   5.631   7.855 -0.4757  0.6019  0.6090
 2580TIP3    H129375   0.415   5.629   7.827 -0.3103  2.9458 -0.2822
 2580TIP3    H229376   0.554   5.665   7.780  0.8110  1.5904  1.8169
 2581TIP3   OH229377   1.422   4.385   3.631  0.1529  0.4421 -0.0098
 2581TIP3    H129378   1.369   4.422   3.702 -1.0591  1.5456 -1.4275
 2581TIP3    H229379   1.452   4.461   3.581  1.6234 -0.2762 -0.2706
 2582TIP3   OH229380   1.585   0.334   8.937  0.4613  0.0058 -0.3320
 2582TIP3    H129381   1.535   0.262   8.976  0.4410 -0.1289 -0.6107
 2582TIP3    H229382   1.646   0.292   8.877  0.3011  0.2362 -0.6567
 2583TIP3   OH229383   3.979   1.579   2.150 -0.9803  0.5721 -0.2937
 2583TIP3    H129384   3.977   1.584   2.246  1.5173  0.1606 -0.1680
 2583TIP3    H229385   3.919   1.649   2.122 -1.5034  0.9265  1.5432
 2584TIP3   OH229386   2.478   5.463   0.013 -0.0181  0.5274 -0.0487
 2584TIP3    H129387   2.410   5.452  -0.053 -0.3696  2.8315 -0.1400
 2584TIP3    H229388   2.453   5.402   0.082 -1.5947  0.5553 -0.5378
 2585TIP3   OH229389   3.529   4.411   0.600 -0.3115 -0.0764  0.4721
 2585TIP3    H129390   3.484   4.346   0.547  3.4472 -2.0136 -0.7405
 2585TIP3    H229391   3.507   4.495   0.560 -1.4403 -1.0696 -1.0834
 2586TIP3   OH229392   4.600   3.703   9.250 -0.4340  0.0867 -0.2538
 2586TIP3    H129393   4.606   3.748   9.166 -0.9565 -1.5151 -1.2087
 2586TIP3    H229394   4.530   3.639   9.238  0.4715 -1.1998  0.8959
 2587TIP3   OH229395   4.452   4.681   9.191 -0.3608  0.1392  0.2254
 2587TIP3    H129396   4.516   4.728   9.137  0.7813 -2.3911 -0.8091
 2587TIP3    H229397   4.491   4.678   9.278 -1.3210  2.5999  0.8092
 2588TIP3   OH229398   3.626   1.926   3.394 -0.6666  0.0100 -0.1877
 2588TIP3    H129399   3.654   1.898   3.307  0.0050 -1.5047  0.4691
 2588TIP3    H229400   3.658   1.857   3.453 -2.3754  0.2322  1.0882
 2589TIP3   OH229401   1.133   2.341   0.527 -0.4270 -0.1412 -0.1218
 2589TIP3    H129402   1.206   2.312   0.582 -0.0859  3.0635  1.3830
 2589TIP3    H229403   1.055   2.302   0.566  0.1183 -0.4929  0.6321
 2590TIP3   OH229404   2.497   4.543   8.266 -0.0617  0.0306  0.0155
 2590TIP3    H129405   2.579   4.584   8.296 -0.8389  0.3976  1.7875
 2590TIP3    H229406   2.525   4.466   8.217  1.3823  1.2450 -1.1878
 2591TIP3   OH229407   0.467   2.365   1.834  0.2543  0.2844 -0.1237
 2591TIP3    H129408   0.525   2.425   1.882  0.7601 -2.3287  2.9006
 2591TIP3    H229409   0.383   2.409   1.831  1.2601  2.2764 -0.5765
 2592TIP3   OH229410   2.960   3.831   8.305 -0.1457 -0.5511  0.0121
 2592TIP3    H129411   2.988   3.921   8.321  1.7709 -1.0843 -0.0897
 2592TIP3    H229412   3.026   3.777   8.350 -0.1965 -1.9298 -1.4864
 2593TIP3   OH229413   2.203   2.380   1.579 -0.2731  0.1574 -0.4428
 2593TIP3    H129414   2.187   2.463   1.535 -2.2002  2.0209  3.2848
 2593TIP3    H229415   2.116   2.343   1.593  0.1861 -0.2618  1.7023
 2594TIP3   OH229416   5.417   1.968   0.047 -0.1497  0.0991  0.0490
 2594TIP3    H129417   5.362   2.041   0.019  1.7494  1.7247  0.3651
 2594TIP3    H229418   5.407   1.903  -0.022 -1.6643  0.7498 -0.3864
 2595TIP3   OH229419   2.133   2.945   2.674  0.3096  0.3029  0.8622
 2595TIP3    H129420   2.074   2.904   2.610  1.5964  0.4902 -0.4816
 2595TIP3    H229421   2.144   2.879   2.743 -0.3303 -0.2731  0.4221
 2596TIP3   OH229422   0.568   3.087   0.445 -0.1876  0.1389 -0.2183
 2596TIP3    H129423   0.603   3.160   0.393  0.5208  0.9222  1.2961
 2596TIP3    H229424   0.499   3.127   0.498 -0.8257 -0.6279 -0.4466
 2597TIP3   OH229425   3.799   0.186   8.497 -0.1222 -0.0556  0.0530
 2597TIP3    H129426   3.821   0.177   8.404 -0.8011  0.9061 -0.2184
 2597TIP3    H229427   3.761   0.102   8.521  0.3378 -0.4159 -0.4580
 2598TIP3   OH229428   0.115   1.671   1.020 -0.1878  0.4777 -0.0520
 2598TIP3    H129429   0.077   1.642   1.103 -0.4917  1.9977  0.3698
 2598TIP3    H229430   0.066   1.750   0.997  1.0333  1.0555 -0.8030
 2599TIP3   OH229431   1.218   4.454   9.367  0.8371 -0.3443  0.6852
 2599TIP3    H129432   1.261   4.501   9.439 -0.0147  0.0178  0.9709
 2599TIP3    H229433   1.130   4.490   9.364 -0.2493 -2.6908  1.6681
 2600TIP3   OH229434   0.685   0.598   1.376  0.1048 -0.2985  0.6446
 2600TIP3    H129435   0.661   0.679   1.421  1.3175 -0.3462  1.4521
 2600TIP3    H229436   0.731   0.626   1.297 -1.5796 -0.2172 -0.3534
 2601TIP3   OH229437   0.652   0.941   2.718  0.0222  0.2133  0.1439
 2601TIP3    H129438   0.569   0.934   2.670  0.4680  0.8812 -0.7690
 2601TIP3    H229439   0.649   1.028   2.758  1.0932  1.0882 -1.5523
 2602TIP3   OH229440   5.188   1.117   3.275  0.3236 -0.6982 -0.3108
 2602TIP3    H129441   5.111   1.064   3.257  0.2095 -0.7762  0.3529
 2602TIP3    H229442   5.262   1.067   3.240  0.0894 -0.6823 -0.8335
 2603TIP3   OH229443   0.523   6.157   1.340  0.0978  0.0618 -0.3601
 2603TIP3    H129444   0.492   6.245   1.357  0.5101  0.6016 -2.1509
 2603TIP3    H229445   0.503   6.108   1.420 -1.1881  1.4747  0.2289
 2604TIP3   OH229446   1.743   3.881   1.991  0.4386  0.2842 -0.1300
 2604TIP3    H129447   1.678   3.949   2.011  0.1592  0.4235 -1.4125
 2604TIP3    H229448   1.806   3.925   1.934  0.8778 -0.2498 -0.0603
 2605TIP3   OH229449   1.171   5.561   2.933 -0.1398  0.2290 -0.2960
 2605TIP3    H129450   1.122   5.639   2.907  0.1351  0.4041 -0.2961
 2605TIP3    H229451   1.262   5.589   2.932 -0.0339 -0.1131 -0.3656
 2606TIP3   OH229452   0.340   3.264   9.947 -1.2154 -0.5386 -0.2613
 2606TIP3    H129453   0.248   3.284   9.931 -1.0589  0.1109 -0.3827
 2606TIP3    H229454   0.339   3.177   9.987 -1.9533 -0.0879  0.7253
 2607TIP3   OH229455   5.525   2.962   2.029  0.3680 -0.0494 -0.1294
 2607TIP3    H129456   5.488   3.039   1.986 -1.8314 -0.4319  0.9366
 2607TIP3    H229457   5.449   2.911   2.056  1.5651  0.0606  4.0418
 2608TIP3   OH229458   0.623   3.546   9.221 -0.4068 -0.6924 -0.6048
 2608TIP3    H129459   0.558   3.522   9.155  0.3749  1.5472 -2.3088
 2608TIP3    H229460   0.701   3.570   9.171  0.8354 -0.6928  1.2400
 2609TIP3   OH229461   5.477   0.673   7.906  0.3655  0.2778 -0.0726
 2609TIP3    H129462   5.449   0.749   7.957 -1.2466  0.4897 -1.1915
 2609TIP3    H229463   5.410   0.665   7.837  0.3048 -2.3337  0.1999
 2610TIP3   OH229464   5.652   4.816   9.576 -0.0091  0.2522  0.1811
 2610TIP3    H129465   5.673   4.873   9.502 -1.0555  0.8465  0.3207
 2610TIP3    H229466   5.647   4.728   9.538  0.9492  0.3338 -0.1602
 2611TIP3   OH229467   2.359   2.977   2.946 -0.0558 -0.0034  0.7411
 2611TIP3    H129468   2.421   2.953   3.016 -0.3463  0.3610  1.1277
 2611TIP3    H229469   2.359   2.901   2.887  0.4741 -0.1618  0.9365
 2612TIP3   OH229470   4.454   0.505   2.294 -0.1053 -0.3025  0.0552
 2612TIP3    H129471   4.438   0.567   2.223 -0.2379 -0.1188  0.2404
 2612TIP3    H229472   4.464   0.420   2.252 -2.2934 -0.5652 -0.0364
 2613TIP3   OH229473   2.925   3.316   1.361 -0.3304  0.2222 -0.0164
 2613TIP3    H129474   2.856   3.296   1.297  1.2628 -1.3241 -1.3657
 2613TIP3    H229475   2.878   3.328   1.444 -2.3846  1.3355 -1.2561
 2614TIP3   OH229476   4.243   5.954   2.506  0.3044 -0.2838  0.3779
 2614TIP3    H129477   4.303   5.882   2.525 -1.0183 -1.4945  0.1596
 2614TIP3    H229478   4.181   5.953   2.580 -1.2415 -1.0695 -0.8629
 2615TIP3   OH229479   5.346   3.649   8.791  0.1848  0.1959 -0.0177
 2615TIP3    H129480   5.436   3.642   8.823  0.3630 -0.6870 -0.6555
 2615TIP3    H229481   5.336   3.574   8.732 -1.5075 -0.7282  1.3548
 2616TIP3   OH229482   2.204   1.000   0.195 -0.0158 -0.1979 -0.2665
 2616TIP3    H129483   2.157   0.918   0.204 -2.3649  1.0623 -0.3837
 2616TIP3    H229484   2.195   1.043   0.280  0.5365  0.2860 -0.4397
 2617TIP3   OH229485   3.209   5.468   0.355 -0.0626 -0.1413 -0.1993
 2617TIP3    H129486   3.235   5.420   0.276 -1.2051  1.5909 -1.7269
 2617TIP3    H229487   3.137   5.416   0.391  0.2244 -0.7643 -0.5039
 2618TIP3   OH229488   3.857   2.019   9.853  0.0962  0.3785  0.3828
 2618TIP3    H129489   3.902   2.088   9.902 -0.0338  0.3991  0.4763
 2618TIP3    H229490   3.793   2.065   9.800  2.0611  0.6193 -1.9212
 2619TIP3   OH229491   2.489   0.894   8.359  0.1467 -0.4800  0.2645
 2619TIP3    H129492   2.542   0.879   8.437 -0.8548 -2.1886  0.6595
 2619TIP3    H229493   2.441   0.975   8.378  1.9130  0.6050  0.2593
 2620TIP3   OH229494   5.549   2.618   1.485  0.1378 -0.0650 -0.1003
 2620TIP3    H129495   5.511   2.531   1.472  0.5291 -0.5834  1.9340
 2620TIP3    H229496   5.549   2.657   1.398 -0.2870 -1.9997 -1.0217
 2621TIP3   OH229497   2.751   1.539   8.729  0.2354  0.2858 -0.1621
 2621TIP3    H129498   2.722   1.548   8.638  1.4142 -0.1621 -0.6091
 2621TIP3    H229499   2.831   1.590   8.734  0.5578 -0.2523  0.4335
 2622TIP3   OH229500   4.315   1.414   0.746 -0.4845  0.3899  0.5585
 2622TIP3    H129501   4.298   1.429   0.653 -0.3537 -0.5596  0.3758
 2622TIP3    H229502   4.315   1.319   0.756 -0.6199  0.4785  1.5572
 2623TIP3   OH229503   1.333   3.429   9.026  1.2053 -0.6879 -0.2740
 2623TIP3    H129504   1.301   3.344   8.996 -0.3372 -0.4213  0.5333
 2623TIP3    H229505   1.297   3.439   9.114 -1.4969  2.1818 -1.5026
 2624TIP3   OH229506   2.310   1.075   8.475 -0.1158 -0.1410 -0.3759
 2624TIP3    H129507   2.362   1.128   8.534 -0.2744 -0.9405  0.5148
 2624TIP3    H229508   2.277   1.136   8.410  1.6096  0.4529 -0.7488
 2625TIP3   OH229509   4.383   3.808   0.527  0.4516 -0.2884 -0.0495
 2625TIP3    H129510   4.342   3.761   0.600  0.3695 -0.1621 -0.0152
 2625TIP3    H229511   4.344   3.895   0.528  1.2417  0.0757  0.4316
 2626TIP3   OH229512   5.233   5.599   8.620 -0.3098 -0.0076 -0.2906
 2626TIP3    H129513   5.241   5.547   8.700 -1.3584  0.1188 -0.0858
 2626TIP3    H229514   5.139   5.618   8.614 -0.0491  1.1549 -0.8173
 2627TIP3   OH229515   4.295   0.657   8.358  0.3627 -0.1627 -0.1168
 2627TIP3    H129516   4.246   0.726   8.314 -1.1229 -1.3457 -0.3999
 2627TIP3    H229517   4.344   0.614   8.287 -1.6913 -1.7888 -0.6440
 2628TIP3   OH229518   2.798   4.821   8.701 -0.1077 -0.9375 -0.2715
 2628TIP3    H129519   2.740   4.756   8.740 -0.5104  0.0867  0.9188
 2628TIP3    H229520   2.777   4.821   8.608 -0.4065 -2.1784 -0.2101
 2629TIP3   OH229521   0.321   5.278   8.944  0.6888  0.1160  0.0220
 2629TIP3    H129522   0.307   5.370   8.919 -1.6936 -0.6591 -1.8352
 2629TIP3    H229523   0.365   5.239   8.869  0.9721 -0.4491  0.4729
 2630TIP3   OH229524   0.945   0.976   0.870  0.6077  0.1727 -0.1490
 2630TIP3    H129525   0.894   0.996   0.791 -1.8891 -0.1541  1.2962
 2630TIP3    H229526   0.966   1.061   0.907  0.1162  0.3052 -0.1654
 2631TIP3   OH229527   1.151   4.262   8.510  0.1932  0.0724 -0.3702
 2631TIP3    H129528   1.206   4.264   8.589  0.1588 -1.1342 -0.2990
 2631TIP3    H229529   1.153   4.352   8.478  3.6874 -0.2144 -1.3816
 2632TIP3   OH229530   4.283   3.842   1.280 -0.4396  0.1101  0.1967
 2632TIP3    H129531   4.193   3.848   1.248 -0.4110  2.6201  0.3794
 2632TIP3    H229532   4.321   3.928   1.262  2.6294 -1.4683 -1.7146
 2633TIP3   OH229533   2.108   3.914   8.006  0.9627 -0.2436  0.2716
 2633TIP3    H129534   2.147   3.862   8.077  2.8019 -0.1758 -0.6385
 2633TIP3    H229535   2.155   3.997   8.010 -1.3454  1.0936  1.1508
 2634TIP3   OH229536   5.710   2.844   9.036  0.2403 -0.1608  0.6454
 2634TIP3    H129537   5.782   2.867   9.095  0.7632  0.6008 -0.2711
 2634TIP3    H229538   5.689   2.925   8.990 -0.0604 -0.7696 -0.3279
 2635TIP3   OH229539   0.349   2.043   1.925 -0.1141 -0.5443  0.4543
 2635TIP3    H129540   0.313   2.126   1.956 -0.9910 -0.8253  0.2185
 2635TIP3    H229541   0.276   1.982   1.930 -0.0602 -0.8002 -1.4138
 2636TIP3   OH229542   0.102   1.807   0.414 -0.2846  0.0447 -0.4780
 2636TIP3    H129543   0.076   1.868   0.484 -0.2896  2.8389 -2.7518
 2636TIP3    H229544   0.020   1.788   0.367  0.2145  0.9670 -1.7570
 2637TIP3   OH229545   3.149   4.724   0.212  0.1259  0.4983 -0.1987
 2637TIP3    H129546   3.071   4.718   0.157 -0.2577  0.1534  0.3720
 2637TIP3    H229547   3.220   4.689   0.158 -0.4512 -0.9014 -0.0858
 2638TIP3   OH229548   3.549   4.332   1.842  0.4152  0.2676  0.4334
 2638TIP3    H129549   3.632   4.380   1.836  0.5696 -0.1315 -1.3240
 2638TIP3    H229550   3.543   4.285   1.759 -0.8050 -0.9986  1.1901
 2639TIP3   OH229551   5.121   4.803   0.799  0.1301 -0.1143  0.5941
 2639TIP3    H129552   5.094   4.779   0.710  0.8754  0.3051  0.2463
 2639TIP3    H229553   5.058   4.870   0.826 -0.4721 -0.6815  0.6285
 2640TIP3   OH229554   4.718   5.836   8.557  0.1405  0.2772 -0.1990
 2640TIP3    H129555   4.762   5.869   8.479  1.1648 -0.0137  0.2362
 2640TIP3    H229556   4.788   5.799   8.610 -0.8593 -1.9017 -0.3068
 2641TIP3   OH229557   5.910   3.591   0.814  0.2475 -0.1294  0.4831
 2641TIP3    H129558   5.976   3.660   0.824 -0.2115  0.4269 -0.2238
 2641TIP3    H229559   5.961   3.512   0.794  0.7172  0.2631  0.0929
 2642TIP3   OH229560   5.477   2.229   8.974 -0.1970  0.5102  0.0147
 2642TIP3    H129561   5.436   2.158   9.024 -0.8096  1.0779  0.3396
 2642TIP3    H229562   5.416   2.245   8.902 -0.3258  1.0599  0.2434
 2643TIP3   OH229563   5.868   4.862   0.970 -0.0565  0.1058  0.2236
 2643TIP3    H129564   5.833   4.889   1.055  2.0149 -1.4298  1.6625
 2643TIP3    H229565   5.922   4.936   0.942  0.5927  0.0021  1.1177
 2644TIP3   OH229566   0.006   6.338   7.883 -0.1222 -0.0660 -0.3202
 2644TIP3    H129567  -0.024   6.255   7.846 -1.0167  0.8034 -1.6678
 2644TIP3    H229568  -0.022   6.404   7.818 -0.7769  1.4465  1.4215
 2645TIP3   OH229569   3.585   2.189   1.874  0.2367 -0.0929 -1.1201
 2645TIP3    H129570   3.543   2.148   1.950 -0.9899  0.6033 -1.4035
 2645TIP3    H229571   3.620   2.116   1.824 -1.2172 -0.7637 -1.2059
 2646TIP3   OH229572   1.370   3.821   8.387  0.2223 -0.3381 -0.4761
 2646TIP3    H129573   1.324   3.858   8.462  0.0119 -1.5228 -0.0073
 2646TIP3    H229574   1.437   3.764   8.425  1.0663  0.1533 -1.1752
 2647TIP3   OH229575   1.100   5.886   0.521  0.2159  0.7225  0.2954
 2647TIP3    H129576   1.183   5.925   0.493  0.8900 -1.1432 -0.4709
 2647TIP3    H229577   1.056   5.861   0.440 -0.7752  1.0502  0.7164
 2648TIP3   OH229578   0.142   0.530   0.114  0.0007 -0.0650 -0.1243
 2648TIP3    H129579   0.137   0.490   0.027  0.8801 -0.4240 -0.0145
 2648TIP3    H229580   0.096   0.614   0.104  0.5937  0.1632 -1.0915
 2649TIP3   OH229581   2.755   0.242   8.161  0.4173 -0.2127 -0.8872
 2649TIP3    H129582   2.723   0.153   8.147  0.6748 -0.6853  1.2566
 2649TIP3    H229583   2.850   0.233   8.167  0.3262 -0.1260  1.2600
 2650TIP3   OH229584   4.627   1.362   0.971 -0.2213 -0.3908  0.4984
 2650TIP3    H129585   4.580   1.286   0.935 -0.7953 -0.3977  1.2454
 2650TIP3    H229586   4.564   1.405   1.028  0.1631  0.5544  0.2349
 2651TIP3   OH229587   1.136   2.181   2.234 -0.3901  0.2069  0.5641
 2651TIP3    H129588   1.221   2.188   2.278  0.4808 -1.0972 -0.8072
 2651TIP3    H229589   1.156   2.143   2.149 -2.6487 -3.0834  1.2965
 2652TIP3   OH229590   0.911   0.626   9.637 -0.3606  0.2654  0.2385
 2652TIP3    H129591   0.830   0.588   9.601 -1.7777  2.2617  1.1216
 2652TIP3    H229592   0.956   0.663   9.561  0.9019 -2.6712 -0.6042
 2653TIP3   OH229593   0.708   5.373   1.950  0.1019 -0.4524 -0.5880
 2653TIP3    H129594   0.745   5.387   2.037  1.3530 -3.3867 -0.5227
 2653TIP3    H229595   0.620   5.339   1.966  0.4771 -1.3708 -0.4192
 2654TIP3   OH229596   5.961   5.612   3.173  0.1123 -0.2670  0.5911
 2654TIP3    H129597   6.001   5.654   3.248 -1.8427 -0.5070  1.8544
 2654TIP3    H229598   5.916   5.536   3.210  2.9216 -3.2277 -1.4719
 2655TIP3   OH229599   4.965   5.061   0.050 -0.3506 -0.1626 -0.3315
 2655TIP3    H129600   4.982   5.059   0.145  0.1382 -0.0118 -0.4095
 2655TIP3    H229601   4.941   4.971   0.028 -1.2270 -0.0360  0.0640
 2656TIP3   OH229602   3.692   5.773   0.595  0.2866 -1.0121 -0.2397
 2656TIP3    H129603   3.756   5.702   0.590  0.9699 -0.3539 -1.0157
 2656TIP3    H229604   3.687   5.807   0.506  0.1172  0.0452  0.1603
 2657TIP3   OH229605   5.290   4.921   3.440  0.1324  0.1840  0.1763
 2657TIP3    H129606   5.288   4.884   3.528  0.8702 -1.5719 -0.4974
 2657TIP3    H229607   5.345   5.000   3.449  2.0110 -1.1281  0.9278
 2658TIP3   OH229608   3.085   2.522   0.260  0.0334  0.9319 -0.2235
 2658TIP3    H129609   3.142   2.544   0.333 -1.3703 -0.0475  1.2390
 2658TIP3    H229610   3.123   2.443   0.222  0.5277  1.1899 -0.2697
 2659TIP3   OH229611   2.501   6.292   7.514 -0.0882 -0.1094 -0.0296
 2659TIP3    H129612   2.513   6.222   7.578 -0.9475  0.2781  0.5773
 2659TIP3    H229613   2.486   6.247   7.431 -1.1922 -0.6621  0.4542
 2660TIP3   OH229614   2.908   5.198   0.034  0.1452 -0.2130  0.4421
 2660TIP3    H129615   2.828   5.248   0.017 -0.8492 -1.6741  0.7311
 2660TIP3    H229616   2.913   5.192   0.129 -0.7908 -2.2668  0.3943
 2661TIP3   OH229617   5.254   4.440   1.688  0.3597 -0.2723  0.2906
 2661TIP3    H129618   5.263   4.454   1.783  1.1216 -0.2156  0.2143
 2661TIP3    H229619   5.171   4.484   1.666  0.1391 -0.3432  0.9366
 2662TIP3   OH229620   4.535   6.065   9.102 -0.2437 -0.4618 -0.2454
 2662TIP3    H129621   4.540   6.152   9.140 -0.8682 -0.2648 -0.5866
 2662TIP3    H229622   4.537   6.006   9.177  2.4507 -0.2944 -0.1086
 2663TIP3   OH229623   0.777   0.614   9.123  0.1478  0.4976  0.1522
 2663TIP3    H129624   0.857   0.629   9.173  0.5096  0.5735 -0.4417
 2663TIP3    H229625   0.793   0.656   9.039 -0.0610 -0.4995 -0.3985
 2664TIP3   OH229626   4.098   2.535   0.914  0.0787  0.1189 -0.1118
 2664TIP3    H129627   4.168   2.595   0.939  0.6844 -0.8466  0.5300
 2664TIP3    H229628   4.094   2.541   0.818 -0.2824  1.6264 -0.0337
 2665TIP3   OH229629   5.846   5.919   8.355  0.3985 -0.0900  0.1598
 2665TIP3    H129630   5.879   5.900   8.442 -1.3925 -2.3405  0.4594
 2665TIP3    H229631   5.879   5.847   8.301 -2.5858 -1.6498  0.1880
 2666TIP3   OH229632   2.796   0.045   0.662 -0.8484 -0.2961 -0.3378
 2666TIP3    H129633   2.803  -0.050   0.677  0.7530 -0.2283 -0.4281
 2666TIP3    H229634   2.707   0.067   0.688 -0.8654 -1.6268  0.8875
 2667TIP3   OH229635   3.000   0.426   8.695  0.4693  0.3807 -0.7110
 2667TIP3    H129636   3.076   0.473   8.730 -0.0855  1.2087 -0.5800
 2667TIP3    H229637   3.023   0.333   8.702  1.4927  0.6198 -0.7466
 2668TIP3   OH229638   4.091   5.264   1.422  0.1819 -0.8390  0.6616
 2668TIP3    H129639   4.002   5.286   1.446 -0.1761 -2.7451  1.2391
 2668TIP3    H229640   4.094   5.277   1.327 -0.3623  0.2686  0.7765
 2669TIP3   OH229641   2.454   5.478   0.567  0.8302 -0.0076  0.2260
 2669TIP3    H129642   2.370   5.493   0.524  0.6652  0.8573  0.8172
 2669TIP3    H229643   2.517   5.532   0.518  1.3113 -1.5777 -0.9758
 2670TIP3   OH229644   1.708   0.190   6.616 -0.2055 -0.3057  0.4266
 2670TIP3    H129645   1.663   0.245   6.680 -0.2364 -0.6007  0.6602
 2670TIP3    H229646   1.663   0.209   6.533  0.8879  1.3070  0.1494
 2671TIP3   OH229647   3.370   2.679   2.543 -0.0757  0.0193  0.0576
 2671TIP3    H129648   3.362   2.670   2.448  0.8805  0.9188 -0.1354
 2671TIP3    H229649   3.294   2.731   2.569  0.1485  0.5695 -0.3623
 2672TIP3   OH229650   4.819   4.477   3.621  0.0254 -0.0802  0.4523
 2672TIP3    H129651   4.822   4.417   3.695 -2.4202  0.1877  0.8543
 2672TIP3    H229652   4.879   4.547   3.644 -0.0358 -0.4421  1.7999
 2673TIP3   OH229653   2.332   4.063   3.836  0.0604  0.0539  0.6610
 2673TIP3    H129654   2.364   4.107   3.757 -0.4954 -1.5225 -0.5079
 2673TIP3    H229655   2.411   4.032   3.880  0.3191 -2.0174 -1.1160
 2674TIP3   OH229656   3.035   4.073   1.039  0.0954 -0.2483  1.3647
 2674TIP3    H129657   3.042   4.058   0.944 -0.7034  1.2711  1.0438
 2674TIP3    H229658   2.964   4.015   1.066 -1.7043  1.4073  0.4624
 2675TIP3   OH229659   4.077   4.331   3.668 -0.6681 -0.1795  0.3502
 2675TIP3    H129660   4.150   4.391   3.685 -2.2582  2.1403 -0.3827
 2675TIP3    H229661   4.040   4.312   3.754  0.1360 -0.4870  0.6321
 2676TIP3   OH229662   3.692   5.411   0.331  0.6088 -0.4833  0.4508
 2676TIP3    H129663   3.722   5.488   0.282  0.6880  0.4119  1.8599
 2676TIP3    H229664   3.755   5.343   0.308  1.8850  0.5024  0.9079
 2677TIP3   OH229665   3.652   3.949   1.708 -0.4564  0.6087  0.6628
 2677TIP3    H129666   3.685   3.967   1.796 -1.1614  0.6253  0.9277
 2677TIP3    H229667   3.727   3.966   1.650 -0.0770  0.8931  1.2305
 2678TIP3   OH229668   5.215   2.297   2.687  0.4855 -0.2990  0.1237
 2678TIP3    H129669   5.230   2.239   2.762 -0.5652  0.3805  0.8949
 2678TIP3    H229670   5.269   2.374   2.705  2.3910 -1.2640 -1.2235
 2679TIP3   OH229671   3.691   1.036   2.626 -0.9823  0.0994  0.2364
 2679TIP3    H129672   3.683   0.940   2.625 -1.0766  0.0871 -1.2581
 2679TIP3    H229673   3.740   1.055   2.706  0.8051 -1.3626 -0.4178
 2680TIP3   OH229674   5.873   3.951   2.034 -0.0432 -0.3517 -1.1027
 2680TIP3    H129675   5.836   3.986   1.953 -1.6920 -0.2093 -0.3373
 2680TIP3    H229676   5.890   4.028   2.088 -1.0062 -0.5382 -0.5025
 2681TIP3   OH229677   2.867   5.306   8.454  0.2565  0.5705 -0.5690
 2681TIP3    H129678   2.953   5.339   8.428  0.5642 -0.8290 -1.3823
 2681TIP3    H229679   2.840   5.366   8.524  0.9018  2.3667 -1.7660
 2682TIP3   OH229680   2.421   6.213   9.720 -0.3913 -0.8125  0.1989
 2682TIP3    H129681   2.479   6.139   9.700 -1.3043 -1.7453  0.8581
 2682TIP3    H229682   2.347   6.201   9.661 -0.1515  0.0863 -0.2930
 2683TIP3   OH229683   1.373   3.993   2.513  0.1111 -0.1008 -0.2866
 2683TIP3    H129684   1.386   4.034   2.428 -1.0677  1.0378  0.0516
 2683TIP3    H229685   1.293   3.941   2.503  0.3429 -0.5113 -0.0566
 2684TIP3   OH229686   2.093   2.551   0.627 -0.8268  0.2402  0.5589
 2684TIP3    H129687   2.116   2.471   0.674  0.1193 -0.3407 -0.8423
 2684TIP3    H229688   2.023   2.524   0.567  1.2794 -0.2423 -1.8233
 2685TIP3   OH229689   4.954   3.160   3.292  0.3636  0.0503  0.6503
 2685TIP3    H129690   4.884   3.215   3.259  0.6611 -0.0261 -0.1201
 2685TIP3    H229691   4.912   3.076   3.311  0.0340  0.3420  1.2479
 2686TIP3   OH229692   1.301   3.025   0.870  0.5072 -0.5163  0.0583
 2686TIP3    H129693   1.264   3.067   0.792  1.3087 -0.8540 -0.5182
 2686TIP3    H229694   1.274   3.081   0.942 -1.5177 -1.0086 -0.2688
 2687TIP3   OH229695   0.535   0.506   0.805  0.6263  0.1784  0.6978
 2687TIP3    H129696   0.504   0.417   0.792 -1.0118  0.9562 -1.3043
 2687TIP3    H229697   0.630   0.498   0.815  0.5623 -1.7482  0.0869
 2688TIP3   OH229698   5.347   2.154   1.805 -0.0855 -0.2311 -0.0033
 2688TIP3    H129699   5.286   2.208   1.755 -2.2594 -0.9441  1.7528
 2688TIP3    H229700   5.360   2.076   1.751 -2.0991 -0.8207  0.2820
 2689TIP3   OH229701   0.484   1.156   9.390  0.5116 -0.0442  0.3481
 2689TIP3    H129702   0.441   1.078   9.425  0.1545 -0.4547 -0.9430
 2689TIP3    H229703   0.421   1.227   9.406 -1.0144 -0.7261 -2.0137
 2690TIP3   OH229704   0.690   2.087   2.894  0.2507 -0.1602 -0.1637
 2690TIP3    H129705   0.670   2.067   2.985 -0.1634  1.2672  0.0949
 2690TIP3    H229706   0.778   2.125   2.895 -0.2025  0.9497 -0.1575
 2691TIP3   OH229707   3.778   0.539   1.987 -0.3542 -0.0107 -0.3539
 2691TIP3    H129708   3.778   0.457   1.938 -1.3734  0.5254 -1.2963
 2691TIP3    H229709   3.846   0.592   1.945  2.1196 -1.2369  1.8652
 2692TIP3   OH229710   5.275   5.000   1.203 -0.0596  1.0194 -0.6515
 2692TIP3    H129711   5.316   4.913   1.196  1.3478  1.6338 -0.3917
 2692TIP3    H229712   5.314   5.050   1.132 -0.4982  1.5894 -0.4940
 2693TIP3   OH229713   0.738   4.365   0.948 -0.0351 -0.3779 -0.2113
 2693TIP3    H129714   0.736   4.410   1.033  1.8644 -0.2127 -0.1998
 2693TIP3    H229715   0.652   4.381   0.910 -0.8319 -0.2385  1.5712
 2694TIP3   OH229716   6.335   1.255   2.408  0.2339 -0.5865 -0.2390
 2694TIP3    H129717   6.409   1.247   2.469  1.0975 -0.8575 -1.3046
 2694TIP3    H229718   6.288   1.172   2.416 -0.0623 -0.3611  0.5402
 2695TIP3   OH229719   0.228   5.692   8.238 -0.8743 -0.0519 -0.1559
 2695TIP3    H129720   0.290   5.636   8.283  0.7687  0.7859 -1.2959
 2695TIP3    H229721   0.277   5.731   8.166 -2.6073  0.9724 -0.8626
 2696TIP3   OH229722   4.625   0.982   2.102 -0.1444 -0.5867  0.4432
 2696TIP3    H129723   4.602   0.897   2.064  1.0986 -0.7967  0.0849
 2696TIP3    H229724   4.556   1.041   2.072 -0.8351 -1.3966  0.4005
 2697TIP3   OH229725   0.405   0.487   0.221 -0.5010  0.0653 -0.1967
 2697TIP3    H129726   0.458   0.562   0.196  2.2238 -2.2536 -2.0052
 2697TIP3    H229727   0.331   0.488   0.161 -1.3574  2.0342  0.8003
 2698TIP3   OH229728   5.078   4.800   2.932 -0.2289  0.3163 -0.5379
 2698TIP3    H129729   5.051   4.836   3.017  0.1056 -0.8396  0.0876
 2698TIP3    H229730   5.062   4.870   2.870  1.0241  1.7891  0.7089
 2699TIP3   OH229731   2.612   0.525   8.184 -0.3077  0.1138  0.6410
 2699TIP3    H129732   2.681   0.459   8.176  0.7541  1.3230 -0.4759
 2699TIP3    H229733   2.617   0.553   8.276  1.4310  0.9326  0.3329
 2700TIP3   OH229734   6.015   4.085   8.714  0.1275  0.6077 -0.2665
 2700TIP3    H129735   6.042   4.046   8.631  1.2173  0.5778  0.0886
 2700TIP3    H229736   6.067   4.166   8.721  0.5267  0.2873  0.6814
 2701TIP3   OH229737   3.123   6.048   2.197 -0.1682  0.5120  0.0852
 2701TIP3    H129738   3.041   6.019   2.236 -1.0989  2.2895 -0.4803
 2701TIP3    H229739   3.099   6.120   2.139  1.6574  0.3840 -0.9145
 2702TIP3   OH229740   4.740   2.158   1.421  0.3257  0.1230 -0.2536
 2702TIP3    H129741   4.792   2.232   1.390  0.0962  0.2543 -0.3255
 2702TIP3    H229742   4.653   2.171   1.382  1.0246 -1.7053 -2.6051
 2703TIP3   OH229743   5.990   3.764   1.454 -0.2464  0.2621  0.1231
 2703TIP3    H129744   6.058   3.750   1.389  1.3073 -1.7053  2.0472
 2703TIP3    H229745   5.943   3.842   1.423  1.0696  0.0313 -2.7308
 2704TIP3   OH229746   1.958   6.311   9.057  1.2186 -0.4476  0.1056
 2704TIP3    H129747   1.890   6.348   9.113  0.9703 -0.4866 -0.1694
 2704TIP3    H229748   1.913   6.288   8.976  1.7040  0.2762 -0.3886
 2705TIP3   OH229749   5.688   0.494   1.020 -0.4011  0.1564  0.0938
 2705TIP3    H129750   5.668   0.424   1.081  0.5094  0.6720  1.0195
 2705TIP3    H229751   5.606   0.542   1.010 -1.1956 -1.3705 -1.0307
 2706TIP3   OH229752   4.378   5.948   0.115  0.0848 -0.0656 -0.1788
 2706TIP3    H129753   4.309   5.887   0.141  0.1765 -0.0185  0.1780
 2706TIP3    H229754   4.336   6.008   0.054  0.1486 -0.8892 -1.0586
 2707TIP3   OH229755   5.554   2.774   8.366  0.1586  0.5141  0.0667
 2707TIP3    H129756   5.502   2.851   8.344 -1.8906 -0.4840  1.0720
 2707TIP3    H229757   5.601   2.798   8.446 -0.7494  0.6328  0.5741
 2708TIP3   OH229758   4.728   0.374   7.917 -0.7969 -0.0917 -0.0329
 2708TIP3    H129759   4.642   0.392   7.880 -1.5826  0.6176  2.0092
 2708TIP3    H229760   4.710   0.333   8.002  0.9345 -3.6835 -1.2046
 2709TIP3   OH229761   0.507   3.067   9.473  0.7026 -0.4030 -0.7688
 2709TIP3    H129762   0.559   3.132   9.426 -1.2395  0.6250 -1.6284
 2709TIP3    H229763   0.507   3.097   9.564  0.7435  0.1665 -0.9509
 2710TIP3   OH229764   2.092   0.587   8.620 -0.0539 -0.3622 -0.8726
 2710TIP3    H129765   2.072   0.666   8.670 -1.7154 -1.5097  0.3639
 2710TIP3    H229766   2.080   0.516   8.682  1.4979 -1.6225 -1.9347
 2711TIP3   OH229767   3.654   5.731   8.146  0.3400 -0.6739 -0.2593
 2711TIP3    H129768   3.660   5.800   8.080  2.0343  1.8567  2.2897
 2711TIP3    H229769   3.561   5.728   8.170 -0.0596 -0.6670 -1.7227
 2712TIP3   OH229770   4.379   5.712   2.545 -0.7069  0.2494  0.3929
 2712TIP3    H129771   4.422   5.665   2.473 -0.1773  0.9984  0.2051
 2712TIP3    H229772   4.387   5.653   2.620  1.1916  0.5759  0.5028
 2713TIP3   OH229773   6.364   3.170   3.278  0.2470 -0.2602 -0.3073
 2713TIP3    H129774   6.428   3.234   3.308 -1.7819  1.3129  0.9642
 2713TIP3    H229775   6.346   3.194   3.187 -1.6250  2.1612  0.5630
 2714TIP3   OH229776   1.620   1.110   7.714 -0.2071  0.0973 -0.1337
 2714TIP3    H129777   1.531   1.089   7.744 -0.7659  2.0251 -0.3425
 2714TIP3    H229778   1.635   1.200   7.742  1.2157  0.2315 -1.1833
 2715TIP3   OH229779   4.947   5.224   8.916  0.1887  0.3149 -0.0148
 2715TIP3    H129780   4.924   5.240   9.008  0.8649 -0.7515  0.3578
 2715TIP3    H229781   4.875   5.172   8.881  1.4058 -2.1587  0.8753
 2716TIP3   OH229782   3.693   3.860   0.982  0.4114  0.3295  0.2910
 2716TIP3    H129783   3.750   3.784   0.976  0.2194 -0.0597  2.4767
 2716TIP3    H229784   3.751   3.934   1.000  0.4132  0.3145  0.3460
 2717TIP3   OH229785   5.361   0.971   1.308  0.3885 -0.3095  0.2604
 2717TIP3    H129786   5.395   0.919   1.381 -0.9602  0.6473  1.6404
 2717TIP3    H229787   5.319   1.046   1.350 -1.5550 -0.3625 -1.4275
 2718TIP3   OH229788   1.772   1.802   9.167 -0.6457 -0.5833 -0.6063
 2718TIP3    H129789   1.772   1.887   9.210 -1.0297 -1.1342  0.5285
 2718TIP3    H229790   1.694   1.758   9.201 -1.0850 -0.9638 -2.0637
 2719TIP3   OH229791   0.974   5.170   0.472  0.4076 -0.3320 -0.1611
 2719TIP3    H129792   1.001   5.091   0.425  4.2719 -0.0162  1.1319
 2719TIP3    H229793   1.028   5.239   0.433 -0.9944  1.1876  0.4939
 2720TIP3   OH229794   3.914   1.035   0.149 -0.4165 -0.5863  0.1887
 2720TIP3    H129795   3.991   1.081   0.116 -0.4858 -0.1878  0.5667
 2720TIP3    H229796   3.928   0.944   0.126  0.0811 -0.4857  0.0908
 2721TIP3   OH229797   0.466   1.692   9.520 -0.3829  0.0573 -0.1029
 2721TIP3    H129798   0.548   1.664   9.561  0.1121  0.6167 -0.6962
 2721TIP3    H229799   0.401   1.630   9.553  0.2309 -0.2484  0.5615
 2722TIP3   OH229800   1.274   4.456   1.861 -0.1688  0.0841  0.3763
 2722TIP3    H129801   1.219   4.381   1.842  1.5212 -1.1565  0.1353
 2722TIP3    H229802   1.247   4.484   1.948 -0.2895 -1.3115  0.8085
 2723TIP3   OH229803   1.797   4.541   8.233  0.0546 -0.2904  0.7866
 2723TIP3    H129804   1.720   4.560   8.180 -0.6119 -2.4437  0.8852
 2723TIP3    H229805   1.871   4.567   8.178 -0.6836  1.0617  0.3724
 2724TIP3   OH229806   0.992   4.233   9.077  0.2038  0.0680 -0.3655
 2724TIP3    H129807   0.926   4.303   9.082  0.2842  0.1554 -0.5529
 2724TIP3    H229808   1.064   4.271   9.028  1.2130  0.6291  1.4523
 2725TIP3   OH229809   0.983   5.451   0.822  0.1785  0.8411  0.5405
 2725TIP3    H129810   0.998   5.511   0.749  0.1245  0.0707 -0.1208
 2725TIP3    H229811   0.908   5.398   0.794 -0.5530  1.2575  1.6306
 2726TIP3   OH229812   3.312   2.525   0.804  0.1251 -0.2426  0.1654
 2726TIP3    H129813   3.262   2.555   0.728  0.8607  1.0575  0.1611
 2726TIP3    H229814   3.247   2.521   0.875 -0.4079 -0.7180 -0.3302
 2727TIP3   OH229815   2.981   0.154   9.604  0.4044  0.3007 -0.1171
 2727TIP3    H129816   2.998   0.075   9.656  1.1166  1.6685  1.8303
 2727TIP3    H229817   2.904   0.193   9.644 -0.1570  0.4502 -1.3001
 2728TIP3   OH229818   4.085   2.861   1.069 -0.0627  0.3570 -1.2852
 2728TIP3    H129819   4.135   2.932   1.029 -1.8473  0.9056 -2.6695
 2728TIP3    H229820   4.146   2.787   1.073  1.4403  1.5786 -0.9967
 2729TIP3   OH229821   0.356   2.460   1.276 -0.6113  0.1286  0.4377
 2729TIP3    H129822   0.283   2.411   1.239 -0.3074  0.8624 -1.2002
 2729TIP3    H229823   0.341   2.458   1.371 -0.1990 -3.7835  0.5599
 2730TIP3   OH229824   6.292   2.202   2.623 -0.0025  0.2948  0.1886
 2730TIP3    H129825   6.236   2.235   2.693 -1.9257  0.3655 -1.3008
 2730TIP3    H229826   6.312   2.279   2.570  0.0261 -0.0359 -0.2861
 2731TIP3   OH229827   3.151   3.708   8.465 -0.0403 -0.5156 -0.2430
 2731TIP3    H129828   3.228   3.719   8.521 -0.1926 -0.9610  0.0595
 2731TIP3    H229829   3.077   3.717   8.524 -0.1995 -2.8140  0.0190
 2732TIP3   OH229830   2.016   2.747   9.159 -0.0379  0.4383 -0.3057
 2732TIP3    H129831   2.069   2.762   9.081 -1.6798 -1.5095 -1.9231
 2732TIP3    H229832   2.064   2.680   9.208 -0.0738  0.0007 -0.8494
 2733TIP3   OH229833   5.898   1.493   9.345 -0.0333  0.8130  0.1837
 2733TIP3    H129834   5.919   1.557   9.277  0.4364 -0.3246 -0.7883
 2733TIP3    H229835   5.959   1.421   9.329 -0.4426  0.1767  1.3451
 2734TIP3   OH229836   1.673   0.384   8.573 -0.0836 -0.2348  0.3014
 2734TIP3    H129837   1.736   0.329   8.619  1.2575  1.1524  0.1956
 2734TIP3    H229838   1.653   0.454   8.634 -2.2134 -1.0865  0.6509
 2735TIP3   OH229839   3.624   5.224   2.319  0.1584  0.3600  0.5188
 2735TIP3    H129840   3.660   5.135   2.311 -1.0250 -0.2613  1.6539
 2735TIP3    H229841   3.592   5.244   2.231 -0.4754 -0.7868  0.4558
 2736TIP3   OH229842   2.626   2.318   2.777 -0.2896 -0.1557 -1.0064
 2736TIP3    H129843   2.618   2.320   2.872  0.5393 -0.3625 -0.9257
 2736TIP3    H229844   2.658   2.405   2.754  0.4600 -0.4149 -0.9904
 2737TIP3   OH229845   1.772   4.657   1.345  0.4695  0.2878  0.3304
 2737TIP3    H129846   1.857   4.683   1.310  1.0715 -1.1563  0.6347
 2737TIP3    H229847   1.793   4.598   1.418 -0.7827 -0.9655 -0.2653
 2738TIP3   OH229848   4.483   2.634   9.639  0.1614  0.1740 -0.1826
 2738TIP3    H129849   4.489   2.727   9.619 -0.1905 -0.1893 -2.2805
 2738TIP3    H229850   4.567   2.612   9.679  1.0764  1.0173 -1.5636
 2739TIP3   OH229851   5.036   5.283   0.873 -0.3468  0.2222  0.1204
 2739TIP3    H129852   5.098   5.330   0.930 -1.0178  0.5785  0.5728
 2739TIP3    H229853   4.990   5.353   0.826 -2.9918  0.2465  2.4657
 2740TIP3   OH229854   5.299   2.330   8.785  0.3075  0.1304  0.5591
 2740TIP3    H129855   5.244   2.391   8.835 -0.8852  0.5277 -1.1677
 2740TIP3    H229856   5.292   2.359   8.695  0.6518 -1.8644 -0.1670
 2741TIP3   OH229857   3.874   1.363   9.655 -0.0852 -0.0854 -0.2151
 2741TIP3    H129858   3.934   1.438   9.656 -0.3951  0.1698  0.8224
 2741TIP3    H229859   3.820   1.377   9.577  0.4205  0.3090 -0.5062
 2742TIP3   OH229860   3.556   1.252   0.451 -0.2246 -0.2794 -0.3113
 2742TIP3    H129861   3.517   1.287   0.531  0.1503 -1.3939  0.3779
 2742TIP3    H229862   3.594   1.168   0.478  1.1533 -0.0085 -1.3405
 2743TIP3   OH229863   2.716   4.564   1.223 -0.2718 -0.3315 -0.1720
 2743TIP3    H129864   2.750   4.604   1.143 -0.8105 -0.6814 -0.5837
 2743TIP3    H229865   2.779   4.588   1.291  0.2752 -0.1628 -0.7336
 2744TIP3   OH229866   0.001   3.059   0.134  0.6391  0.7730  0.0841
 2744TIP3    H129867  -0.012   3.046   0.228  1.0129  0.6928  0.1297
 2744TIP3    H229868   0.036   2.976   0.103 -2.3510 -0.2850 -0.7222
 2745TIP3   OH229869   5.681   2.047   1.675 -0.8355  0.8672 -0.1634
 2745TIP3    H129870   5.628   1.970   1.695  1.7342 -0.8782  0.4876
 2745TIP3    H229871   5.708   2.081   1.760  0.4693  0.6615 -0.4802
 2746TIP3   OH229872   2.893   3.076   1.138 -0.6424  0.1008 -0.2122
 2746TIP3    H129873   2.946   3.026   1.076 -0.9536  1.2946 -1.4761
 2746TIP3    H229874   2.895   3.023   1.218  1.2092 -0.6153 -0.6777
 2747TIP3   OH229875   6.253   2.890   3.449  0.0456  0.3764 -0.0995
 2747TIP3    H129876   6.213   2.804   3.464 -0.9118  0.4674 -1.8465
 2747TIP3    H229877   6.316   2.875   3.378 -0.3502  1.1623 -0.6313
 2748TIP3   OH229878   5.379   1.173   2.031 -0.4426  0.2302 -0.4690
 2748TIP3    H129879   5.468   1.143   2.015 -0.8536 -1.7003  0.6045
 2748TIP3    H229880   5.353   1.129   2.112 -1.8597  1.9197  0.0632
 2749TIP3   OH229881   3.068   1.895   1.260  0.7018 -0.3121 -0.5253
 2749TIP3    H129882   3.022   1.962   1.209  0.3037 -0.4022 -0.2916
 2749TIP3    H229883   3.008   1.821   1.262 -0.0768  0.2965  1.5533
 2750TIP3   OH229884   0.616   5.491   9.609  0.2568 -0.4643  0.1247
 2750TIP3    H129885   0.658   5.559   9.662  1.9157 -0.7257 -0.7976
 2750TIP3    H229886   0.655   5.500   9.522  0.5027 -2.5624 -0.0373
 2751TIP3   OH229887   3.229   5.882   8.547 -0.3643  0.6650  0.4560
 2751TIP3    H129888   3.239   5.947   8.477 -2.1193  0.1573 -0.3284
 2751TIP3    H229889   3.229   5.798   8.501  2.7672 -0.0781  1.5376
 2752TIP3   OH229890   5.216   4.062   0.982  0.5545 -0.1375  0.1287
 2752TIP3    H129891   5.293   4.117   0.997  0.0455  0.6751 -0.1486
 2752TIP3    H229892   5.229   3.987   1.040  0.8687  0.6817  1.1615
 2753TIP3   OH229893   4.699   1.582   0.352 -0.0572  0.3691 -0.1538
 2753TIP3    H129894   4.794   1.593   0.344  0.0320 -0.0888  0.2793
 2753TIP3    H229895   4.667   1.586   0.262  0.5908 -1.4907 -0.4939
 2754TIP3   OH229896   5.585   1.424   7.858 -0.0730 -0.0515 -0.2799
 2754TIP3    H129897   5.526   1.491   7.823  0.7601 -0.4218 -2.5347
 2754TIP3    H229898   5.659   1.474   7.893 -1.0393  0.3371  1.3511
 2755TIP3   OH229899   0.656   2.038   1.980  0.0571 -0.2496  0.0813
 2755TIP3    H129900   0.582   2.053   1.921  0.5194 -0.5511 -0.5855
 2755TIP3    H229901   0.700   2.123   1.986 -0.1201 -0.1637  0.1772
 2756TIP3   OH229902   5.330   0.947   2.232 -0.3806  0.4022 -1.1621
 2756TIP3    H129903   5.414   0.930   2.275 -0.2584 -1.1461 -1.9384
 2756TIP3    H229904   5.268   0.958   2.303  0.4453  1.5353 -0.5697
 2757TIP3   OH229905   1.116   1.954   1.315  0.5691  0.4774  0.1910
 2757TIP3    H129906   1.072   1.870   1.312 -0.0388  0.7671  0.6961
 2757TIP3    H229907   1.074   2.006   1.246 -1.5405  1.5065  2.0843
 2758TIP3   OH229908   5.668   0.376   8.851  0.0179  0.1723  0.0779
 2758TIP3    H129909   5.658   0.459   8.805 -0.4828 -0.5089 -1.1055
 2758TIP3    H229910   5.744   0.389   8.908 -0.7929  1.8114  0.8314
 2759TIP3   OH229911   5.250   2.665   8.506  0.4599  0.3975 -0.1662
 2759TIP3    H129912   5.295   2.705   8.580  0.2361 -0.6933  0.5947
 2759TIP3    H229913   5.165   2.709   8.503  0.1395 -0.1177  0.7784
 2760TIP3   OH229914   2.061   4.358   8.438 -0.2264  0.0411  0.3806
 2760TIP3    H129915   2.038   4.381   8.348 -0.3111  2.7686  0.9948
 2760TIP3    H229916   2.156   4.368   8.443 -0.3056  0.6539  0.7653
 2761TIP3   OH229917   0.103   1.553   8.187 -0.4791  0.0831 -0.0614
 2761TIP3    H129918   0.101   1.644   8.157  0.0911  0.3611  0.7097
 2761TIP3    H229919   0.148   1.506   8.117  0.0162  0.5581 -0.0746
 2762TIP3   OH229920   1.453   6.375   0.784 -0.7311 -0.1672 -0.0765
 2762TIP3    H129921   1.363   6.400   0.806 -1.0330 -1.4633  0.2796
 2762TIP3    H229922   1.474   6.426   0.706 -1.5827  0.5465  0.1448
 2763TIP3   OH229923   2.125   0.178   0.791  0.4338  0.7868 -0.1098
 2763TIP3    H129924   2.085   0.092   0.791  1.2582  0.3153 -2.3765
 2763TIP3    H229925   2.078   0.227   0.858 -0.8240 -1.0595  0.4365
 2764TIP3   OH229926   2.569   1.208   0.044 -0.0565 -0.2429  0.7523
 2764TIP3    H129927   2.526   1.285   0.007  0.9499  0.7940  1.6738
 2764TIP3    H229928   2.646   1.194  -0.012 -2.1416 -2.9484 -1.7789
 2765TIP3   OH229929   6.416   2.746   2.357 -0.1895 -0.1310  0.2499
 2765TIP3    H129930   6.427   2.781   2.269 -0.5557 -2.1157 -0.6272
 2765TIP3    H229931   6.354   2.806   2.399 -0.3648  0.5713 -0.9828
 2766TIP3   OH229932   3.419   2.130   2.091 -0.0365 -0.0987  0.0122
 2766TIP3    H129933   3.340   2.155   2.140  0.8615  0.6860  1.1196
 2766TIP3    H229934   3.437   2.040   2.119 -0.0959 -0.0023  0.3670
 2767TIP3   OH229935   3.442   4.865   1.883 -0.0777 -0.4528  0.5560
 2767TIP3    H129936   3.425   4.881   1.976  0.0737 -0.4137  0.5782
 2767TIP3    H229937   3.430   4.771   1.872 -0.3280 -0.4230  0.5646
 2768TIP3   OH229938   6.419   1.733   9.776 -0.3746 -0.2472  0.4612
 2768TIP3    H129939   6.355   1.662   9.776  0.2354 -0.8011  0.1030
 2768TIP3    H229940   6.492   1.700   9.829  0.3989 -0.3333 -0.6340
 2769TIP3   OH229941   4.294   5.782   0.673  0.4941  0.1326 -0.2223
 2769TIP3    H129942   4.309   5.795   0.766  0.8783 -0.8111 -0.1405
 2769TIP3    H229943   4.253   5.695   0.667 -0.3425  0.5576 -0.8631
 2770TIP3   OH229944   2.481   2.530   0.365 -0.1811  0.3895 -0.3010
 2770TIP3    H129945   2.571   2.533   0.333  0.1609 -0.6789  0.4991
 2770TIP3    H229946   2.464   2.437   0.380 -1.4024  0.5818 -0.3796
 2771TIP3   OH229947   2.531   5.219   0.615  0.7025  0.3419 -0.4296
 2771TIP3    H129948   2.495   5.306   0.599 -1.3086 -0.7131 -2.2034
 2771TIP3    H229949   2.623   5.226   0.589  0.9777  2.2701  0.9000
 2772TIP3   OH229950   1.859   4.234   1.071 -0.4305  0.3015 -0.7195
 2772TIP3    H129951   1.832   4.193   1.153 -1.3703  3.1390  0.4915
 2772TIP3    H229952   1.955   4.233   1.074 -0.4559  0.8401  0.6639
 2773TIP3   OH229953   5.779   5.413   0.765 -0.1315  0.0190 -0.1785
 2773TIP3    H129954   5.696   5.394   0.722 -1.0840 -1.1746  2.0186
 2773TIP3    H229955   5.846   5.388   0.701 -1.4546 -2.3889 -0.7272
 2774TIP3   OH229956   5.431   5.410   1.628 -0.1783  0.4591 -0.0307
 2774TIP3    H129957   5.350   5.362   1.643 -0.4276  1.3373  1.7574
 2774TIP3    H229958   5.452   5.394   1.537 -1.5128 -1.0766 -0.1147
 2775TIP3   OH229959   4.571   0.117   9.853 -0.2908 -0.2838 -0.3247
 2775TIP3    H129960   4.541   0.182   9.916 -0.7401 -0.7949  0.0006
 2775TIP3    H229961   4.491   0.075   9.821  0.0062 -0.9205 -0.2610
 2776TIP3   OH229962   1.346   2.907   1.479 -0.0198 -0.1352 -0.2074
 2776TIP3    H129963   1.343   2.982   1.419 -1.4330  1.5578  1.8363
 2776TIP3    H229964   1.259   2.868   1.472 -1.9928  2.8040  3.7499
 2777TIP3   OH229965   3.927   4.327   0.722 -0.1451 -0.3401 -0.1496
 2777TIP3    H129966   3.844   4.362   0.755 -0.4094  0.2652 -1.3918
 2777TIP3    H229967   3.946   4.253   0.779 -0.2864  0.9786  1.6781
 2778TIP3   OH229968   6.161   4.733   8.294  0.2433  0.3042 -0.5468
 2778TIP3    H129969   6.221   4.762   8.226 -0.1016 -2.6132 -2.2172
 2778TIP3    H229970   6.089   4.796   8.291  2.1945  2.7417  0.2105
 2779TIP3   OH229971   4.514   0.350   8.582 -0.8259 -0.2665  0.2912
 2779TIP3    H129972   4.428   0.311   8.567 -0.4170 -1.8031  1.7134
 2779TIP3    H229973   4.569   0.315   8.512 -1.5705  1.7367 -1.4302
 2780TIP3   OH229974   4.892   4.517   0.499 -0.7352  0.2641  0.4036
 2780TIP3    H129975   4.891   4.532   0.593 -0.0686  0.0837  0.4468
 2780TIP3    H229976   4.830   4.581   0.464  1.3425  2.6050  0.6674
 2781TIP3   OH229977   5.023   5.557   9.033 -0.4032 -0.1298 -0.5547
 2781TIP3    H129978   4.962   5.548   8.960  0.0704 -1.9260 -0.7871
 2781TIP3    H229979   5.091   5.616   9.000  0.1189 -1.3770 -1.8288
 2782TIP3   OH229980   3.143   4.947   1.690  0.2428 -0.0460 -0.3168
 2782TIP3    H129981   3.224   4.997   1.700  0.1347  0.3737 -1.3644
 2782TIP3    H229982   3.170   4.856   1.690  0.6695  0.0780 -0.2372
 2783TIP3   OH229983   4.860   4.792   3.445 -0.7577  0.8810  0.4862
 2783TIP3    H129984   4.918   4.778   3.519 -0.3666  0.3785  0.0889
 2783TIP3    H229985   4.784   4.736   3.463 -1.5294  2.1816  1.4280
 2784TIP3   OH229986   4.580   6.143   0.866 -0.3657 -0.3000 -0.8101
 2784TIP3    H129987   4.487   6.159   0.850 -0.7029 -1.9684 -0.7387
 2784TIP3    H229988   4.595   6.180   0.953 -0.5990  1.2072 -1.3772
 2785TIP3   OH229989   5.468   5.868   9.065 -0.1501  0.3047  0.1859
 2785TIP3    H129990   5.392   5.911   9.026 -0.1726  0.2281  0.1461
 2785TIP3    H229991   5.491   5.924   9.140  0.1559  0.6950 -0.1914
 2786TIP3   OH229992   1.958   4.424   0.279  0.5435  0.2346 -0.7439
 2786TIP3    H129993   1.945   4.461   0.366 -0.5125 -0.4098 -0.6037
 2786TIP3    H229994   2.031   4.364   0.289  0.1200 -0.2007 -0.1666
 2787TIP3   OH229995   6.081   5.191   9.306 -0.1174 -0.4254 -0.1927
 2787TIP3    H129996   6.083   5.285   9.324  0.2345 -0.7088  1.4344
 2787TIP3    H229997   5.997   5.162   9.342  0.7015 -1.0602  1.2580
 2788TIP3   OH229998   6.033   1.881   9.376 -0.3706 -0.3092  0.3061
 2788TIP3    H129999   6.010   1.807   9.432 -1.0303 -0.1433  0.2691
 2788TIP3    H230000   5.988   1.956   9.416  1.4823  0.3862  1.2154
 2789TIP3   OH230001   4.872   6.157   8.543  0.2761 -0.3838  0.1371
 2789TIP3    H130002   4.890   6.247   8.573  0.0143 -0.2818 -0.0140
 2789TIP3    H230003   4.868   6.164   8.447  1.4292 -0.7647  0.0376
 2790TIP3   OH230004   1.573   4.580   9.975 -0.2002  0.0965  0.6018
 2790TIP3    H130005   1.615   4.554   9.893 -0.2583  1.2108  0.1958
 2790TIP3    H230006   1.528   4.501  10.005  0.7826 -0.6439  0.1684
 2791TIP3   OH230007   0.679   3.511   0.140  0.0586 -0.7826  0.2004
 2791TIP3    H130008   0.615   3.507   0.069 -0.4979 -2.1659  0.7459
 2791TIP3    H230009   0.658   3.592   0.187 -1.1553 -1.0954  0.2238
 2792TIP3   OH230010   2.996   3.573   0.940  0.3395 -0.1691  0.4457
 2792TIP3    H130011   2.962   3.490   0.975 -0.4289 -1.1171 -2.2874
 2792TIP3    H230012   2.918   3.622   0.914  0.8718  0.3701 -0.1533
 2793TIP3   OH230013   2.538   3.126   4.187 -0.1163 -0.1213  0.1706
 2793TIP3    H130014   2.570   3.211   4.219 -0.7659  0.1547  0.1138
 2793TIP3    H230015   2.549   3.131   4.092  0.5158 -0.3874  0.2291
 2794TIP3   OH230016   1.755   3.993   8.548  0.0932  0.1767  0.1043
 2794TIP3    H130017   1.729   4.007   8.457 -2.7864  0.0493  0.8210
 2794TIP3    H230018   1.810   4.068   8.569  3.1827 -1.1197 -2.4287
 2795TIP3   OH230019   5.080   2.900   8.523 -0.0047  0.0616  0.2346
 2795TIP3    H130020   5.031   2.940   8.451 -0.7106 -0.8841  0.1723
 2795TIP3    H230021   5.171   2.906   8.495 -0.1045  1.4205  0.1394
 2796TIP3   OH230022   0.164   0.753   9.463  0.4174 -0.2843 -0.2247
 2796TIP3    H130023   0.111   0.831   9.444  0.7716  0.5832  2.0315
 2796TIP3    H230024   0.210   0.735   9.381 -1.2024  0.6507 -1.3943
 2797TIP3   OH230025   2.285   1.143   7.990 -0.4419 -0.1065  0.0252
 2797TIP3    H130026   2.374   1.162   8.018 -0.3839 -0.4584  0.0788
 2797TIP3    H230027   2.282   1.171   7.898 -0.1297 -0.5556 -0.1252
 2798TIP3   OH230028   3.609   2.768   1.225 -0.2459  0.7836 -0.0805
 2798TIP3    H130029   3.542   2.709   1.190  0.7451 -0.8069  0.5769
 2798TIP3    H230030   3.559   2.842   1.260 -1.3833  1.4867 -2.9459
 2799TIP3   OH230031   4.293   2.626   2.059 -0.1592  0.7135 -0.0383
 2799TIP3    H130032   4.323   2.623   1.968  0.0057 -1.9197  0.0476
 2799TIP3    H230033   4.197   2.620   2.053 -0.1499  0.5665 -0.0413
 2800TIP3   OH230034   2.279   2.684   2.063 -0.1436 -0.8065 -0.2180
 2800TIP3    H130035   2.345   2.691   1.994  0.8891 -0.7853  0.7306
 2800TIP3    H230036   2.207   2.741   2.035  0.1227 -1.0383 -1.4035
 2801TIP3   OH230037   0.584   2.253   2.403  0.6614  0.2508  0.2029
 2801TIP3    H130038   0.573   2.348   2.407 -1.8620 -0.0018  1.1548
 2801TIP3    H230039   0.542   2.227   2.321 -0.1788 -0.1714  0.7508
 2802TIP3   OH230040   5.320   5.809   2.712  0.1763 -0.5319 -0.3937
 2802TIP3    H130041   5.270   5.867   2.769 -2.9859 -1.0429 -2.4439
 2802TIP3    H230042   5.365   5.749   2.772 -2.9429 -1.0480  1.6706
 2803TIP3   OH230043   3.248   2.264   1.199 -0.0359 -0.4494  0.4256
 2803TIP3    H130044   3.186   2.192   1.192 -0.2510 -0.2894  0.6795
 2803TIP3    H230045   3.199   2.335   1.240  0.0024  0.0507 -0.3714
 2804TIP3   OH230046   3.583   0.721   0.426  0.3014  0.1408 -0.0418
 2804TIP3    H130047   3.657   0.779   0.413  0.5790 -0.5495 -1.7983
 2804TIP3    H230048   3.570   0.719   0.521  2.3259  0.5285  0.2811
 2805TIP3   OH230049   0.806   2.385   0.372 -0.2283 -0.2133  0.6346
 2805TIP3    H130050   0.848   2.341   0.445 -1.0395 -2.9097 -0.3946
 2805TIP3    H230051   0.826   2.330   0.296 -0.5332  1.7553 -0.9511
 2806TIP3   OH230052   1.149   0.669   0.175  0.3038  0.3857 -0.1600
 2806TIP3    H130053   1.166   0.575   0.169  1.0921  0.5499 -0.6041
 2806TIP3    H230054   1.187   0.696   0.259  0.4485  0.3868 -0.2266
 2807TIP3   OH230055   5.928   2.305   8.271  0.3764 -0.4216  0.1868
 2807TIP3    H130056   5.915   2.213   8.292 -0.0966 -0.5342 -0.5702
 2807TIP3    H230057   5.901   2.313   8.180 -1.8930  0.9364  0.8926
 2808TIP3   OH230058   5.267   0.175   9.697  1.0641  0.7555 -0.9299
 2808TIP3    H130059   5.342   0.192   9.753  0.3843  0.6881  0.0420
 2808TIP3    H230060   5.191   0.182   9.756  0.4633 -1.4713 -1.3275
 2809TIP3   OH230061   1.195   0.613   0.571  0.4556 -0.4287 -0.3072
 2809TIP3    H130062   1.236   0.643   0.490 -0.4280 -0.3012 -0.7281
 2809TIP3    H230063   1.263   0.563   0.616  1.4101  0.7197 -0.4329
 2810TIP3   OH230064   1.252   5.692   9.135  0.0589  0.2297  0.0384
 2810TIP3    H130065   1.235   5.609   9.180  0.9396  0.7644  1.4153
 2810TIP3    H230066   1.185   5.751   9.167  1.2711  0.8906  1.4938
 2811TIP3   OH230067   3.166   0.423   8.203  0.1692  0.5033  0.1651
 2811TIP3    H130068   3.205   0.431   8.116 -1.8768  1.5615 -0.7396
 2811TIP3    H230069   3.116   0.341   8.200  2.5192 -1.0885  1.4673
 2812TIP3   OH230070   5.905   2.339   2.685  0.2663 -0.2404  0.2182
 2812TIP3    H130071   5.878   2.339   2.593  0.2182 -1.1186  0.2210
 2812TIP3    H230072   5.866   2.419   2.721  0.6552  0.3452 -0.6183
 2813TIP3   OH230073   2.222   3.783   8.517  0.6579 -0.4080  0.5219
 2813TIP3    H130074   2.276   3.748   8.446 -0.4015 -1.2382  0.0865
 2813TIP3    H230075   2.279   3.780   8.594  1.3513 -0.9254  0.0056
 2814TIP3   OH230076   5.043   0.036   2.564 -0.0598  0.3553 -0.1011
 2814TIP3    H130077   5.123   0.082   2.537  0.0387 -0.5937 -1.5062
 2814TIP3    H230078   5.007   0.001   2.483 -2.0092  0.8839  0.4873
 2815TIP3   OH230079   5.559   4.054   3.382 -0.0403  0.3289 -0.1662
 2815TIP3    H130080   5.545   4.148   3.371 -2.3891 -0.1312 -1.9945
 2815TIP3    H230081   5.624   4.047   3.452  1.0665  3.3133 -0.7399
 2816TIP3   OH230082   0.345   2.530   9.371 -0.2657 -0.0007  0.1068
 2816TIP3    H130083   0.385   2.444   9.357  1.9300  0.9578  0.0386
 2816TIP3    H230084   0.324   2.532   9.464 -0.0426 -0.4893  0.1719
 2817TIP3   OH230085   5.746   6.068   2.688  0.0566  0.1412  0.0211
 2817TIP3    H130086   5.712   6.000   2.746  0.4275  0.0132  0.0942
 2817TIP3    H230087   5.671   6.124   2.670  0.0337  0.4528  1.0051
 2818TIP3   OH230088   0.231   3.056   1.816 -0.6345  0.0921  0.0307
 2818TIP3    H130089   0.203   2.965   1.819 -1.1662  0.1340 -1.9345
 2818TIP3    H230090   0.150   3.106   1.824 -0.3413  0.4149  1.1273
 2819TIP3   OH230091   5.667   2.315   9.240 -0.0054  0.4392  0.4899
 2819TIP3    H130092   5.605   2.245   9.218  1.4787 -0.4891 -0.9683
 2819TIP3    H230093   5.712   2.334   9.158  2.2195  0.5026  1.6433
 2820TIP3   OH230094   4.443   0.644   8.618 -0.0219 -0.6026 -0.0540
 2820TIP3    H130095   4.529   0.602   8.622  1.4007  1.9788 -1.1097
 2820TIP3    H230096   4.426   0.653   8.524 -0.7876  0.1743  0.1519
 2821TIP3   OH230097   5.771   6.046   8.848 -0.1407  0.2699  0.4601
 2821TIP3    H130098   5.743   5.955   8.842 -0.6418  0.4885 -0.7422
 2821TIP3    H230099   5.692   6.097   8.832  0.4863  0.8937 -0.8817
 2822TIP3   OH230100   4.746   6.172   3.494 -0.2118  0.0189  0.1311
 2822TIP3    H130101   4.666   6.134   3.532 -1.5580  2.3285 -0.1739
 2822TIP3    H230102   4.747   6.262   3.527  1.5777  0.4260 -0.9343
 2823TIP3   OH230103   5.302   1.750   9.248 -0.1101  0.2407  0.0827
 2823TIP3    H130104   5.350   1.676   9.209 -1.1945 -0.7216  0.5199
 2823TIP3    H230105   5.230   1.767   9.187 -0.0475  0.7319  0.1433
 2824TIP3   OH230106   1.301   3.592   2.211  0.6524  0.6215 -0.2465
 2824TIP3    H130107   1.295   3.504   2.173  1.4861  0.1906  0.5681
 2824TIP3    H230108   1.378   3.630   2.170 -0.0130  1.1910 -0.9969
 2825TIP3   OH230109   1.318   3.069   9.710  0.4355  0.0739 -0.5347
 2825TIP3    H130110   1.325   2.992   9.653 -0.5111  1.6933 -3.0065
 2825TIP3    H230111   1.227   3.096   9.703 -0.2339 -0.6399  3.2961
 2826TIP3   OH230112   5.492   0.688   1.320 -0.2467 -0.2867 -0.5463
 2826TIP3    H130113   5.487   0.743   1.398 -0.6261 -0.6966 -0.2755
 2826TIP3    H230114   5.574   0.713   1.278 -0.3246  0.3549 -0.3303
 2827TIP3   OH230115   1.083   6.289   8.574 -0.0583 -0.0130 -0.1897
 2827TIP3    H130116   1.119   6.312   8.659 -0.0199 -0.2883 -0.1337
 2827TIP3    H230117   1.157   6.298   8.513  0.3762 -1.5395  0.0686
 2828TIP3   OH230118   3.739   0.264   0.911 -0.2541 -0.4818 -0.2957
 2828TIP3    H130119   3.709   0.328   0.847  0.4220  1.0115  0.8085
 2828TIP3    H230120   3.689   0.185   0.892 -2.6690  0.9805 -0.4336
 2829TIP3   OH230121   1.410   0.451   7.358 -0.0912 -0.2826  0.1274
 2829TIP3    H130122   1.354   0.486   7.426 -0.2519 -0.8794  0.3119
 2829TIP3    H230123   1.490   0.504   7.362  0.5291 -1.2688  1.8163
 2830TIP3   OH230124   1.921   2.535   9.535 -0.0466 -0.8523  0.1433
 2830TIP3    H130125   1.886   2.596   9.469  0.5806  0.1754  0.7277
 2830TIP3    H230126   1.907   2.448   9.497  0.9505 -0.2795 -1.6974
 2831TIP3   OH230127   2.636   0.759   1.963  0.5938 -0.1654  0.2548
 2831TIP3    H130128   2.676   0.795   1.883 -0.3534 -1.7412 -0.9776
 2831TIP3    H230129   2.549   0.798   1.966  1.0074  0.7575  1.1811
 2832TIP3   OH230130   2.660   0.062   9.430  0.5815 -0.2492 -0.2163
 2832TIP3    H130131   2.571   0.032   9.413  0.7518 -0.9822  0.1617
 2832TIP3    H230132   2.695   0.083   9.343 -0.5517  1.8062 -0.2318
 2833TIP3   OH230133   3.090   0.925   1.436 -0.1550 -0.3404 -0.2412
 2833TIP3    H130134   3.098   0.961   1.347  0.5166  2.3112  0.7850
 2833TIP3    H230135   3.073   0.832   1.423  1.2901 -0.3208 -3.1413
 2834TIP3   OH230136   1.403   3.878   0.025  0.3375 -0.3104  0.1590
 2834TIP3    H130137   1.478   3.937   0.032  0.1509  0.0741 -0.8471
 2834TIP3    H230138   1.400   3.855  -0.068 -0.8053 -0.2867  0.1768
 2835TIP3   OH230139   2.811   4.661   1.829 -0.3296  0.0259  0.5620
 2835TIP3    H130140   2.843   4.633   1.743 -0.6251 -1.2241  0.8388
 2835TIP3    H230141   2.850   4.747   1.842  1.2503 -0.5608 -0.0234
 2836TIP3   OH230142   0.027   5.421   8.469  0.0784 -0.3577 -0.4873
 2836TIP3    H130143   0.099   5.360   8.482  1.0711  0.7760 -0.4196
 2836TIP3    H230144  -0.042   5.391   8.528  1.0982 -0.5690  0.6269
 2837TIP3   OH230145   5.411   5.807   8.646 -0.0834 -0.7075 -0.1454
 2837TIP3    H130146   5.339   5.744   8.645  1.7556 -2.9034  0.4232
 2837TIP3    H230147   5.479   5.768   8.592  0.8684  1.1863 -0.4209
 2838TIP3   OH230148   3.712   5.731   9.293 -0.3016  0.0922 -0.0018
 2838TIP3    H130149   3.756   5.696   9.216 -1.6541 -1.7056 -0.0448
 2838TIP3    H230150   3.737   5.672   9.364 -0.9015  0.3407  0.4257
 2839TIP3   OH230151   4.173   5.262   3.867  0.1104 -0.4953 -0.5413
 2839TIP3    H130152   4.259   5.268   3.909 -0.7698  0.6207  1.2554
 2839TIP3    H230153   4.131   5.345   3.887 -0.5059  0.0094 -3.5488
 2840TIP3   OH230154   3.750   2.234   8.559  0.7830  0.2418  0.2176
 2840TIP3    H130155   3.773   2.320   8.595 -1.5167  0.9817  0.0976
 2840TIP3    H230156   3.834   2.192   8.540  1.9875  1.8791  1.6274
 2841TIP3   OH230157   5.322   3.922   9.694  0.2328  0.1028  0.2242
 2841TIP3    H130158   5.352   3.873   9.770  3.7124  0.7061 -0.5770
 2841TIP3    H230159   5.341   4.014   9.715  1.8550  0.2378 -1.5061
 2842TIP3   OH230160   1.295   0.687   8.712  0.0073  0.3990 -0.1966
 2842TIP3    H130161   1.340   0.732   8.640 -0.5184  1.2561 -0.0107
 2842TIP3    H230162   1.215   0.739   8.726  0.0446  0.1790  0.9309
 2843TIP3   OH230163   5.455   0.168   2.710  0.0307  0.5487 -0.0949
 2843TIP3    H130164   5.532   0.211   2.673  0.2787  0.3917  0.2400
 2843TIP3    H230165   5.397   0.240   2.737 -0.9818  0.7156 -2.4455
 2844TIP3   OH230166   3.052   2.115   9.970 -0.3779  0.4481  0.4400
 2844TIP3    H130167   3.116   2.082  10.032 -1.7161 -2.4981  0.3839
 2844TIP3    H230168   3.072   2.069   9.888 -1.3008  1.0257 -0.1286
 2845TIP3   OH230169   0.973   2.264   0.838 -0.0535 -0.2989  0.1772
 2845TIP3    H130170   0.935   2.350   0.858 -0.2128 -0.7102  1.7761
 2845TIP3    H230171   0.917   2.202   0.884  0.6677 -1.1797 -0.1117
 2846TIP3   OH230172   6.004   1.059   2.500  0.6078 -0.3795 -0.1031
 2846TIP3    H130173   5.963   1.094   2.580  1.7850  1.3079 -0.1680
 2846TIP3    H230174   5.967   0.972   2.490 -0.0812 -0.3774  1.9190
 2847TIP3   OH230175   3.212   6.287   1.286  0.5196 -0.4771 -0.3732
 2847TIP3    H130176   3.164   6.257   1.363 -0.2988 -0.5436 -0.8918
 2847TIP3    H230177   3.296   6.317   1.320 -0.0677  0.0833  0.6231
 2848TIP3   OH230178   5.157   4.802   2.434  0.2855 -0.6824 -0.2949
 2848TIP3    H130179   5.131   4.710   2.434 -0.7631 -0.4263  1.4252
 2848TIP3    H230180   5.075   4.850   2.437  0.8453  0.2754  0.2886
 2849TIP3   OH230181   1.461   4.350   0.052 -0.1620 -0.2388 -0.2897
 2849TIP3    H130182   1.381   4.303   0.077  0.0545 -0.5541 -0.1692
 2849TIP3    H230183   1.496   4.383   0.134 -0.5145  0.4740 -0.4181
 2850TIP3   OH230184   5.653   4.766   1.335 -0.2975 -0.2571  0.0327
 2850TIP3    H130185   5.657   4.852   1.294  0.5043 -0.0588  0.5130
 2850TIP3    H230186   5.745   4.741   1.348 -0.3638 -2.3160 -2.4463
 2851TIP3   OH230187   6.232   2.286   1.127  0.2090 -0.4736  0.3826
 2851TIP3    H130188   6.306   2.227   1.116  0.3980 -0.3490  0.9208
 2851TIP3    H230189   6.183   2.280   1.045 -0.3127 -2.1154  0.7741
 2852TIP3   OH230190   5.573   0.327   1.256 -0.0490  0.0096 -0.1887
 2852TIP3    H130191   5.502   0.365   1.307  0.2332 -0.1625  0.3405
 2852TIP3    H230192   5.529   0.276   1.188 -0.4350 -0.0583  0.1039
 2853TIP3   OH230193   1.543   4.521   1.249  0.4169  0.1861  0.3685
 2853TIP3    H130194   1.524   4.550   1.160  1.2669 -0.5507 -0.0768
 2853TIP3    H230195   1.627   4.563   1.271  0.3194  0.1921  0.7423
 2854TIP3   OH230196   0.245   5.330   0.170  0.4392 -0.0983 -0.1345
 2854TIP3    H130197   0.203   5.277   0.101  1.9946 -1.0290 -0.3972
 2854TIP3    H230198   0.317   5.374   0.126  0.1959  0.9528  0.4741
 2855TIP3   OH230199   2.096   5.552   9.898 -0.1976 -0.7061  0.2559
 2855TIP3    H130200   2.156   5.479   9.916 -0.8852 -2.4316 -3.5937
 2855TIP3    H230201   2.120   5.583   9.811 -1.9606  1.6770  0.5132
 2856TIP3   OH230202   0.126   5.668   1.449 -0.2899  0.3425 -0.4362
 2856TIP3    H130203   0.166   5.582   1.437  0.4917  0.5593  0.4820
 2856TIP3    H230204   0.054   5.671   1.385 -0.1724 -0.8855 -0.6381
 2857TIP3   OH230205   2.209   3.890   3.994  0.0729  0.6772  0.3975
 2857TIP3    H130206   2.254   3.960   3.947  3.2087 -0.9080  0.7194
 2857TIP3    H230207   2.190   3.824   3.927  0.6736  0.2427  0.6346
 2858TIP3   OH230208   1.325   5.257   9.340  0.1212 -0.5085  0.5173
 2858TIP3    H130209   1.410   5.286   9.372  0.4287 -0.6361 -0.1547
 2858TIP3    H230210   1.326   5.279   9.246 -0.1075 -1.6033  0.2438
 2859TIP3   OH230211   5.963   4.091   3.641 -0.5818 -0.4285 -0.0973
 2859TIP3    H130212   6.018   4.153   3.689 -0.4980  1.3944 -2.3787
 2859TIP3    H230213   6.025   4.025   3.610 -0.3866 -0.7294  0.8950
 2860TIP3   OH230214   2.912   0.826   9.869 -0.3119 -0.1892  0.9747
 2860TIP3    H130215   2.944   0.809   9.957  3.2926  0.1895 -0.0937
 2860TIP3    H230216   2.865   0.910   9.876  0.3856  0.1062  2.4252
 2861TIP3   OH230217   3.600   1.565   9.647  0.0657 -0.2978 -0.0938
 2861TIP3    H130218   3.530   1.613   9.603  0.6369 -1.4987 -2.4787
 2861TIP3    H230219   3.571   1.473   9.644  1.6967 -0.8288 -1.1952
 2862TIP3   OH230220   2.169   3.222   9.755 -0.5346 -0.3394 -0.2815
 2862TIP3    H130221   2.114   3.149   9.726 -0.7991 -0.4361  0.4597
 2862TIP3    H230222   2.126   3.256   9.833  1.2331 -1.3824  1.2392
 2863TIP3   OH230223   5.890   3.998   0.056  0.4541 -0.3269  0.3529
 2863TIP3    H130224   5.904   3.910   0.090 -0.2293 -1.1163 -1.2934
 2863TIP3    H230225   5.954   4.007  -0.015  0.6227  0.5689  0.6076
 2864TIP3   OH230226   0.426   5.192   7.824  0.7666 -0.0565  0.0739
 2864TIP3    H130227   0.512   5.233   7.823  0.7120  0.1105  1.3085
 2864TIP3    H230228   0.371   5.249   7.770  0.4511  2.0974  2.4675
 2865TIP3   OH230229   4.847   4.443   3.326 -0.1680 -0.0643 -0.3263
 2865TIP3    H130230   4.912   4.512   3.313 -1.3829  1.5209  1.5989
 2865TIP3    H230231   4.764   4.488   3.338 -1.1113 -1.8766  0.4608
 2866TIP3   OH230232   6.249   1.047   0.695 -0.0262  0.3054 -0.4652
 2866TIP3    H130233   6.250   1.037   0.790  0.0713  1.8377 -0.2735
 2866TIP3    H230234   6.316   0.987   0.663 -1.8600 -2.2244  0.1779
 2867TIP3   OH230235   1.249   0.076   8.754 -0.3151 -0.2360 -0.3107
 2867TIP3    H130236   1.238   0.015   8.827  0.0177  0.9654  0.7905
 2867TIP3    H230237   1.343   0.091   8.750 -0.4813  1.0421  0.1713
 2868TIP3   OH230238   5.331   4.117   2.887  0.1024 -0.0207 -0.4416
 2868TIP3    H130239   5.262   4.182   2.900  0.4779  0.2311  0.3389
 2868TIP3    H230240   5.332   4.101   2.792  0.2234  1.3397 -0.6792
 2869TIP3   OH230241   0.127   0.239   1.275 -0.2337  0.0640  0.1134
 2869TIP3    H130242   0.170   0.299   1.214  0.2524  0.4005  0.7727
 2869TIP3    H230243   0.136   0.152   1.234 -0.5669  0.3763 -0.6386
 2870TIP3   OH230244   1.342   0.525   1.963  0.3636  0.1944 -0.3372
 2870TIP3    H130245   1.316   0.537   2.055  0.4837  0.0233 -0.2796
 2870TIP3    H230246   1.363   0.432   1.957 -0.1925  0.0853 -0.6797
 2871TIP3   OH230247   1.891   0.794   8.692  0.1219 -0.2792 -0.0517
 2871TIP3    H130248   1.831   0.862   8.722 -0.3798 -0.8564  0.2592
 2871TIP3    H230249   1.859   0.770   8.606 -0.4988 -1.0576  0.3897
 2872TIP3   OH230250   4.711   3.677   2.519  0.2393 -0.0787  0.0675
 2872TIP3    H130251   4.640   3.648   2.462  0.8852 -1.3581 -0.1130
 2872TIP3    H230252   4.680   3.661   2.607  0.8448 -2.0620 -0.0347
 2873TIP3   OH230253   2.880   3.835   1.112 -0.5450 -0.2641 -0.3848
 2873TIP3    H130254   2.789   3.837   1.140 -0.8768 -1.9989 -1.2297
 2873TIP3    H230255   2.898   3.743   1.093  0.6174  0.3473 -2.6436
 2874TIP3   OH230256   4.635   1.324   0.621 -0.5035  0.3578 -0.0694
 2874TIP3    H130257   4.579   1.246   0.631  3.4439 -2.6514  1.2626
 2874TIP3    H230258   4.597   1.388   0.681 -1.0535 -2.5202  2.9773
 2875TIP3   OH230259   6.267   1.540   9.645  0.4402 -0.3615  0.0255
 2875TIP3    H130260   6.294   1.544   9.553 -1.3273  1.6168 -0.4857
 2875TIP3    H230261   6.177   1.507   9.643  1.0987 -2.4670  1.3050
 2876TIP3   OH230262   3.805   6.239   9.450  0.4856  0.7848  0.5705
 2876TIP3    H130263   3.853   6.279   9.377  0.5237  0.5207  0.4482
 2876TIP3    H230264   3.804   6.145   9.429 -0.2097  0.8048  0.5057
 2877TIP3   OH230265   2.564   2.566   0.943  0.1210 -0.3371 -0.2055
 2877TIP3    H130266   2.540   2.477   0.917  3.1612 -1.1793 -0.5095
 2877TIP3    H230267   2.610   2.602   0.868  0.1736  0.9714  0.4284
 2878TIP3   OH230268   2.185   4.173   8.010 -0.2145 -0.1966 -0.3959
 2878TIP3    H130269   2.113   4.214   7.963  0.4001  0.0653 -1.1227
 2878TIP3    H230270   2.259   4.231   7.997  0.0778 -0.3351  0.5560
 2879TIP3   OH230271   2.310   1.213   0.816  0.4684  0.1147 -0.3714
 2879TIP3    H130272   2.364   1.289   0.795 -0.3642  0.8839  0.1940
 2879TIP3    H230273   2.237   1.249   0.867  0.3961 -1.1483  0.4559
 2880TIP3   OH230274   2.854   4.233   2.152 -0.9900  0.4006  0.1428
 2880TIP3    H130275   2.909   4.311   2.161  0.3864 -0.6383  1.2128
 2880TIP3    H230276   2.797   4.236   2.229 -0.6660  0.1652  0.3967
 2881TIP3   OH230277   3.327   3.788   9.124  0.0841  0.3308  0.1518
 2881TIP3    H130278   3.326   3.800   9.029  3.0058  0.6325  0.0757
 2881TIP3    H230279   3.369   3.868   9.157  1.6716 -0.9672  1.3979
 2882TIP3   OH230280   6.367   3.213   8.601 -0.4117  0.8495 -0.5712
 2882TIP3    H130281   6.435   3.277   8.581 -1.4532  1.7780 -1.2670
 2882TIP3    H230282   6.382   3.142   8.539  0.6769  0.4441  0.1236
 2883TIP3   OH230283   1.129   2.014   0.474  0.2089  0.1541 -0.2563
 2883TIP3    H130284   1.215   1.975   0.460  1.0794  1.7749  0.3488
 2883TIP3    H230285   1.124   2.031   0.568 -0.8300 -0.0534 -0.2616
 2884TIP3   OH230286   4.926   0.428   8.627 -0.2935 -0.0430  0.0525
 2884TIP3    H130287   5.010   0.430   8.673 -0.0230  0.2768 -0.4394
 2884TIP3    H230288   4.947   0.386   8.543 -0.0656  2.2665 -1.1194
 2885TIP3   OH230289   2.333   4.368   0.624 -0.0508  0.4112  0.2342
 2885TIP3    H130290   2.389   4.308   0.575  0.0755  0.3854  0.4104
 2885TIP3    H230291   2.308   4.435   0.560  1.9451  1.6358  0.6831
 2886TIP3   OH230292   4.675   1.681   2.457 -0.0264  0.2187 -0.2937
 2886TIP3    H130293   4.696   1.592   2.429 -0.0130  0.5483 -1.3595
 2886TIP3    H230294   4.612   1.669   2.529  1.6481 -0.7004  1.0887
 2887TIP3   OH230295   5.181   1.279   7.906  0.1996 -0.1995  0.0978
 2887TIP3    H130296   5.197   1.309   7.817 -0.3161  2.8767  0.9343
 2887TIP3    H230297   5.086   1.265   7.910 -0.1672  2.0392  0.7195
 2888TIP3   OH230298   0.532   5.519   9.016  0.7805 -0.4754 -0.8221
 2888TIP3    H130299   0.575   5.599   9.048  0.1543  0.3621 -2.0044
 2888TIP3    H230300   0.472   5.495   9.086  0.4087  0.5478 -0.7751
 2889TIP3   OH230301   2.848   1.677   8.015  0.1955 -0.1403 -0.1633
 2889TIP3    H130302   2.838   1.582   8.014  0.1907 -0.1363 -0.3945
 2889TIP3    H230303   2.940   1.692   8.037  0.1629 -0.1964  0.0124
 2890TIP3   OH230304   4.403   3.054   9.841 -1.1483  0.1192  0.1552
 2890TIP3    H130305   4.412   2.993   9.768  1.0139  0.0296  0.4219
 2890TIP3    H230306   4.352   3.127   9.806 -0.9847 -0.3613 -1.1369
 2891TIP3   OH230307   3.007   0.963   1.872  0.0493  0.6029  0.4921
 2891TIP3    H130308   3.056   0.985   1.792  0.4523 -0.0417  0.5601
 2891TIP3    H230309   2.991   1.048   1.914  0.0060  0.9304 -0.1677
 2892TIP3   OH230310   0.457   0.821   2.546 -0.3644  0.5338  0.1218
 2892TIP3    H130311   0.491   0.734   2.528 -0.7480  0.6496 -1.3058
 2892TIP3    H230312   0.446   0.861   2.459 -1.9485  1.3089  0.6385
 2893TIP3   OH230313   0.483   1.067   0.705  0.4653 -0.1267 -0.1495
 2893TIP3    H130314   0.504   0.974   0.714  0.4754 -0.2049 -0.9583
 2893TIP3    H230315   0.516   1.106   0.786  2.5654 -0.4502 -0.7915
 2894TIP3   OH230316   0.531   2.828   0.016  0.6194  0.2733  0.1218
 2894TIP3    H130317   0.614   2.810  -0.028  0.8657  3.2048 -0.8635
 2894TIP3    H230318   0.556   2.853   0.105  1.0322  2.2505 -0.4786
 2895TIP3   OH230319   4.982   5.678   8.352  0.0914 -0.4550  0.4802
 2895TIP3    H130320   4.983   5.768   8.321 -2.4476 -0.1797  0.9557
 2895TIP3    H230321   4.977   5.686   8.447 -0.0502 -1.0729  0.5283
 2896TIP3   OH230322   6.232   0.470   9.903  0.1454  0.4520 -0.1133
 2896TIP3    H130323   6.318   0.429   9.895 -0.8093 -1.5888 -0.3218
 2896TIP3    H230324   6.221   0.518   9.821  1.5329  1.7258  0.3900
 2897TIP3   OH230325   5.040   2.354   9.296 -0.1201  0.2012 -0.1166
 2897TIP3    H130326   5.121   2.369   9.345 -0.0986 -0.1988 -0.0279
 2897TIP3    H230327   4.985   2.303   9.355  0.5484 -1.7605 -1.0927
 2898TIP3   OH230328   2.042   3.318   9.019  0.0634  0.2998  0.2737
 2898TIP3    H130329   2.012   3.393   9.069  1.8687 -0.0412  2.0272
 2898TIP3    H230330   1.994   3.244   9.056 -1.6757  0.5334 -1.4163
 2899TIP3   OH230331   3.628   3.578   0.628  0.1209  0.2510  0.1916
 2899TIP3    H130332   3.630   3.663   0.673  0.3067  0.3247  0.0496
 2899TIP3    H230333   3.615   3.514   0.698 -0.9295  0.4590  0.2017
 2900TIP3   OH230334   0.373   1.987   9.419  0.1774  0.1089 -0.3974
 2900TIP3    H130335   0.302   1.937   9.380  0.5129 -0.3623 -0.4212
 2900TIP3    H230336   0.422   1.922   9.470  1.5398  0.0682 -1.6903
 2901TIP3   OH230337   0.814   1.647   9.958 -0.3239  0.6230 -0.4640
 2901TIP3    H130338   0.802   1.584  10.028 -0.9685  1.9770  0.6971
 2901TIP3    H230339   0.866   1.601   9.893 -0.0051 -0.7920  0.7390
 2902TIP3   OH230340   4.181   0.208   1.623 -0.2423 -0.1687 -0.4321
 2902TIP3    H130341   4.235   0.134   1.593 -0.0053 -0.0046 -0.4083
 2902TIP3    H230342   4.233   0.286   1.602 -0.7768  0.0306 -1.0671
 2903TIP3   OH230343   4.709   1.678   8.414  0.1288  0.3551 -0.1100
 2903TIP3    H130344   4.673   1.759   8.451 -0.4724  0.1418 -0.2118
 2903TIP3    H230345   4.660   1.665   8.333 -2.5717 -2.1110  1.6874
 2904TIP3   OH230346   3.347   2.958   2.289 -0.6772 -0.2094 -0.4317
 2904TIP3    H130347   3.344   2.862   2.295  0.9043 -0.1685  2.4971
 2904TIP3    H230348   3.437   2.978   2.263 -0.5418  0.4774  0.5014
 2905TIP3   OH230349   2.042   3.867   3.341  0.2659 -0.4180 -0.0147
 2905TIP3    H130350   2.058   3.854   3.434 -1.4446 -0.8572  0.2528
 2905TIP3    H230351   1.991   3.948   3.336  1.2699  0.2014 -0.6877
 2906TIP3   OH230352   3.944   5.893   1.013 -0.6383 -0.0602 -0.2160
 2906TIP3    H130353   3.968   5.950   1.085 -0.8035  0.8561 -0.8679
 2906TIP3    H230354   3.938   5.951   0.937 -0.3248 -1.0186 -0.9996
 2907TIP3   OH230355   2.864   1.937   2.108  0.4861  0.2784 -0.3240
 2907TIP3    H130356   2.844   1.910   2.019 -0.8161 -0.8659  0.2617
 2907TIP3    H230357   2.959   1.935   2.114  0.6378  1.1718 -1.8997
 2908TIP3   OH230358   5.480   6.166   2.970  0.0484  0.1347  0.1614
 2908TIP3    H130359   5.459   6.226   2.898  1.8609 -0.0131 -0.5552
 2908TIP3    H230360   5.545   6.213   3.023 -0.6994 -0.0639  1.2813
 2909TIP3   OH230361   0.530   1.088   7.400 -0.0969 -0.5048 -0.5444
 2909TIP3    H130362   0.466   1.030   7.440 -0.7331 -0.8951 -2.0676
 2909TIP3    H230363   0.521   1.074   7.306 -0.5186  2.2843 -1.0210
 2910TIP3   OH230364   4.296   5.904   3.940  0.1111  0.2830  0.1010
 2910TIP3    H130365   4.203   5.899   3.962  0.2769  0.0631  0.7928
 2910TIP3    H230366   4.303   5.862   3.854 -0.6087  1.4677 -0.5586
 2911TIP3   OH230367   4.177   5.210   0.789 -0.8796  0.1698  0.3288
 2911TIP3    H130368   4.240   5.190   0.859 -0.5161  0.5343  0.1061
 2911TIP3    H230369   4.095   5.169   0.819 -0.3531 -0.9897  0.2509
 2912TIP3   OH230370   0.440   6.359   2.231  0.0085 -0.0753 -0.3413
 2912TIP3    H130371   0.417   6.338   2.321  1.0140 -0.0369 -0.0583
 2912TIP3    H230372   0.484   6.444   2.236  2.7118 -1.3515 -0.4109
 2913TIP3   OH230373   1.649   3.989   8.959 -0.0980  0.0175 -0.1630
 2913TIP3    H130374   1.655   4.040   9.040 -3.1760 -2.7021  2.0345
 2913TIP3    H230375   1.591   4.040   8.903 -1.6870 -0.1250  1.2753
 2914TIP3   OH230376   3.438   0.428   2.395  0.3333 -0.0431  0.3671
 2914TIP3    H130377   3.506   0.467   2.340 -0.5906  1.4522  0.2259
 2914TIP3    H230378   3.406   0.353   2.344  0.2652  0.6447 -0.6184
 2915TIP3   OH230379   2.972   3.185   1.887  0.2888  0.6751 -0.1367
 2915TIP3    H130380   3.036   3.254   1.869  1.0874 -0.0362 -0.0852
 2915TIP3    H230381   3.025   3.107   1.906 -0.5806  0.3202  0.9468
 2916TIP3   OH230382   5.623   3.635   8.523  0.1841  0.3784 -0.2102
 2916TIP3    H130383   5.697   3.588   8.562 -0.7092 -1.4224 -0.5792
 2916TIP3    H230384   5.616   3.600   8.434 -0.9329  0.7471 -0.2835
 2917TIP3   OH230385   1.502   0.238   0.227  0.6319  0.5844  0.0971
 2917TIP3    H130386   1.412   0.229   0.197  0.7230  0.6438 -0.1953
 2917TIP3    H230387   1.553   0.252   0.148  1.3312 -2.4520 -0.1377
 2918TIP3   OH230388   3.316   1.039   2.087  0.0466  0.0604  0.1164
 2918TIP3    H130389   3.392   1.097   2.081 -0.9187  1.2020 -3.1162
 2918TIP3    H230390   3.249   1.092   2.130  0.2102  0.1121  0.3059
 2919TIP3   OH230391   1.317   0.983   0.109  0.3634 -0.7949  0.5443
 2919TIP3    H130392   1.392   0.992   0.167  0.8434 -0.9860 -0.0307
 2919TIP3    H230393   1.336   0.904   0.058  0.3086 -0.2288 -0.3695
 2920TIP3   OH230394   4.876   1.377   8.927  0.5295  0.2472  0.3021
 2920TIP3    H130395   4.961   1.362   8.968 -0.5571 -1.4723  2.1234
 2920TIP3    H230396   4.881   1.334   8.842  1.3612 -0.1582  0.5496
 2921TIP3   OH230397   3.766   4.069   0.776 -0.1467  0.2874 -0.1375
 2921TIP3    H130398   3.768   3.979   0.743 -1.8226 -0.7714  2.3371
 2921TIP3    H230399   3.696   4.111   0.726  0.2257  0.0223 -0.8827
 2922TIP3   OH230400   2.172   1.557   9.753  0.3236  0.5092 -0.4282
 2922TIP3    H130401   2.250   1.610   9.767  0.9624  0.2107 -2.4524
 2922TIP3    H230402   2.120   1.568   9.832  1.8846  1.6326  0.4890
 2923TIP3   OH230403   1.184   1.619   0.335 -0.0424 -0.2829 -0.4947
 2923TIP3    H130404   1.253   1.559   0.364 -0.3853 -0.0040  0.9942
 2923TIP3    H230405   1.213   1.648   0.249  1.6248 -0.3235  0.0084
 2924TIP3   OH230406   4.480   4.522   2.476  0.0023  0.0665  0.0306
 2924TIP3    H130407   4.500   4.442   2.525 -1.5675  0.2481  1.0286
 2924TIP3    H230408   4.489   4.592   2.540  1.0642  0.6921 -0.7635
 2925TIP3   OH230409   0.577   0.495   8.142 -0.8772 -0.4621  0.7989
 2925TIP3    H130410   0.549   0.490   8.051  0.8820  0.0228  0.1697
 2925TIP3    H230411   0.605   0.587   8.153  2.2613 -1.2769  0.6858
 2926TIP3   OH230412   0.288   2.814   0.892 -0.3859  0.0225  0.5528
 2926TIP3    H130413   0.318   2.878   0.955  1.1194 -0.0780 -0.0183
 2926TIP3    H230414   0.273   2.734   0.943  0.4781  0.0404  0.8493
 2927TIP3   OH230415   5.494   5.259  10.019  0.1768 -0.0102  0.0496
 2927TIP3    H130416   5.514   5.278   9.927  0.4866  0.5096  0.2210
 2927TIP3    H230417   5.518   5.339  10.065  1.5297 -0.8101  0.8036
 2928TIP3   OH230418   5.651   0.420   2.389  0.1091 -0.3766  0.3632
 2928TIP3    H130419   5.645   0.392   2.297  0.7621  1.0092 -0.1125
 2928TIP3    H230420   5.569   0.468   2.404  0.4179  0.2006  0.2191
 2929TIP3   OH230421   1.418   5.298   1.160  0.8526 -0.1633 -0.1843
 2929TIP3    H130422   1.333   5.268   1.127  0.4974 -1.1167  1.5187
 2929TIP3    H230423   1.410   5.293   1.255  2.2518  1.3804  0.0459
 2930TIP3   OH230424   0.004   3.974   1.643 -0.0354 -0.5010 -0.3105
 2930TIP3    H130425   0.035   3.958   1.733 -1.2768 -0.3587  0.1547
 2930TIP3    H230426  -0.063   3.907   1.628 -0.9336  0.4355 -0.5625
 2931TIP3   OH230427   1.102   3.727   8.988 -0.3079 -0.3475 -0.3232
 2931TIP3    H130428   1.111   3.779   8.908 -0.0518  0.7532  0.4102
 2931TIP3    H230429   1.091   3.637   8.956 -0.4904  0.1058 -1.6015
 2932TIP3   OH230430   4.690   5.397   8.936 -0.4087 -0.3865  0.3375
 2932TIP3    H130431   4.621   5.372   8.875 -0.6410 -0.0175  0.4456
 2932TIP3    H230432   4.760   5.431   8.881 -0.3313 -0.7151  0.2315
 2933TIP3   OH230433   3.356   1.590   9.926 -0.1850 -0.1238 -0.1349
 2933TIP3    H130434   3.436   1.543   9.951  0.5879  0.7606 -0.9015
 2933TIP3    H230435   3.386   1.677   9.899 -1.4185  0.2536 -0.3466
 2934TIP3   OH230436   3.388   2.117   1.462  0.0632  0.6293  0.0783
 2934TIP3    H130437   3.429   2.090   1.544  0.5988  1.8048  0.2254
 2934TIP3    H230438   3.422   2.205   1.447  0.3103  0.2732 -1.6315
 2935TIP3   OH230439   3.180   3.917   2.801 -0.2489 -0.5054  0.6065
 2935TIP3    H130440   3.147   3.962   2.724 -0.5265 -0.5661  0.6874
 2935TIP3    H230441   3.236   3.848   2.767 -1.1937 -1.2017  0.4151
 2936TIP3   OH230442   5.557   1.158   9.803 -0.5338 -0.2803  0.0223
 2936TIP3    H130443   5.593   1.187   9.886 -1.1589 -0.9761  0.5446
 2936TIP3    H230444   5.462   1.166   9.814 -0.6135  1.8316 -1.4293
 2937TIP3   OH230445   4.574   5.721   2.018 -0.2503  0.1905  0.0360
 2937TIP3    H130446   4.479   5.710   2.021 -0.2049  0.0831  1.1917
 2937TIP3    H230447   4.588   5.810   2.050  0.1031 -0.1560  0.8586
 2938TIP3   OH230448   2.909   4.915   1.832  0.0328 -0.1366  0.1059
 2938TIP3    H130449   2.881   4.992   1.880 -0.1158  0.4818 -0.9272
 2938TIP3    H230450   2.992   4.941   1.791 -0.5665 -0.1218 -1.1444
 2939TIP3   OH230451   3.000   0.389   0.939 -0.2362  0.3170 -0.2377
 2939TIP3    H130452   2.938   0.442   0.990 -1.2215  0.0213 -1.1029
 2939TIP3    H230453   3.025   0.318   0.999  1.4538  1.9507  1.0958
 2940TIP3   OH230454   0.410   4.506   9.418  0.1295 -0.6865  0.2113
 2940TIP3    H130455   0.347   4.537   9.484 -2.7727  1.6787 -3.2955
 2940TIP3    H230456   0.478   4.574   9.418 -0.6797  0.1573 -0.1980
 2941TIP3   OH230457   3.233   2.727   1.391  0.6002 -0.3183  0.0337
 2941TIP3    H130458   3.275   2.808   1.420 -0.2052 -0.1139  0.6521
 2941TIP3    H230459   3.306   2.672   1.360  1.3803 -0.1318  1.4574
 2942TIP3   OH230460   5.870   1.992   8.287  0.0777 -0.0286 -0.2330
 2942TIP3    H130461   5.783   1.955   8.271 -1.0928  2.2686  0.4226
 2942TIP3    H230462   5.909   2.001   8.201 -0.2843 -1.1120 -0.5321
 2943TIP3   OH230463   6.043   6.354   1.253 -0.3167 -0.1155 -0.3335
 2943TIP3    H130464   6.051   6.283   1.189 -0.3255 -1.4493  1.1141
 2943TIP3    H230465   5.968   6.405   1.222 -0.2073 -0.6080 -1.4920
 2944TIP3   OH230466   4.763   3.977   1.824  0.4844  0.2281  0.3486
 2944TIP3    H130467   4.789   3.945   1.911  2.3543 -0.5478 -0.4419
 2944TIP3    H230468   4.704   3.910   1.790  0.5918  0.0074  0.5969
 2945TIP3   OH230469   4.433   1.912   0.459 -0.7004 -0.4318 -0.2159
 2945TIP3    H130470   4.365   1.875   0.404 -0.7731 -0.9130  0.1935
 2945TIP3    H230471   4.391   1.987   0.502 -1.5052 -1.7258  1.3404
 2946TIP3   OH230472   2.014   0.940   1.104 -0.7131  0.2698  0.4863
 2946TIP3    H130473   2.053   0.996   1.036  0.7856 -1.3004 -0.0222
 2946TIP3    H230474   2.080   0.935   1.173 -0.7980 -0.8562  0.5135
 2947TIP3   OH230475   0.594   0.001   0.725  0.3404  0.2616  0.0728
 2947TIP3    H130476   0.535  -0.074   0.729  0.4770  0.2054  2.6316
 2947TIP3    H230477   0.671  -0.031   0.678 -0.9676 -0.1293 -1.8983
 2948TIP3   OH230478   5.104   0.765   9.514 -0.2235  0.1911 -0.6256
 2948TIP3    H130479   5.106   0.857   9.487 -1.9217  0.0824 -1.2426
 2948TIP3    H230480   5.168   0.722   9.457  0.4921  0.9596 -0.4148
 2949TIP3   OH230481   0.675   5.147   2.153  0.6118  0.2045  0.6518
 2949TIP3    H130482   0.770   5.138   2.161  0.5912 -0.8731 -0.1186
 2949TIP3    H230483   0.641   5.135   2.242  1.0568 -1.5824  0.6215
 2950TIP3   OH230484   4.168   1.746   9.304  0.2327 -0.4717 -1.0564
 2950TIP3    H130485   4.161   1.652   9.322 -1.2579  0.0139  1.2490
 2950TIP3    H230486   4.227   1.779   9.372 -1.7046  0.6743  0.1878
 2951TIP3   OH230487   3.517   3.069   0.510 -0.1218  0.3550  0.3519
 2951TIP3    H130488   3.538   2.981   0.479 -2.4129 -0.3589  0.5915
 2951TIP3    H230489   3.509   3.060   0.605 -0.5345  0.7728  0.3633
 2952TIP3   OH230490   4.249   1.265   0.985  0.4643  0.3946 -0.3275
 2952TIP3    H130491   4.194   1.250   1.062  0.0393  0.4903 -0.6094
 2952TIP3    H230492   4.288   1.351   1.000 -0.7027  1.0342 -0.8582
 2953TIP3   OH230493   5.837   0.473   0.345  0.6645  0.0610  0.1132
 2953TIP3    H130494   5.929   0.483   0.366  0.8800  0.7189 -1.0254
 2953TIP3    H230495   5.800   0.561   0.354  0.9069  0.5440 -2.6024
 2954TIP3   OH230496   4.577   4.726   3.646 -0.3475  0.6299  0.5693
 2954TIP3    H130497   4.538   4.744   3.732 -0.6036 -0.4116  0.6914
 2954TIP3    H230498   4.622   4.807   3.623 -1.7126  1.5303  0.8952
 2955TIP3   OH230499   6.081   4.292   9.515  0.1209 -0.1501 -0.1948
 2955TIP3    H130500   6.025   4.265   9.588  1.8988 -0.6431  1.0615
 2955TIP3    H230501   6.099   4.210   9.467 -1.3299  0.2238 -1.4633
 2956TIP3   OH230502   2.402   1.620   7.606 -0.0799 -0.7607 -0.2069
 2956TIP3    H130503   2.449   1.538   7.591 -0.5319 -1.2848  1.1227
 2956TIP3    H230504   2.346   1.602   7.682  0.4720  1.0597  0.6765
 2957TIP3   OH230505   4.145   6.089   1.961 -0.4164  0.0005 -0.5057
 2957TIP3    H130506   4.121   6.181   1.965 -0.7490 -0.1160  0.3821
 2957TIP3    H230507   4.078   6.044   2.013 -0.0902 -0.6987 -0.6798
 2958TIP3   OH230508   0.026   2.511   9.815  0.6015 -0.4683 -0.0513
 2958TIP3    H130509   0.074   2.484   9.893 -2.3179 -0.8128  1.7756
 2958TIP3    H230510  -0.014   2.431   9.782 -0.9818  0.1795  0.2055
 2959TIP3   OH230511   4.963   2.290   2.597  0.4210  0.2496 -0.0908
 2959TIP3    H130512   4.965   2.195   2.581  0.5913  0.6018 -2.5944
 2959TIP3    H230513   5.055   2.313   2.612  0.6991  0.2897 -1.6817
 2960TIP3   OH230514   4.891   4.346   8.665 -0.0370 -0.4798 -0.1810
 2960TIP3    H130515   4.971   4.296   8.653 -0.8134 -1.4981 -1.3380
 2960TIP3    H230516   4.820   4.284   8.649 -1.1023  0.2248  1.4386
 2961TIP3   OH230517   6.214   6.379   0.243 -0.3082 -0.3852 -0.0175
 2961TIP3    H130518   6.267   6.446   0.285  0.8482 -1.0881 -0.2975
 2961TIP3    H230519   6.130   6.422   0.224  0.4771  1.0408 -0.4038
 2962TIP3   OH230520   4.011   0.857   9.477  0.2379  0.2298  0.6929
 2962TIP3    H130521   3.969   0.916   9.540 -1.2937 -1.0148  0.9099
 2962TIP3    H230522   3.954   0.861   9.400  0.9204  0.1283  0.1805
 2963TIP3   OH230523   4.687   0.692   1.442  0.0544  0.1363  0.4109
 2963TIP3    H130524   4.748   0.619   1.431 -0.1077  0.0791 -0.1513
 2963TIP3    H230525   4.718   0.738   1.519  1.0956  0.3788 -0.1441
 2964TIP3   OH230526   3.555   2.205   8.824  0.1027 -0.3166 -0.6693
 2964TIP3    H130527   3.577   2.298   8.829 -0.4285 -0.1806 -0.7373
 2964TIP3    H230528   3.595   2.175   8.742 -0.6920  0.1365 -1.2463
 2965TIP3   OH230529   1.467   4.292   1.468 -0.0219  0.2528  0.1501
 2965TIP3    H130530   1.473   4.272   1.375  1.8091  0.3192  0.2336
 2965TIP3    H230531   1.471   4.388   1.473  0.4533  0.2238  0.3340
 2966TIP3   OH230532   0.223   5.258   1.864  0.2043  0.2376  0.6811
 2966TIP3    H130533   0.305   5.289   1.827 -0.2067 -0.3829 -0.8438
 2966TIP3    H230534   0.160   5.328   1.844 -0.2030 -0.4622 -0.6240
 2967TIP3   OH230535   4.698   4.238   2.367  0.0991  0.0879  0.7702
 2967TIP3    H130536   4.736   4.188   2.295  0.7513  0.5856  0.7557
 2967TIP3    H230537   4.699   4.177   2.441  1.5982  0.2939  0.9557
 2968TIP3   OH230538   1.909   4.980   3.336 -0.3350  0.1082 -0.2203
 2968TIP3    H130539   1.975   4.919   3.368 -1.0088 -0.0189  0.9958
 2968TIP3    H230540   1.957   5.041   3.280  0.9956  0.5983  1.4022
 2969TIP3   OH230541   2.822   1.052   9.242 -0.3451  0.0007 -0.2188
 2969TIP3    H130542   2.834   1.096   9.326 -0.0112 -1.3977  0.4975
 2969TIP3    H230543   2.734   1.014   9.247 -0.2475 -0.2534 -0.4117
 2970TIP3   OH230544   5.004   2.833   8.783  0.4569  0.1829 -0.5334
 2970TIP3    H130545   5.001   2.918   8.829 -3.0296  0.6895 -1.3995
 2970TIP3    H230546   5.023   2.856   8.692  0.5618 -0.0798 -0.5774
 2971TIP3   OH230547   5.621   1.414   9.197 -0.3451 -0.4885 -0.0757
 2971TIP3    H130548   5.710   1.414   9.161 -0.3876 -0.0167 -0.1840
 2971TIP3    H230549   5.601   1.322   9.212  0.4720 -0.5510  0.7107
 2972TIP3   OH230550   0.370   0.547   8.894  0.2096 -0.3311  0.0521
 2972TIP3    H130551   0.317   0.522   8.818  0.9848  0.6301 -0.8387
 2972TIP3    H230552   0.322   0.619   8.934  0.1596 -0.3665  0.0567
 2973TIP3   OH230553   2.385   4.368   8.465 -0.0418  0.0648  0.0050
 2973TIP3    H130554   2.376   4.288   8.414 -0.7627  0.5987 -0.7282
 2973TIP3    H230555   2.429   4.429   8.407 -1.8714  1.0456 -0.4333
 2974TIP3   OH230556   3.200   1.869   1.549  0.6626 -0.4708 -0.5568
 2974TIP3    H130557   3.155   1.870   1.464  0.0273 -0.0160 -0.2203
 2974TIP3    H230558   3.201   1.960   1.577 -0.5841 -0.8001  0.6710
 2975TIP3   OH230559   2.165   3.534   1.192  0.4988  0.5928  0.6181
 2975TIP3    H130560   2.081   3.547   1.235  0.2265 -1.7648  0.9650
 2975TIP3    H230561   2.213   3.475   1.251  0.8700 -1.1956 -1.3455
 2976TIP3   OH230562   1.111   1.371   9.028 -0.1650  0.3893  0.0817
 2976TIP3    H130563   1.180   1.391   8.964 -1.0340 -0.5301 -1.2037
 2976TIP3    H230564   1.155   1.319   9.095  0.4240 -0.1567 -0.7042
 2977TIP3   OH230565   1.262   6.282   7.678  0.2630  0.1707  0.4592
 2977TIP3    H130566   1.171   6.299   7.703  0.3567 -0.3168  1.1643
 2977TIP3    H230567   1.300   6.369   7.665 -0.3278  0.3712  0.0570
 2978TIP3   OH230568   1.746   2.666   0.349  0.4576 -0.2908  0.1785
 2978TIP3    H130569   1.740   2.633   0.259 -1.3020  1.8556 -0.5712
 2978TIP3    H230570   1.816   2.731   0.345 -0.3905  0.6376  0.0337
 2979TIP3   OH230571   3.734   2.399   9.360 -0.7509 -0.1695  0.3881
 2979TIP3    H130572   3.766   2.308   9.361  0.9077  0.3935  0.7029
 2979TIP3    H230573   3.794   2.444   9.301  0.1734  1.3119  2.3558
 2980TIP3   OH230574   2.296   4.758   8.795  0.2288 -0.3959  0.4696
 2980TIP3    H130575   2.363   4.799   8.741  1.5235 -1.5269  1.1486
 2980TIP3    H230576   2.331   4.764   8.884 -1.4766  0.6962  1.1234
 2981TIP3   OH230577   0.913   3.115   7.995 -0.1839 -0.2773  0.0792
 2981TIP3    H130578   0.923   3.160   7.912 -3.0628 -1.0898 -0.8594
 2981TIP3    H230579   0.976   3.043   7.992  2.8285  2.1413  0.6150
 2982TIP3   OH230580   0.661   3.636   0.869 -0.3838  0.4983  0.0741
 2982TIP3    H130581   0.620   3.580   0.803  0.8174  0.0386 -0.2966
 2982TIP3    H230582   0.736   3.586   0.901  0.6992  1.8539 -0.2485
 2983TIP3   OH230583   1.862   0.406   0.851 -0.7627 -0.6588 -0.3908
 2983TIP3    H130584   1.947   0.450   0.844 -1.8796  1.6711 -0.2794
 2983TIP3    H230585   1.850   0.393   0.945 -0.0676 -2.0351 -0.4716
 2984TIP3   OH230586   6.224   1.662   0.367  0.4363 -0.1097 -0.1967
 2984TIP3    H130587   6.179   1.615   0.438  0.7648  0.5866  0.4967
 2984TIP3    H230588   6.245   1.594   0.303 -1.4770 -0.4805 -0.4974
 2985TIP3   OH230589   1.394   5.284   2.934 -0.3045  0.5268 -0.1531
 2985TIP3    H130590   1.400   5.324   3.021  0.8419 -0.4009  0.2185
 2985TIP3    H230591   1.315   5.231   2.937  0.5329 -0.7410  0.9028
 2986TIP3   OH230592   5.069   3.592   1.873 -0.1356 -0.3645 -0.3682
 2986TIP3    H130593   5.042   3.524   1.934  0.3704  1.0619  1.5738
 2986TIP3    H230594   5.091   3.667   1.929  1.5802  0.6363 -2.2337
 2987TIP3   OH230595   1.643   1.265   8.229  0.0687  0.0088  0.0321
 2987TIP3    H130596   1.574   1.224   8.177 -0.3045  0.7335 -0.0486
 2987TIP3    H230597   1.641   1.357   8.204  1.0716  0.0458  0.0194
 2988TIP3   OH230598   2.543   4.850   9.689  0.2261  0.0834 -0.9577
 2988TIP3    H130599   2.465   4.874   9.641 -0.3827  1.1613  0.5104
 2988TIP3    H230600   2.516   4.847   9.781  1.8101  0.1039 -0.4501
 2989TIP3   OH230601   3.904   0.210   2.994 -0.2109 -0.1903  0.0985
 2989TIP3    H130602   3.967   0.249   3.055 -1.4347 -0.3485  1.5268
 2989TIP3    H230603   3.842   0.281   2.976 -0.5345 -0.4932  0.0112
 2990TIP3   OH230604   3.906   1.266   1.046 -0.2090  0.2788 -0.1886
 2990TIP3    H130605   3.823   1.263   1.095 -0.4966 -0.9738 -0.6981
 2990TIP3    H230606   3.914   1.178   1.010  0.8128  0.7164 -1.0492
 2991TIP3   OH230607   0.987   2.472   9.265 -0.0442 -0.3815 -0.7143
 2991TIP3    H130608   0.899   2.505   9.244  0.7829  2.6011  0.0591
 2991TIP3    H230609   0.971   2.392   9.316 -2.3203  0.2897 -0.2668
 2992TIP3   OH230610   1.878   2.280   1.291 -0.5499  0.3408  0.5269
 2992TIP3    H130611   1.868   2.211   1.224 -0.0140 -0.5357  1.3225
 2992TIP3    H230612   1.814   2.346   1.266 -2.2232 -1.1628  0.6087
 2993TIP3   OH230613   6.207   3.351   0.557  0.1517  0.4952 -0.1182
 2993TIP3    H130614   6.139   3.388   0.501  0.0219 -0.3390 -0.5356
 2993TIP3    H230615   6.235   3.272   0.511  1.0339  0.5427  0.3125
 2994TIP3   OH230616   5.171   4.524   3.550 -0.4612  0.1322  0.2660
 2994TIP3    H130617   5.178   4.543   3.643  0.5870  1.8072 -0.1144
 2994TIP3    H230618   5.227   4.447   3.537 -0.4615  0.0063  0.9917
 2995TIP3   OH230619   0.356   2.440   9.651  0.5439  0.5512  0.4760
 2995TIP3    H130620   0.263   2.456   9.666  0.4611  1.7623 -1.1117
 2995TIP3    H230621   0.370   2.351   9.684 -1.2289  0.2394  0.4989
 2996TIP3   OH230622   3.281   4.896   2.360  0.0832 -0.3199 -0.2843
 2996TIP3    H130623   3.347   4.917   2.295  0.4605  0.2904  0.2833
 2996TIP3    H230624   3.313   4.817   2.403  0.6067  0.1433  0.1933
 2997TIP3   OH230625   1.725   0.215   0.698  0.1930  0.0311 -0.1908
 2997TIP3    H130626   1.721   0.287   0.761 -1.5592 -0.6096  0.4825
 2997TIP3    H230627   1.658   0.236   0.633  0.0207 -0.7501 -0.2681
 2998TIP3   OH230628   5.419   1.337   1.205 -0.2271 -0.3757 -0.2968
 2998TIP3    H130629   5.445   1.406   1.144  1.1458 -1.5482 -1.0961
 2998TIP3    H230630   5.477   1.264   1.185  0.6220 -0.6890  2.7204
 2999TIP3   OH230631   4.624   2.027   1.778 -0.0239  0.7471 -0.0098
 2999TIP3    H130632   4.532   2.053   1.776 -0.5394 -0.8863  0.9032
 2999TIP3    H230633   4.670   2.102   1.817 -1.0259  1.3653  0.0077
 3000TIP3   OH230634   2.402   5.515   1.253  0.3501 -0.1217  0.6843
 3000TIP3    H130635   2.374   5.423   1.260 -0.1711  0.0172  0.4259
 3000TIP3    H230636   2.357   5.559   1.325  0.5008 -0.0348  0.7277
 3001TIP3   OH230637   2.342   1.745   2.309 -0.0949  0.3684 -0.4957
 3001TIP3    H130638   2.300   1.662   2.330  0.1434 -0.2094 -2.1175
 3001TIP3    H230639   2.412   1.754   2.373 -2.1166  0.9957  1.8112
 3002TIP3   OH230640   6.193   2.157   2.212 -0.2939  0.5566 -0.5568
 3002TIP3    H130641   6.179   2.085   2.274  1.3779  1.0580  0.4633
 3002TIP3    H230642   6.135   2.136   2.139  0.7237 -2.3087 -0.6863
 3003TIP3   OH230643   0.808   3.586   3.379 -0.0675  0.1317 -0.2026
 3003TIP3    H130644   0.900   3.611   3.387 -0.2084  0.5771  0.0334
 3003TIP3    H230645   0.771   3.604   3.465  0.1329 -2.1952  0.4247
 3004TIP3   OH230646   1.616   3.146   0.383 -0.4244 -0.2650  0.5546
 3004TIP3    H130647   1.690   3.134   0.324 -1.4004 -0.3340 -0.7107
 3004TIP3    H230648   1.655   3.180   0.464  0.8080  1.4622 -0.6864
 3005TIP3   OH230649   5.734   5.141   1.389  0.1093  0.1684 -0.3141
 3005TIP3    H130650   5.829   5.140   1.402 -0.0068  0.0791  0.5903
 3005TIP3    H230651   5.698   5.116   1.473 -0.7074 -0.6342 -0.8824
 3006TIP3   OH230652   5.924   4.398   1.187 -0.7504  0.2722  0.2163
 3006TIP3    H130653   5.950   4.307   1.201  0.1381  0.8687  2.9556
 3006TIP3    H230654   5.985   4.430   1.120 -0.3473 -0.8233  0.0360
 3007TIP3   OH230655   3.760   5.323  10.024  0.0589 -0.1116  0.5621
 3007TIP3    H130656   3.729   5.412  10.006  0.3454  0.1341  1.2681
 3007TIP3    H230657   3.797   5.327  10.112 -0.5872 -1.1105  0.9002
 3008TIP3   OH230658   0.580   3.913   0.794  0.0181 -0.2922  0.2401
 3008TIP3    H130659   0.628   3.830   0.799  0.6555  0.0725  0.2729
 3008TIP3    H230660   0.628   3.964   0.729  0.7809  0.7813  1.5841
 3009TIP3   OH230661   4.737   5.952   1.929 -0.1962 -0.4087 -0.1749
 3009TIP3    H130662   4.665   5.994   1.977  0.2140  0.2621 -0.1338
 3009TIP3    H230663   4.808   6.016   1.932  0.9347 -1.6583  1.0719
 3010TIP3   OH230664   1.676   4.557   9.720 -0.3946 -0.1134  0.3809
 3010TIP3    H130665   1.752   4.611   9.698 -0.6089  0.3795  0.8202
 3010TIP3    H230666   1.617   4.566   9.645  0.4614 -1.4382 -0.5014
 3011TIP3   OH230667   1.075   5.842   9.294 -0.6374 -0.0742 -0.4088
 3011TIP3    H130668   1.045   5.797   9.373  1.1013 -0.1315  0.2569
 3011TIP3    H230669   1.090   5.932   9.323 -0.3342 -0.0134 -0.7555
 3012TIP3   OH230670   5.573   1.648   8.344 -0.0862  0.2067 -1.2101
 3012TIP3    H130671   5.504   1.619   8.284 -0.1134  0.9630 -1.5491
 3012TIP3    H230672   5.599   1.734   8.312 -0.0804  0.6117 -0.1600
 3013TIP3   OH230673   4.915   2.510   9.936  0.4385  0.7368  0.0421
 3013TIP3    H130674   4.965   2.576   9.985 -0.9416  0.4367  1.9755
 3013TIP3    H230675   4.872   2.457  10.004 -0.2972 -0.7441 -1.4958
 3014TIP3   OH230676   6.078   6.097   9.013 -0.5458 -0.2889  0.6542
 3014TIP3    H130677   6.027   6.140   8.944 -1.1250 -1.4348  0.3469
 3014TIP3    H230678   6.076   6.004   8.990  1.1200 -0.4467  1.0137
 3015TIP3   OH230679   0.390   5.418   8.237  0.4205 -0.2553  1.0651
 3015TIP3    H130680   0.442   5.493   8.267  0.3583 -0.5130  1.8402
 3015TIP3    H230681   0.429   5.395   8.153 -0.8964  1.9443 -0.2252
 3016TIP3   OH230682   0.322   4.160   8.377 -0.1461 -0.6429 -0.3681
 3016TIP3    H130683   0.344   4.241   8.424 -1.5560 -0.0379 -0.6765
 3016TIP3    H230684   0.315   4.093   8.445  2.1393 -0.7977 -0.2202
 3017TIP3   OH230685   2.073   3.863   2.376  0.0650  0.2344 -0.2028
 3017TIP3    H130686   2.029   3.886   2.294 -0.8254  0.8659  0.4282
 3017TIP3    H230687   2.020   3.793   2.413  1.8466 -1.8064 -1.3178
 3018TIP3   OH230688   1.212   1.674   1.397 -0.0814  0.3073  0.1876
 3018TIP3    H130689   1.134   1.629   1.364  0.3128 -1.5229  1.5594
 3018TIP3    H230690   1.263   1.695   1.319 -0.3685 -1.5557 -0.5690
 3019TIP3   OH230691   0.885   5.972   2.471  0.5304  0.4648 -0.0941
 3019TIP3    H130692   0.794   5.943   2.466  0.7691 -0.2481 -0.3971
 3019TIP3    H230693   0.929   5.929   2.398  1.2674  0.2090  0.4758
 3020TIP3   OH230694   5.912   0.677   0.751  0.0325 -0.7106  0.1344
 3020TIP3    H130695   5.870   0.711   0.830  2.4016 -2.2076  2.1799
 3020TIP3    H230696   5.917   0.753   0.693 -0.6721  0.7874  1.9149
 3021TIP3   OH230697   0.841   1.799   0.941 -0.0573  0.1341 -0.3837
 3021TIP3    H130698   0.935   1.787   0.925 -0.0488  0.1497 -0.3453
 3021TIP3    H230699   0.811   1.712   0.968  0.2579  0.4930  1.1792
 3022TIP3   OH230700   4.579   1.431   1.723 -0.4508 -0.6076 -0.1333
 3022TIP3    H130701   4.562   1.367   1.793 -0.9053  1.4029  1.7089
 3022TIP3    H230702   4.664   1.468   1.746 -0.8522  0.4532 -0.3203
 3023TIP3   OH230703   4.015   3.785   9.055 -0.0938 -0.0513  0.0765
 3023TIP3    H130704   4.050   3.742   9.133  4.0460  0.3654 -1.3386
 3023TIP3    H230705   4.027   3.878   9.071  0.9058  0.0335 -1.0392
 3024TIP3   OH230706   1.727   0.379   1.095  0.0621 -0.1151 -0.0126
 3024TIP3    H130707   1.655   0.396   1.033  1.3995 -1.8604 -2.2155
 3024TIP3    H230708   1.714   0.442   1.165 -2.8430  0.5128 -0.9832
 3025TIP3   OH230709   2.951   1.781   0.123 -0.9229  0.0480 -0.0318
 3025TIP3    H130710   2.896   1.807   0.049 -1.0328 -0.6377 -0.1988
 3025TIP3    H230711   3.041   1.794   0.093 -0.9398 -1.2301 -0.6745
 3026TIP3   OH230712   0.468   6.411   6.873  0.1438  0.0386 -0.4523
 3026TIP3    H130713   0.516   6.360   6.938 -0.3861 -1.5193 -1.2184
 3026TIP3    H230714   0.534   6.439   6.810  0.4830  0.5458  0.1226
 3027TIP3   OH230715   0.106   4.805   7.696 -0.4988  0.0984  0.5233
 3027TIP3    H130716   0.030   4.798   7.638  0.0427 -2.3322  0.0037
 3027TIP3    H230717   0.068   4.812   7.784 -1.3135  0.2044  0.1716
 3028TIP3   OH230718   6.210   5.127   9.706  0.6637 -0.1288 -0.1558
 3028TIP3    H130719   6.213   5.206   9.761 -0.6329 -0.8609  1.0024
 3028TIP3    H230720   6.271   5.066   9.748  1.0323 -0.0587 -0.5768
 3029TIP3   OH230721   1.558   5.396   7.780 -0.1984  0.1712 -0.4205
 3029TIP3    H130722   1.648   5.364   7.785 -0.4732 -0.7148 -0.9518
 3029TIP3    H230723   1.504   5.317   7.775 -0.9008  0.6884 -1.5934
 3030TIP3   OH230724   0.454   5.403   1.793 -0.3309  0.0971  0.3235
 3030TIP3    H130725   0.424   5.464   1.725 -0.2999  0.1194  0.3294
 3030TIP3    H230726   0.527   5.356   1.752  0.0358  0.4868  0.5202
 3031TIP3   OH230727   3.400   4.389   3.403  0.2659  0.3883  0.5631
 3031TIP3    H130728   3.410   4.297   3.429  0.3030 -0.1902 -1.3220
 3031TIP3    H230729   3.382   4.435   3.485 -0.0614 -1.3405  1.5279
 3032TIP3   OH230730   6.349   4.793   0.547  0.3309  0.6551 -0.3543
 3032TIP3    H130731   6.328   4.836   0.464 -2.0756 -0.0012 -0.1546
 3032TIP3    H230732   6.390   4.862   0.600  0.5671  1.4815 -1.5757
 3033TIP3   OH230733   0.317   5.031   1.643  0.6691  0.3910  0.5845
 3033TIP3    H130734   0.361   4.952   1.612 -1.7221 -1.5433  1.7487
 3033TIP3    H230735   0.369   5.059   1.719  0.9612 -0.7194  0.8132
 3034TIP3   OH230736   1.166   3.262   0.983  0.4648 -0.2253  0.0490
 3034TIP3    H130737   1.148   3.271   0.889 -0.1780  1.5607  0.3089
 3034TIP3    H230738   1.204   3.346   1.009 -1.2559  0.0986  1.7727
 3035TIP3   OH230739   0.836   5.218   0.996 -0.1364 -0.1877 -0.4479
 3035TIP3    H130740   0.780   5.148   1.029 -1.8503 -0.0196 -2.7821
 3035TIP3    H230741   0.853   5.196   0.905  0.8734  1.4601 -0.7120
 3036TIP3   OH230742   4.378   6.175   2.217  0.1887  0.4783 -0.0660
 3036TIP3    H130743   4.469   6.204   2.212  0.9334 -1.8305 -1.7776
 3036TIP3    H230744   4.355   6.185   2.309  2.8651 -0.6632  0.8456
 3037TIP3   OH230745   4.686   0.061   0.925  0.6655 -0.1430  0.4933
 3037TIP3    H130746   4.689  -0.015   0.983  1.9472  0.5838  1.4433
 3037TIP3    H230747   4.696   0.136   0.984 -0.4934  0.7780 -0.4284
 3038TIP3   OH230748   0.012   1.388   1.652 -0.3129  0.1143  0.0989
 3038TIP3    H130749  -0.005   1.400   1.559 -1.0296 -1.1224  0.0514
 3038TIP3    H230750  -0.074   1.369   1.690  0.2903 -1.7678  0.6041
 3039TIP3   OH230751   3.347   0.870   1.866 -0.7235  0.0466 -0.5510
 3039TIP3    H130752   3.285   0.921   1.813 -0.2033 -0.5796 -1.8153
 3039TIP3    H230753   3.345   0.912   1.952  0.3829  2.8667 -1.7642
 3040TIP3   OH230754   4.271   6.050   9.899 -0.6395 -0.6283 -0.1683
 3040TIP3    H130755   4.291   6.042   9.806 -1.8954 -0.2763 -0.4758
 3040TIP3    H230756   4.272   6.144   9.916  3.5154 -0.6942  1.0975
 3041TIP3   OH230757   5.667   4.237   9.506 -0.2219 -0.0853 -0.4285
 3041TIP3    H130758   5.577   4.216   9.481 -0.5984  0.2880  0.5904
 3041TIP3    H230759   5.695   4.165   9.562  0.4254 -0.6271 -1.4105
 3042TIP3   OH230760   0.637   3.419   8.689  0.3074  0.2860 -0.3078
 3042TIP3    H130761   0.645   3.386   8.599 -0.8030 -0.4721 -0.1542
 3042TIP3    H230762   0.585   3.499   8.681  1.0880  0.7945 -0.4355
 3043TIP3   OH230763   5.782   0.734   7.217  0.0124  0.2090 -0.0500
 3043TIP3    H130764   5.779   0.682   7.298  0.4289  0.6649  0.2597
 3043TIP3    H230765   5.690   0.746   7.194 -0.1115  0.1258  0.3877
 3044TIP3   OH230766   2.856   1.739   1.196  0.4991 -0.1367  0.5930
 3044TIP3    H130767   2.864   1.742   1.100 -0.4810 -1.9763  0.4196
 3044TIP3    H230768   2.778   1.791   1.215 -0.2852 -1.1327  0.2085
 3045TIP3   OH230769   4.781   1.867   3.527  0.0493 -0.5011 -0.5315
 3045TIP3    H130770   4.768   1.905   3.440  0.5929  1.5427  0.2262
 3045TIP3    H230771   4.870   1.832   3.525  0.0569 -0.4626 -0.8080
 3046TIP3   OH230772   1.921   4.391   9.691 -0.5529  0.1275  0.3461
 3046TIP3    H130773   1.920   4.360   9.600 -1.3787 -2.1406  1.0518
 3046TIP3    H230774   1.828   4.400   9.714 -0.3691  0.2454  1.0758
 3047TIP3   OH230775   5.317   1.872   1.980  0.5902  0.1525  0.0536
 3047TIP3    H130776   5.303   1.964   1.958 -0.7190 -0.2367 -0.8841
 3047TIP3    H230777   5.275   1.862   2.066  0.2830  0.3304 -0.0713
 3048TIP3   OH230778   1.718   5.823   9.018  0.3719  0.7669 -0.4363
 3048TIP3    H130779   1.765   5.806   9.100  0.1333 -0.9048 -0.6108
 3048TIP3    H230780   1.627   5.833   9.044 -0.0045 -1.5850 -0.6102
 3049TIP3   OH230781   4.879   1.145   2.507  0.1959  0.2736  0.2317
 3049TIP3    H130782   4.886   1.054   2.480 -1.7976  0.3603 -0.7113
 3049TIP3    H230783   4.958   1.187   2.471  0.4839 -0.8113 -0.4236
 3050TIP3   OH230784   5.930   0.417   2.289 -0.1131  0.6133  0.4137
 3050TIP3    H130785   5.865   0.403   2.357  0.2144  0.6863  0.7416
 3050TIP3    H230786   6.009   0.445   2.335  0.8611 -1.6805  0.2307
 3051TIP3   OH230787   2.694   5.514   0.327  0.1855  0.5023  0.0101
 3051TIP3    H130788   2.663   5.423   0.329 -0.1184  0.6126  0.5080
 3051TIP3    H230789   2.680   5.543   0.237 -0.5795  0.3532  0.0801
 3052TIP3   OH230790   5.942   2.239   0.988  0.1229  0.3423 -0.3163
 3052TIP3    H130791   5.881   2.312   0.978  0.0616  0.0837 -2.1606
 3052TIP3    H230792   5.893   2.163   0.958  0.0024 -0.6015  2.0983
 3053TIP3   OH230793   5.852   5.455   1.992  0.0678 -0.0154 -0.3696
 3053TIP3    H130794   5.875   5.378   2.044 -0.5640 -0.9757 -1.4534
 3053TIP3    H230795   5.808   5.419   1.915 -0.5448  1.4611 -0.7421
 3054TIP3   OH230796   1.362   0.621   7.821  0.7543  0.9051  0.1114
 3054TIP3    H130797   1.401   0.704   7.850  0.1988  2.0405 -2.1450
 3054TIP3    H230798   1.416   0.594   7.747  0.4449 -0.3473  0.3250
 3055TIP3   OH230799   5.588   0.453   3.095 -0.3675  0.1211 -0.3295
 3055TIP3    H130800   5.647   0.393   3.141  0.5692  1.9447  0.9915
 3055TIP3    H230801   5.500   0.422   3.117  0.0848 -0.0102  1.4275
 3056TIP3   OH230802   5.566   4.644   1.671 -0.2457 -0.0897  0.0086
 3056TIP3    H130803   5.502   4.658   1.601  0.8797  2.5031 -0.6061
 3056TIP3    H230804   5.520   4.669   1.751 -0.3873  0.6175 -0.2869
 3057TIP3   OH230805   2.541   3.610   9.588 -0.4915 -0.0643  0.0757
 3057TIP3    H130806   2.565   3.618   9.496  0.7017  1.0264  0.4445
 3057TIP3    H230807   2.549   3.516   9.607  2.8624  0.0680 -0.0658
 3058TIP3   OH230808   6.247   4.810   1.262 -0.4127  0.4075  0.0940
 3058TIP3    H130809   6.307   4.736   1.270  0.3761  1.1141  0.8665
 3058TIP3    H230810   6.201   4.794   1.179  0.1919 -0.6089 -0.0646
 3059TIP3   OH230811   5.699   5.661   0.774 -0.4651 -0.1464  0.0941
 3059TIP3    H130812   5.733   5.572   0.779  0.2640  0.0482 -1.0965
 3059TIP3    H230813   5.751   5.704   0.706 -1.7741  0.7519 -0.3955
 3060TIP3   OH230814   5.489   2.659   0.637 -0.2426  0.1248  0.3513
 3060TIP3    H130815   5.441   2.613   0.705 -0.8592  0.8354  0.4006
 3060TIP3    H230816   5.429   2.725   0.605  0.4553  0.5693 -0.0730
 3061TIP3   OH230817   2.977   5.716   0.658 -0.5406  0.4479 -0.2046
 3061TIP3    H130818   3.039   5.656   0.697 -0.5722  0.6538  0.1651
 3061TIP3    H230819   2.980   5.697   0.564  2.6959  2.7753 -0.7283
 3062TIP3   OH230820   5.624   1.982   9.376 -0.0818  1.0096 -0.8103
 3062TIP3    H130821   5.540   2.022   9.353 -0.4491  0.0398 -1.1811
 3062TIP3    H230822   5.628   1.902   9.323 -0.4317 -0.6955  1.5941
 3063TIP3   OH230823   1.518   2.952   8.643 -0.6195 -0.3408 -0.7815
 3063TIP3    H130824   1.590   2.940   8.582  3.2960  1.1757  3.0531
 3063TIP3    H230825   1.506   3.047   8.649  0.4207 -0.2779  1.9159
 3064TIP3   OH230826   0.618   5.902   2.382 -0.2595 -0.4842 -0.7405
 3064TIP3    H130827   0.541   5.959   2.386  0.8919  1.0719  0.8958
 3064TIP3    H230828   0.583   5.813   2.394 -1.8054  0.1805 -0.0165
 3065TIP3   OH230829   6.244   3.659   9.703  0.6508  0.9706 -0.1235
 3065TIP3    H130830   6.202   3.689   9.622  2.8007  1.2867 -1.2018
 3065TIP3    H230831   6.228   3.729   9.766 -0.7891  0.8612 -0.3221
 3066TIP3   OH230832   6.374   5.235   0.341 -0.0027 -0.1194  0.3402
 3066TIP3    H130833   6.453   5.191   0.309 -0.9457 -2.8618  1.4378
 3066TIP3    H230834   6.306   5.168   0.334 -1.9340  1.7177  0.7208
 3067TIP3   OH230835   4.881   3.104   2.499 -0.1642  0.2238 -0.2711
 3067TIP3    H130836   4.962   3.114   2.450  0.3566  2.1377  0.8859
 3067TIP3    H230837   4.870   3.009   2.507  0.4823 -0.1252 -2.7413
 3068TIP3   OH230838   6.190   5.486   1.495  0.2462  0.3227  0.1704
 3068TIP3    H130839   6.153   5.491   1.407 -0.4872 -0.2682  0.4340
 3068TIP3    H230840   6.137   5.545   1.547  0.5794  0.5509  0.2566
 3069TIP3   OH230841   3.689   1.696   3.557  0.3878 -0.4203  0.9295
 3069TIP3    H130842   3.740   1.653   3.489 -0.9486 -2.0771  0.8997
 3069TIP3    H230843   3.743   1.688   3.636  0.0821 -2.4964  0.9862
 3070TIP3   OH230844   3.611   5.550   1.485 -0.3512 -0.5235 -0.1065
 3070TIP3    H130845   3.622   5.645   1.488 -0.6304 -0.5010  0.3258
 3070TIP3    H230846   3.572   5.533   1.399 -2.2627 -0.0195  0.6096
 3071TIP3   OH230847   3.161   3.385   1.894 -0.0090  0.6696 -0.1984
 3071TIP3    H130848   3.250   3.360   1.871 -0.4474 -0.0932 -1.1506
 3071TIP3    H230849   3.156   3.478   1.874 -0.0883  0.2392 -2.4727
 3072TIP3   OH230850   5.018   3.876   1.759  0.1321 -0.2539 -0.6352
 3072TIP3    H130851   4.993   3.946   1.819  0.5378  0.8704 -1.7305
 3072TIP3    H230852   4.936   3.833   1.736 -0.3461  0.9427 -1.2321
 3073TIP3   OH230853   3.936   3.003   1.697  0.1018  0.1326  0.0036
 3073TIP3    H130854   3.970   3.018   1.609 -2.2958  0.2676 -0.9886
 3073TIP3    H230855   4.013   2.998   1.753  1.6033  2.5984 -1.6848
 3074TIP3   OH230856   3.605   4.958   2.480  0.2544 -0.0652  0.3249
 3074TIP3    H130857   3.610   4.939   2.387  0.8621  1.4355  0.0194
 3074TIP3    H230858   3.696   4.953   2.510  0.1367  0.0440  0.7085
 3075TIP3   OH230859   3.236   4.104   3.003  0.0738 -0.3353 -0.3035
 3075TIP3    H130860   3.229   4.037   2.935  0.0870 -2.1560  1.3808
 3075TIP3    H230861   3.146   4.115   3.035  0.0711  0.4779 -0.5872
 3076TIP3   OH230862   6.241   0.359   8.030 -0.3620  0.2015 -0.5300
 3076TIP3    H130863   6.198   0.397   8.107  0.7272  0.2031  0.0944
 3076TIP3    H230864   6.207   0.270   8.025 -1.6012  0.6787 -0.9710
 3077TIP3   OH230865   5.842   4.814   1.764 -0.3807 -0.5746  0.3358
 3077TIP3    H130866   5.868   4.865   1.840 -1.2048 -1.3467  1.1560
 3077TIP3    H230867   5.751   4.789   1.781  0.1524 -2.7855  0.2350
 3078TIP3   OH230868   5.391   3.425   9.939 -0.1295  0.1087  0.6405
 3078TIP3    H130869   5.399   3.492   9.872  2.3235  0.1537  0.8927
 3078TIP3    H230870   5.412   3.470  10.021  2.3789 -1.0291  0.7214
 3079TIP3   OH230871   2.105   2.660   1.768  0.0552 -0.4593  0.0494
 3079TIP3    H130872   2.079   2.731   1.709 -0.0023  1.4613  2.2799
 3079TIP3    H230873   2.041   2.590   1.750 -1.3770  0.9343 -0.5404
 3080TIP3   OH230874   4.045   4.698   3.125 -0.5138 -0.0962  0.7460
 3080TIP3    H130875   4.043   4.682   3.030 -0.1792  1.9679  0.3394
 3080TIP3    H230876   3.968   4.653   3.158 -1.3738  0.2385 -0.7110
 3081TIP3   OH230877   2.649   3.051   3.281  0.6773  0.6227  0.7468
 3081TIP3    H130878   2.580   3.011   3.334 -0.1924  1.7047  0.4566
 3081TIP3    H230879   2.657   3.140   3.315  3.5996 -0.1265  2.3696
 3082TIP3   OH230880   5.405   0.638   0.145  0.4195  0.7083 -0.0018
 3082TIP3    H130881   5.454   0.711   0.108  1.3527 -0.2921 -0.7672
 3082TIP3    H230882   5.372   0.672   0.229  1.0231  1.9270 -0.2411
 3083TIP3   OH230883   5.979   4.738   9.135  0.5264  0.5500 -0.1104
 3083TIP3    H130884   5.968   4.646   9.113  0.2867  0.3157  0.9525
 3083TIP3    H230885   6.074   4.749   9.143  0.4807 -0.0617  1.5860
 3084TIP3   OH230886   4.669   5.875   0.859 -0.4276 -0.1100  0.1095
 3084TIP3    H130887   4.645   5.964   0.832  0.0915 -0.3972 -1.4282
 3084TIP3    H230888   4.590   5.841   0.902 -0.1042  1.6067  2.2226
 3085TIP3   OH230889   3.542   0.317   9.517  0.1482  0.1952  0.5663
 3085TIP3    H130890   3.471   0.270   9.475  0.9138 -0.8782  0.4397
 3085TIP3    H230891   3.505   0.347   9.600 -0.7485  0.5404  0.0564
 3086TIP3   OH230892   4.019   2.350   8.413 -0.0943  0.2415  0.3081
 3086TIP3    H130893   3.980   2.437   8.403  1.2652  0.9755  1.1330
 3086TIP3    H230894   4.051   2.328   8.325 -3.2926 -0.9286 -0.7255
 3087TIP3   OH230895   4.739   5.093   8.814 -0.5759  0.4705 -0.0700
 3087TIP3    H130896   4.668   5.131   8.762  0.2154  0.1391 -1.4429
 3087TIP3    H230897   4.771   5.020   8.761 -0.0249 -0.1812  1.1066
 3088TIP3   OH230898   3.112   2.097   0.380  0.1889 -0.3029 -0.1835
 3088TIP3    H130899   3.018   2.111   0.392  0.6913  1.2876  2.8447
 3088TIP3    H230900   3.127   2.007   0.411 -0.0064  0.3553  1.9145
 3089TIP3   OH230901   1.297   2.213   0.251 -0.3559  0.2655  0.4497
 3089TIP3    H130902   1.266   2.129   0.215 -0.5465 -0.1520  1.5400
 3089TIP3    H230903   1.249   2.222   0.333  2.8201 -0.7034  2.5627
 3090TIP3   OH230904   4.135   2.439   0.577 -0.2106  0.4720 -0.5013
 3090TIP3    H130905   4.079   2.475   0.509 -2.1652  0.4629  0.9935
 3090TIP3    H230906   4.160   2.515   0.630 -1.9085  0.0733  0.9546
 3091TIP3   OH230907   0.816   6.071   9.487  0.2976 -0.7204 -0.5815
 3091TIP3    H130908   0.904   6.059   9.523  0.3082 -0.8144 -0.6394
 3091TIP3    H230909   0.799   6.165   9.497  0.4369 -0.6884 -0.6451
 3092TIP3   OH230910   2.446   3.204   8.694  0.4896  0.5677  0.0235
 3092TIP3    H130911   2.374   3.142   8.705  0.0643  1.1209  0.4618
 3092TIP3    H230912   2.463   3.205   8.600 -0.4195  0.7909 -0.1513
 3093TIP3   OH230913   0.017   1.040   1.923  0.6884 -0.2356 -0.3617
 3093TIP3    H130914  -0.056   0.978   1.917 -0.2824  0.8847 -0.5274
 3093TIP3    H230915   0.028   1.074   1.834  0.1723  0.9423 -0.0034
 3094TIP3   OH230916   0.659   5.410   8.592 -0.6796  0.9844 -0.1898
 3094TIP3    H130917   0.648   5.483   8.653 -2.1224 -0.2753  1.1374
 3094TIP3    H230918   0.746   5.422   8.556  0.2308  1.8201  2.1085
 3095TIP3   OH230919   4.729   2.369   3.143  0.2653 -0.2730  0.0115
 3095TIP3    H130920   4.746   2.395   3.233 -2.7584 -0.1303  0.6518
 3095TIP3    H230921   4.796   2.304   3.123  1.3471  0.1018  2.1327
 3096TIP3   OH230922   3.905   4.989   1.606 -0.3467  0.0337 -0.1522
 3096TIP3    H130923   3.912   5.074   1.649 -0.8751 -0.1568  0.3071
 3096TIP3    H230924   3.995   4.969   1.580  0.0970 -0.1698  1.4710
 3097TIP3   OH230925   1.597   3.708   9.018  0.2933 -0.0947  0.2258
 3097TIP3    H130926   1.501   3.708   9.018  0.2317 -1.1439 -1.5370
 3097TIP3    H230927   1.621   3.797   8.995 -0.3567 -0.2350 -1.1636
 3098TIP3   OH230928   0.154   6.146   0.355  0.0205 -0.3844 -0.2872
 3098TIP3    H130929   0.102   6.158   0.434 -0.9413  1.0159 -1.0926
 3098TIP3    H230930   0.203   6.065   0.370 -0.9727 -0.7276  1.2684
 3099TIP3   OH230931   3.268   3.804   0.396  0.0127  0.3020  0.6607
 3099TIP3    H130932   3.278   3.717   0.357  1.5374 -0.0503  1.7340
 3099TIP3    H230933   3.175   3.823   0.388 -0.0198 -0.4754 -1.5457
 3100TIP3   OH230934   3.563   0.413   8.574 -0.3779 -0.6549  0.7907
 3100TIP3    H130935   3.606   0.408   8.660 -0.4390  0.4426  0.8951
 3100TIP3    H230936   3.633   0.392   8.512 -0.1556 -0.7636  1.0710
 3101TIP3   OH230937   3.831   0.355   1.538  0.3139  0.5377 -0.3119
 3101TIP3    H130938   3.777   0.392   1.468  0.5949 -0.6405 -1.1808
 3101TIP3    H230939   3.920   0.359   1.504  0.5767  0.8818  0.4020
 3102TIP3   OH230940   2.871   1.212   0.656 -0.3574 -0.4644  0.2357
 3102TIP3    H130941   2.909   1.156   0.588  1.0514  0.4918  0.1830
 3102TIP3    H230942   2.786   1.239   0.621  0.1069 -0.4377 -0.9040
 3103TIP3   OH230943   6.352   1.635   9.137 -0.2094 -0.4247 -0.9036
 3103TIP3    H130944   6.426   1.694   9.152 -0.4235 -0.2618 -0.4617
 3103TIP3    H230945   6.297   1.681   9.073  1.4893 -1.8109 -3.5234
 3104TIP3   OH230946   5.415   5.675   0.698  0.0607  0.1203 -0.1135
 3104TIP3    H130947   5.428   5.632   0.614  0.1434 -2.8141  1.2582
 3104TIP3    H230948   5.503   5.682   0.735 -0.1157  0.0725  0.3211
 3105TIP3   OH230949   1.612   6.049   1.489  0.2884  0.1002 -0.5265
 3105TIP3    H130950   1.658   5.966   1.477 -0.2672 -0.0044 -2.1531
 3105TIP3    H230951   1.678   6.117   1.477  1.2545 -0.0244  2.9704
 3106TIP3   OH230952   2.588   1.352   1.184 -0.5298 -0.0760 -1.0928
 3106TIP3    H130953   2.617   1.355   1.092 -0.3204 -2.2070 -1.1408
 3106TIP3    H230954   2.607   1.440   1.218  0.0005  0.5508 -2.8982
 3107TIP3   OH230955   0.678   2.838   0.252  0.1820 -0.3125 -0.0719
 3107TIP3    H130956   0.735   2.783   0.307  2.0585  0.1602 -1.4340
 3107TIP3    H230957   0.737   2.902   0.213 -1.5829  1.2106 -0.3679
 3108TIP3   OH230958   5.658   5.524   3.302  0.1257  0.7850  0.0971
 3108TIP3    H130959   5.595   5.595   3.288  0.2632  1.0625  0.8427
 3108TIP3    H230960   5.617   5.468   3.368 -0.1011  0.0097 -0.6824
 3109TIP3   OH230961   1.053   4.087   1.939  1.2192  0.0350 -0.7036
 3109TIP3    H130962   1.037   4.130   2.023  1.7448 -0.2046 -0.4730
 3109TIP3    H230963   0.976   4.032   1.925  0.4450  1.2024 -1.1124
 3110TIP3   OH230964   1.414   3.979   2.847  0.6309 -0.0121  1.0155
 3110TIP3    H130965   1.342   3.928   2.809  1.6067 -0.2947 -0.5225
 3110TIP3    H230966   1.493   3.944   2.806  1.6364  0.4995  2.4392
 3111TIP3   OH230967   3.648   2.051   0.931  0.3656  0.2547 -0.5104
 3111TIP3    H130968   3.666   2.124   0.872  1.3444  0.4434  0.0023
 3111TIP3    H230969   3.556   2.061   0.954  0.1958  0.6627 -1.3327
 3112TIP3   OH230970   4.689   0.445   8.772 -0.1854 -0.1425 -0.3359
 3112TIP3    H130971   4.780   0.425   8.753 -0.8154 -2.0923 -1.5640
 3112TIP3    H230972   4.641   0.415   8.695 -1.6091  4.0561 -1.3565
 3113TIP3   OH230973   4.099   1.239   0.072  0.2004  0.6401  0.4287
 3113TIP3    H130974   4.130   1.235   0.162  0.5156 -2.0869  0.2828
 3113TIP3    H230975   4.159   1.183   0.023 -1.9224 -0.6596 -0.8387
 3114TIP3   OH230976   2.237   2.921   9.807  0.3330  0.2166 -0.1511
 3114TIP3    H130977   2.231   2.963   9.893 -0.7287 -1.2102  0.5004
 3114TIP3    H230978   2.146   2.902   9.783  0.7754 -2.3592 -0.0633
 3115TIP3   OH230979   3.828   6.290   2.175  0.0871  0.1438  0.0682
 3115TIP3    H130980   3.734   6.273   2.166  0.6603 -3.7274 -0.3205
 3115TIP3    H230981   3.851   6.337   2.095 -1.3589  0.3876 -0.2357
 3116TIP3   OH230982   5.738   1.518   1.817 -0.4009  0.3527 -0.0902
 3116TIP3    H130983   5.803   1.587   1.804 -1.4145  1.1678 -1.1640
 3116TIP3    H230984   5.666   1.562   1.863 -0.5229 -0.3347  0.3914
 3117TIP3   OH230985   4.494   4.151   1.396  0.1091  0.4145  0.4928
 3117TIP3    H130986   4.546   4.148   1.316  0.8173 -0.8411  0.9718
 3117TIP3    H230987   4.511   4.067   1.439 -0.0236  1.1703  2.1002
 3118TIP3   OH230988   1.387   5.434   2.016  0.1163  0.3190 -0.4419
 3118TIP3    H130989   1.464   5.473   1.975 -0.0393  1.3095  0.1808
 3118TIP3    H230990   1.416   5.410   2.104 -0.3102  0.8227 -0.1571
 3119TIP3   OH230991   6.074   4.700   1.684 -0.0369 -0.0813 -0.0950
 3119TIP3    H130992   6.059   4.636   1.614  2.0255  0.4507 -1.1011
 3119TIP3    H230993   5.997   4.757   1.681  0.5654  0.7340 -2.8818
 3120TIP3   OH230994   5.861   2.075   2.710 -0.2131  0.6876  0.1293
 3120TIP3    H130995   5.896   2.162   2.731  0.2140  0.2751  1.1925
 3120TIP3    H230996   5.808   2.052   2.786 -0.4220  0.0569 -0.2019
 3121TIP3   OH230997   5.272   2.827   9.315 -0.2052 -0.1120  0.1326
 3121TIP3    H130998   5.264   2.762   9.385 -1.2058 -0.0925  0.0530
 3121TIP3    H230999   5.295   2.776   9.237  0.8015 -0.1471  0.4364
 3122TIP3   OH231000   2.158   2.819   8.616 -0.4468  0.3054  0.1521
 3122TIP3    H131001   2.092   2.840   8.551  0.0279 -0.0067 -0.4405
 3122TIP3    H231002   2.121   2.744   8.664  0.2663 -1.1363 -1.4390
 3123TIP3   OH231003   5.493   0.990   8.001  0.6147  0.7492  0.6543
 3123TIP3    H131004   5.464   1.025   7.917 -1.3993  0.4009  1.1346
 3123TIP3    H231005   5.475   1.060   8.064  1.0657  0.6044  0.9479
 3124TIP3   OH231006   1.369   2.354   1.504  0.7315  0.2164 -0.2467
 3124TIP3    H131007   1.276   2.333   1.496  0.7946 -0.3147  0.3849
 3124TIP3    H231008   1.398   2.306   1.581  2.0872 -1.5256 -1.7746
 3125TIP3   OH231009   0.497   1.765   1.175  0.1977  0.4058 -0.2624
 3125TIP3    H131010   0.465   1.824   1.106 -2.4978 -1.6449 -0.9068
 3125TIP3    H231011   0.457   1.799   1.255  0.9927  1.0790 -0.1297
 3126TIP3   OH231012   3.524   5.106   8.572  0.6286  0.2643  0.1734
 3126TIP3    H131013   3.431   5.125   8.559 -0.0349 -1.7471  1.4021
 3126TIP3    H231014   3.568   5.148   8.498 -1.3421  0.6830 -0.8282
 3127TIP3   OH231015   0.463   4.928   0.835  0.6242 -0.3330  0.3539
 3127TIP3    H131016   0.431   4.991   0.899  0.7555 -0.7212  0.8064
 3127TIP3    H231017   0.393   4.863   0.827  1.0786 -0.9249  0.9909
 3128TIP3   OH231018   3.939   6.391   8.705  0.1818 -0.7173 -1.0696
 3128TIP3    H131019   3.948   6.300   8.734  0.0708 -0.6583 -0.8448
 3128TIP3    H231020   3.872   6.389   8.638 -0.6816 -0.6326 -0.2322
 3129TIP3   OH231021   0.623   3.605   8.468  0.4820  0.0520 -0.3701
 3129TIP3    H131022   0.590   3.679   8.520  3.4027  0.5959  0.9227
 3129TIP3    H231023   0.718   3.616   8.470  0.8317 -1.1526 -4.1336
 3130TIP3   OH231024   3.131   5.185   1.218 -0.3253 -0.2567 -0.4948
 3130TIP3    H131025   3.066   5.184   1.288  0.0202 -0.9275 -0.1764
 3130TIP3    H231026   3.215   5.199   1.262 -0.0768 -0.9228 -0.7357
 3131TIP3   OH231027   3.310   1.643   0.774 -0.7537  0.1075  1.0589
 3131TIP3    H131028   3.386   1.648   0.715 -1.3099  1.8834  0.4285
 3131TIP3    H231029   3.242   1.601   0.721 -1.0628  1.1369  0.6146
 3132TIP3   OH231030   6.254   1.926   9.185  0.1295  0.0964  0.4551
 3132TIP3    H131031   6.299   2.011   9.193 -3.0144  1.9631 -0.2426
 3132TIP3    H231032   6.200   1.920   9.264 -0.0160 -1.0961  0.2792
 3133TIP3   OH231033   6.403   4.944   0.338  0.3894  0.6013 -0.9718
 3133TIP3    H131034   6.460   5.007   0.382  0.2178  0.2133 -0.1821
 3133TIP3    H231035   6.455   4.911   0.265  0.5479  1.5099 -1.2898
 3134TIP3   OH231036   2.907   2.531   0.749 -0.2566  0.2422 -0.2058
 3134TIP3    H131037   2.870   2.450   0.785  0.1303  0.8750  1.7524
 3134TIP3    H231038   2.977   2.502   0.691  0.9276 -0.8519  1.6781
 3135TIP3   OH231039   4.508   2.566   2.644  0.4145  0.0132  0.4803
 3135TIP3    H131040   4.546   2.550   2.557 -0.3961  3.3804 -0.6667
 3135TIP3    H231041   4.583   2.563   2.704  1.6816  1.2923 -0.9479
 3136TIP3   OH231042   5.584   4.308   8.848  0.2836  0.1008  0.0017
 3136TIP3    H131043   5.522   4.321   8.776  0.1894 -1.6287 -0.2743
 3136TIP3    H231044   5.623   4.223   8.830  0.4902 -0.2276  1.8307
 3137TIP3   OH231045   2.796   6.189   0.677 -0.0848 -0.1764 -0.6969
 3137TIP3    H131046   2.881   6.145   0.685  0.1349  0.2025 -0.9510
 3137TIP3    H231047   2.743   6.129   0.624  0.0981 -0.3054 -0.7349
 3138TIP3   OH231048   3.070   5.676   9.695  0.0361  0.5844 -0.1081
 3138TIP3    H131049   3.157   5.714   9.708 -0.0821  0.8736 -0.1367
 3138TIP3    H231050   3.049   5.634   9.778 -0.8213  2.6407  0.7948
 3139TIP3   OH231051   0.022   1.267   9.399  0.8600 -0.0809  0.1836
 3139TIP3    H131052   0.019   1.282   9.494  0.5740 -1.1892  0.3613
 3139TIP3    H231053  -0.047   1.322   9.363 -1.3743 -2.1504  1.0007
 3140TIP3   OH231054   5.650   4.965   3.518 -0.0037 -0.3248  0.0374
 3140TIP3    H131055   5.652   4.963   3.614  0.1712 -0.1040  0.0398
 3140TIP3    H231056   5.565   5.002   3.496  0.7658  1.6241  0.1460
 3141TIP3   OH231057   2.068   0.767   0.242  0.6111  0.1811  0.4207
 3141TIP3    H131058   2.083   0.728   0.328 -0.2184 -0.2273  0.3842
 3141TIP3    H231059   1.982   0.735   0.215 -0.1542  2.0844  0.4336
 3142TIP3   OH231060   2.165   2.058   1.970 -0.2066  0.2579  0.2890
 3142TIP3    H131061   2.086   2.046   1.918 -0.2573 -1.3346  0.6921
 3142TIP3    H231062   2.180   2.153   1.969 -1.2214  0.4346 -1.0886
 3143TIP3   OH231063   3.372   3.556   9.527  0.5227 -0.0739  0.4322
 3143TIP3    H131064   3.358   3.612   9.604  0.8338  0.2895  0.2307
 3143TIP3    H231065   3.318   3.595   9.459  0.2106 -0.4237  0.4769
 3144TIP3   OH231066   4.804   6.269   9.224  0.2736  0.0205  0.2618
 3144TIP3    H131067   4.891   6.290   9.259  0.5646  0.6250 -0.7702
 3144TIP3    H231068   4.769   6.204   9.284  1.1440  0.3062  1.1123
 3145TIP3   OH231069   5.908   5.813   1.403  0.1240 -0.4671 -0.0492
 3145TIP3    H131070   5.867   5.862   1.475 -2.1407 -1.1106 -0.8147
 3145TIP3    H231071   5.985   5.773   1.442  1.5634  2.8598  0.8698
 3146TIP3   OH231072   1.695   2.692   2.755  0.1637 -0.1262 -0.0462
 3146TIP3    H131073   1.609   2.660   2.782 -0.3201  1.0909 -0.0725
 3146TIP3    H231074   1.678   2.744   2.677  0.8954  0.3322  0.0880
 3147TIP3   OH231075   3.010   5.982   9.052  0.1843  0.3155  0.0062
 3147TIP3    H131076   3.018   6.030   8.969 -0.8033 -0.7021 -0.7072
 3147TIP3    H231077   3.041   6.044   9.118  2.3381  0.6706 -1.2404
 3148TIP3   OH231078   3.878   0.185   9.988  0.5640 -0.2971  0.7688
 3148TIP3    H131079   3.823   0.220   9.918  1.7314 -1.1513 -0.6385
 3148TIP3    H231080   3.867   0.090   9.981  1.1805 -0.4143  1.3289
 3149TIP3   OH231081   5.767   1.073   1.531  0.6374  0.1948  0.3332
 3149TIP3    H131082   5.743   1.142   1.594  1.0697 -0.9245  1.7807
 3149TIP3    H231083   5.690   1.017   1.526 -0.4208  1.7550 -2.3014
 3150TIP3   OH231084   5.650   2.441   8.145 -0.2922 -0.5759  0.0342
 3150TIP3    H131085   5.595   2.455   8.069  1.4269 -0.2871 -1.2171
 3150TIP3    H231086   5.700   2.362   8.124 -1.2446 -1.7160  1.7921
 3151TIP3   OH231087   3.575   6.180   0.669 -0.0612 -0.1882  0.6508
 3151TIP3    H131088   3.630   6.124   0.725  1.9325  0.1517 -0.8521
 3151TIP3    H231089   3.570   6.132   0.586 -1.4149  0.1774  0.5094
 3152TIP3   OH231090   0.804   5.882   0.659  0.2341  0.7880  0.5147
 3152TIP3    H131091   0.790   5.795   0.622 -1.0729  1.2941 -0.2463
 3152TIP3    H231092   0.883   5.914   0.615  1.0472 -0.1960  1.1977
 3153TIP3   OH231093   0.563   1.057   9.136  0.2216 -0.0835 -0.1568
 3153TIP3    H131094   0.532   1.117   9.204 -1.6339 -0.8503 -0.2755
 3153TIP3    H231095   0.650   1.091   9.112 -0.0241  1.4896  1.0167
 3154TIP3   OH231096   1.729   6.187   6.925 -0.0582 -0.3787 -0.2469
 3154TIP3    H131097   1.663   6.145   6.870 -0.1919  0.1425 -0.4918
 3154TIP3    H231098   1.790   6.227   6.863 -0.8717  1.2499 -0.0385
 3155TIP3   OH231099   1.225   1.447   2.724  0.2360 -0.1153 -0.2278
 3155TIP3    H131100   1.230   1.418   2.815 -0.4062  1.4458  0.3378
 3155TIP3    H231101   1.316   1.447   2.694  0.4606 -0.6084  0.4061
 3156TIP3   OH231102   2.225   5.377   8.778 -0.0122  0.3147  0.4985
 3156TIP3    H131103   2.173   5.338   8.848  1.0024 -0.7519  0.7027
 3156TIP3    H231104   2.179   5.458   8.756 -2.6584 -1.3176 -0.4707
 3157TIP3   OH231105   0.310   3.232   8.579  0.1234 -0.0331 -0.2535
 3157TIP3    H131106   0.374   3.249   8.509  0.8667  1.0572  0.6464
 3157TIP3    H231107   0.317   3.309   8.636 -1.2897 -0.3698  0.4076
 3158TIP3   OH231108   0.622   0.663   9.697  0.4268  0.1121 -0.6410
 3158TIP3    H131109   0.540   0.710   9.707  0.7512  0.4608  0.4401
 3158TIP3    H231110   0.627   0.643   9.603 -2.5745 -3.0264 -0.3346
 3159TIP3   OH231111   2.267   4.486   0.366  0.1921 -0.2072 -0.5818
 3159TIP3    H131112   2.262   4.580   0.351 -0.9895  0.0066  0.9564
 3159TIP3    H231113   2.355   4.462   0.337  1.0789  1.6426  0.4145
 3160TIP3   OH231114   0.500   0.429   9.191  0.1535 -0.7489  0.3973
 3160TIP3    H131115   0.503   0.488   9.116  1.4306 -0.1827  0.8686
 3160TIP3    H231116   0.418   0.381   9.180 -0.0523 -0.1407 -0.9414
 3161TIP3   OH231117   5.527   4.654   2.338  0.0133  0.5662  0.2531
 3161TIP3    H131118   5.559   4.661   2.249  1.4166  1.1018  0.7666
 3161TIP3    H231119   5.533   4.561   2.359  2.0001  0.7315  0.5727
 3162TIP3   OH231120   1.811   6.099   7.183 -0.6077 -0.3942  0.0760
 3162TIP3    H131121   1.839   6.008   7.184  0.7180 -0.0155 -0.0244
 3162TIP3    H231122   1.798   6.119   7.090 -0.6776 -0.4265  0.0794
 3163TIP3   OH231123   4.645   2.314   9.764  0.1905  0.0416 -0.7059
 3163TIP3    H131124   4.583   2.279   9.699 -0.2535  0.1385 -0.3363
 3163TIP3    H231125   4.595   2.379   9.812  0.0077 -1.1725  0.8298
 3164TIP3   OH231126   0.153   2.403   8.511  0.6741  0.0942  0.2035
 3164TIP3    H131127   0.231   2.352   8.529  0.5605 -0.0902  0.1817
 3164TIP3    H231128   0.140   2.457   8.589 -0.1087 -1.0727  0.9185
 3165TIP3   OH231129   6.209   6.310   9.647 -0.4916 -0.0153  0.1928
 3165TIP3    H131130   6.131   6.360   9.673 -0.4450  0.0637  0.1790
 3165TIP3    H231131   6.176   6.220   9.636 -0.7115  0.1306 -0.4132
 3166TIP3   OH231132   0.285   0.450   8.638  0.3042  0.3537 -0.2079
 3166TIP3    H131133   0.333   0.506   8.577  2.9248 -2.4193 -0.9477
 3166TIP3    H231134   0.207   0.423   8.590  0.8025  0.6125 -1.1748
 3167TIP3   OH231135   2.065   0.149   8.026  0.4303  0.4944  0.3170
 3167TIP3    H131136   2.078   0.054   8.022  0.0578  0.4543  0.0113
 3167TIP3    H231137   2.136   0.180   8.082 -0.2675 -0.1252  1.5845
 3168TIP3   OH231138   0.638   3.618   1.317 -0.3140  0.0895 -0.5594
 3168TIP3    H131139   0.631   3.676   1.393  0.0016 -1.3119  0.5917
 3168TIP3    H231140   0.620   3.674   1.242 -2.8910  1.0559  0.6823
 3169TIP3   OH231141   2.045   4.490   1.792 -0.4349  0.7012 -0.4149
 3169TIP3    H131142   1.981   4.421   1.774 -0.9981  0.4212  2.3175
 3169TIP3    H231143   2.103   4.453   1.858  0.1396  2.3337  0.0463
 3170TIP3   OH231144   2.011   4.325   1.421 -0.2231  0.0405 -0.2838
 3170TIP3    H131145   1.951   4.251   1.428 -1.2968  0.8265 -0.8932
 3170TIP3    H231146   2.047   4.319   1.333 -0.1165  0.1050 -0.2459
 3171TIP3   OH231147   5.254   6.101   1.395  0.1599 -0.1198 -0.3144
 3171TIP3    H131148   5.163   6.074   1.385  0.3816 -0.8022 -0.6055
 3171TIP3    H231149   5.282   6.061   1.477 -0.1340  1.0693  0.3761
 3172TIP3   OH231150   1.818   5.733   8.764  0.0735  0.5182  0.0057
 3172TIP3    H131151   1.779   5.647   8.777  0.6252  0.3355  0.5380
 3172TIP3    H231152   1.813   5.775   8.851  1.1019  0.4601  0.1055
 3173TIP3   OH231153   5.637   5.529   3.008  0.2902  0.0075  0.5342
 3173TIP3    H131154   5.667   5.552   3.096  0.8450  0.0352  0.3413
 3173TIP3    H231155   5.558   5.583   2.996 -1.0236 -1.5145  1.7952
 3174TIP3   OH231156   1.495   1.512   0.128 -0.1748  0.4164 -0.3311
 3174TIP3    H131157   1.404   1.481   0.125 -0.3578  0.8397  0.5266
 3174TIP3    H231158   1.501   1.573   0.054 -0.4494  0.0268 -0.6810
 3175TIP3   OH231159   5.010   6.256   1.002 -0.1536 -0.7102  0.2886
 3175TIP3    H131160   5.065   6.183   0.973 -2.2556 -1.4570 -2.2523
 3175TIP3    H231161   5.013   6.318   0.929 -0.9314  0.2723  1.0598
 3176TIP3   OH231162   4.192   5.689   1.754 -0.7195  0.4691  0.2654
 3176TIP3    H131163   4.233   5.678   1.840  0.6093 -1.4897 -0.5682
 3176TIP3    H231164   4.229   5.771   1.720  1.0602 -0.2682  0.3445
 3177TIP3   OH231165   1.789   1.312   0.585 -0.0720 -0.2286  0.1274
 3177TIP3    H131166   1.749   1.289   0.501 -2.2016 -0.3954  1.1061
 3177TIP3    H231167   1.796   1.407   0.583  3.4525 -0.3741 -1.6648
 3178TIP3   OH231168   2.634   2.937   2.305  0.5262  0.6344 -0.2388
 3178TIP3    H131169   2.631   2.847   2.272 -0.2214  1.1854 -1.7750
 3178TIP3    H231170   2.726   2.962   2.302  0.8327 -0.2803  0.8512
 3179TIP3   OH231171   6.000   2.478   0.236 -0.0679  0.2585  0.4452
 3179TIP3    H131172   5.949   2.464   0.316 -0.3116 -2.0613 -0.0576
 3179TIP3    H231173   6.084   2.436   0.252  0.2119  0.5448 -0.2095
 3180TIP3   OH231174   1.650   5.211   1.798  0.2364 -0.4395  0.5085
 3180TIP3    H131175   1.558   5.185   1.801  0.2126 -0.5811 -0.7041
 3180TIP3    H231176   1.697   5.133   1.771  0.5416 -0.0440 -0.1449
 3181TIP3   OH231177   4.949   3.091   1.896 -0.3281 -0.0762  0.0898
 3181TIP3    H131178   4.865   3.120   1.859 -0.9744 -2.4554 -0.5165
 3181TIP3    H231179   4.977   3.020   1.838  1.7386  0.1381  0.7418
 3182TIP3   OH231180   1.148   5.626   8.881  0.5559  0.4563  0.4226
 3182TIP3    H131181   1.213   5.672   8.827  0.0347 -0.4717 -1.0392
 3182TIP3    H231182   1.186   5.627   8.969 -0.0395  4.8606  0.8564
 3183TIP3   OH231183   5.970   3.721   1.790 -0.0393  0.5244 -0.5089
 3183TIP3    H131184   5.888   3.673   1.784  0.9589 -1.1500 -1.7881
 3183TIP3    H231185   6.016   3.680   1.863  0.5304 -0.0220 -1.1618
 3184TIP3   OH231186   2.541   2.695   1.195  0.2400  0.5490 -0.0385
 3184TIP3    H131187   2.546   2.669   1.103 -1.1313  0.1885 -0.0372
 3184TIP3    H231188   2.558   2.614   1.243 -1.4676  0.1605 -0.0188
 3185TIP3   OH231189   0.098   3.032   3.082  0.2790 -0.2050  0.8291
 3185TIP3    H131190   0.111   2.938   3.078  1.0394 -0.0859  0.3645
 3185TIP3    H231191   0.058   3.047   3.167  2.8107 -0.6539  2.2004
 3186TIP3   OH231192   1.609   0.965   7.178 -0.4587 -0.4152  0.5944
 3186TIP3    H131193   1.600   1.025   7.252 -0.1637 -0.0583  0.3442
 3186TIP3    H231194   1.695   0.925   7.190 -0.6006 -0.6970  0.6907
 3187TIP3   OH231195   4.282   2.913   3.005 -0.0739 -0.6024  0.6764
 3187TIP3    H131196   4.248   2.886   2.919  0.4983 -1.5424  0.7280
 3187TIP3    H231197   4.206   2.914   3.062 -0.3531 -0.5960  0.3097
 3188TIP3   OH231198   3.800   3.117   9.904 -0.1124 -0.1451 -0.2294
 3188TIP3    H131199   3.782   3.023   9.906  0.1071 -0.1901 -0.4042
 3188TIP3    H231200   3.714   3.158   9.909 -0.2336 -0.3590 -0.5395
 3189TIP3   OH231201   1.296   3.559   8.720  0.1609  0.1826  0.0654
 3189TIP3    H131202   1.219   3.516   8.758 -0.3357  0.8196 -0.2034
 3189TIP3    H231203   1.279   3.653   8.732  1.4472  0.3142  1.0784
 3190TIP3   OH231204   5.934   1.606   0.756  0.2083 -0.3952 -0.2308
 3190TIP3    H131205   5.853   1.567   0.722  0.9725 -2.5533  0.2968
 3190TIP3    H231206   6.003   1.575   0.698  0.9840 -0.7267  0.8233
 3191TIP3   OH231207   0.512   4.863   1.614  0.6430 -0.5260 -0.1956
 3191TIP3    H131208   0.563   4.928   1.663  0.2707  0.8242 -1.5356
 3191TIP3    H231209   0.577   4.819   1.559  0.8823 -1.2873  0.6568
 3192TIP3   OH231210   2.798   3.601   2.372 -0.1863 -0.0116  0.0120
 3192TIP3    H131211   2.874   3.653   2.399  0.8336 -1.2860 -0.3478
 3192TIP3    H231212   2.832   3.513   2.359 -1.7853 -0.6649  0.0657
 3193TIP3   OH231213   2.250   0.823   9.239 -0.1886 -0.1571 -0.1209
 3193TIP3    H131214   2.250   0.858   9.150 -0.6316 -0.3388 -0.1956
 3193TIP3    H231215   2.277   0.732   9.229  1.5483  0.2986  0.1375
 3194TIP3   OH231216   1.288   4.584   0.763 -0.6198  0.2718 -0.0047
 3194TIP3    H131217   1.342   4.636   0.703 -1.1544 -1.7503 -2.4349
 3194TIP3    H231218   1.198   4.602   0.736 -0.8576 -0.8733 -0.0190
 3195TIP3   OH231219   4.632   3.011   1.468  0.3161 -0.5833  0.4083
 3195TIP3    H131220   4.627   2.919   1.441 -0.7356 -0.8841  1.5446
 3195TIP3    H231221   4.715   3.017   1.516  1.2919 -0.4736 -1.2134
 3196TIP3   OH231222   1.978   3.236   0.612  0.1514 -0.6843  1.5082
 3196TIP3    H131223   2.006   3.223   0.702  0.6647 -1.5411  1.2358
 3196TIP3    H231224   2.024   3.169   0.562  0.4246  0.2243  0.4938
 3197TIP3   OH231225   5.057   5.068   0.301 -0.8927 -0.4840 -0.1962
 3197TIP3    H131226   5.071   5.110   0.386 -0.1226 -0.8422 -0.1413
 3197TIP3    H231227   5.104   4.985   0.307  0.7510  0.3022 -1.6109
 3198TIP3   OH231228   4.246   4.306   4.055  0.9223  0.1208 -0.1634
 3198TIP3    H131229   4.167   4.252   4.048  0.6755  0.6573 -2.4180
 3198TIP3    H231230   4.216   4.395   4.034  2.0049  0.4439 -0.3959
 3199TIP3   OH231231   2.266   3.321   0.020  0.7982 -0.1331  0.0004
 3199TIP3    H131232   2.215   3.309   0.100 -0.3222 -0.0898 -0.6771
 3199TIP3    H231233   2.263   3.235  -0.024 -0.5966  0.4252 -1.0931
 3200TIP3   OH231234   3.760   6.345   9.967 -0.5119  0.2261 -0.3588
 3200TIP3    H131235   3.670   6.369   9.944 -0.5081  0.3462 -0.2505
 3200TIP3    H231236   3.759   6.250   9.973 -1.1708  0.3060  1.8536
 3201TIP3   OH231237   5.888   3.709   0.027  0.1569 -0.4630 -0.1635
 3201TIP3    H131238   5.850   3.684   0.111 -1.1060  0.9982 -0.2497
 3201TIP3    H231239   5.983   3.705   0.042 -0.0208  0.9813  1.7519
 3202TIP3   OH231240   0.773   0.587   9.919 -0.1340 -0.2442 -0.3003
 3202TIP3    H131241   0.724   0.585   9.837 -2.6340  0.6613  1.0432
 3202TIP3    H231242   0.814   0.673   9.920 -1.6758  0.5209  0.1837
 3203TIP3   OH231243   1.210   4.757   8.534 -0.0024 -0.3297  0.4260
 3203TIP3    H131244   1.302   4.729   8.533 -0.2222 -1.0378  0.2853
 3203TIP3    H231245   1.208   4.833   8.475  0.8504  0.8550  1.8311
 3204TIP3   OH231246   4.106   5.094   8.271 -0.2399  0.4482 -0.2234
 3204TIP3    H131247   4.170   5.046   8.219 -0.6432  1.4844 -1.7506
 3204TIP3    H231248   4.138   5.184   8.272 -0.4434  0.5177  1.0285
 3205TIP3   OH231249   3.035   4.107   1.785 -0.1825  0.0339 -0.7222
 3205TIP3    H131250   3.043   4.141   1.696  0.9556 -1.5183 -1.2334
 3205TIP3    H231251   3.028   4.186   1.839 -0.9292  1.0038 -2.1600
 3206TIP3   OH231252   1.455   5.775   7.908  0.1790 -0.7815 -0.2176
 3206TIP3    H131253   1.546   5.800   7.895  0.2745 -1.7778 -1.6556
 3206TIP3    H231254   1.428   5.738   7.825 -1.8649  0.3858 -0.1269
 3207TIP3   OH231255   5.971   4.697   9.712 -0.0030  0.2701 -0.4859
 3207TIP3    H131256   5.931   4.686   9.626  1.3919  1.2955 -1.3124
 3207TIP3    H231257   5.977   4.609   9.747  1.5805 -0.5164 -2.4961
 3208TIP3   OH231258   1.413   4.108   9.419 -0.3161  0.6045 -0.0905
 3208TIP3    H131259   1.328   4.125   9.459 -0.9259 -1.4613 -0.3900
 3208TIP3    H231260   1.475   4.107   9.492 -1.3909 -3.0089  0.9742
 3209TIP3   OH231261   1.105   0.889   9.605  0.1456  0.6175  0.4817
 3209TIP3    H131262   1.040   0.835   9.650  0.5104  1.0870  1.6068
 3209TIP3    H231263   1.062   0.975   9.596  0.3811  0.7575  0.6798
 3210TIP3   OH231264   1.892   5.759   9.241 -0.6344  0.0034 -0.0348
 3210TIP3    H131265   1.952   5.829   9.266 -1.7534  0.9464  0.1020
 3210TIP3    H231266   1.945   5.700   9.187  0.4531  0.6921  0.2561
 3211TIP3   OH231267   1.305   4.292   2.201  0.0833  0.5975 -0.2013
 3211TIP3    H131268   1.248   4.358   2.159 -1.3455 -1.2283 -1.2745
 3211TIP3    H231269   1.316   4.324   2.291 -1.9199  1.4784 -0.2152
 3212TIP3   OH231270   1.590   1.576   2.356  0.0364  0.4772 -0.4864
 3212TIP3    H131271   1.577   1.485   2.379  0.0480  1.1039  2.4069
 3212TIP3    H231272   1.675   1.578   2.312 -1.1386 -1.1852 -3.0122
 3213TIP3   OH231273   4.011   0.338   0.368 -0.6325  0.3571 -0.5584
 3213TIP3    H131274   4.019   0.330   0.463  0.0287 -0.5297 -0.6832
 3213TIP3    H231275   3.973   0.425   0.355 -2.3170 -0.1518  0.5803
 3214TIP3   OH231276   1.834   4.926   0.327 -0.4024 -0.3289 -0.0552
 3214TIP3    H131277   1.878   4.888   0.251 -0.2229 -0.9775  0.3599
 3214TIP3    H231278   1.781   4.854   0.362 -0.7723  0.0724  0.2093
 3215TIP3   OH231279   0.817   2.824   1.441 -0.2647  0.0567 -0.2489
 3215TIP3    H131280   0.813   2.896   1.378  1.3347 -0.4034 -0.9226
 3215TIP3    H231281   0.820   2.868   1.526 -0.5616  0.7540 -0.5918
 3216TIP3   OH231282   4.269   4.605   0.208  0.7224  0.0913 -0.1985
 3216TIP3    H131283   4.231   4.624   0.294 -0.4851 -0.2801 -0.6260
 3216TIP3    H231284   4.258   4.686   0.159 -0.9090 -0.4526 -0.7903
 3217TIP3   OH231285   3.309   2.672   2.254 -0.0921  0.4191 -0.0621
 3217TIP3    H131286   3.277   2.686   2.165 -0.9305  0.2715  0.2046
 3217TIP3    H231287   3.318   2.577   2.261 -1.6028  0.2759  0.5080
 3218TIP3   OH231288   1.096   5.635   0.677  0.0620  0.3246  0.6241
 3218TIP3    H131289   1.036   5.684   0.621 -0.6298 -1.1892 -0.0415
 3218TIP3    H231290   1.173   5.691   0.687  0.8998  0.0638 -3.1504
 3219TIP3   OH231291   3.033   2.676   1.653 -0.9118 -0.5479 -0.0554
 3219TIP3    H131292   3.110   2.636   1.614  1.6151  0.7530  3.1778
 3219TIP3    H231293   2.985   2.603   1.692 -0.0117 -1.1421 -0.0373
 3220TIP3   OH231294   2.391   5.471   8.564  0.1557  0.0881 -0.4722
 3220TIP3    H131295   2.356   5.482   8.653  0.3977  3.0091 -0.6677
 3220TIP3    H231296   2.400   5.376   8.555 -0.9251 -0.3807  2.2010
 3221TIP3   OH231297   0.140   2.402   2.594 -0.2928 -0.0625  0.1245
 3221TIP3    H131298   0.214   2.447   2.634 -1.4793  0.5279  1.7526
 3221TIP3    H231299   0.100   2.353   2.667 -1.0981 -0.9213 -0.8677
 3222TIP3   OH231300   3.630   3.984  10.006  0.3407 -0.1202  0.2910
 3222TIP3    H131301   3.693   4.014  10.071  2.1341 -0.7250 -1.0833
 3222TIP3    H231302   3.683   3.941   9.939 -1.6224 -1.4306 -0.5278
 3223TIP3   OH231303   2.320   5.558   7.800 -0.1972  0.1651 -0.5929
 3223TIP3    H131304   2.340   5.550   7.894  0.1000 -0.5728 -0.7166
 3223TIP3    H231305   2.265   5.636   7.795  1.8624  1.7625 -0.1255
 3224TIP3   OH231306   1.819   5.689   1.153 -0.1868 -1.0930 -0.6027
 3224TIP3    H131307   1.752   5.752   1.180 -0.1206 -0.5393 -1.6665
 3224TIP3    H231308   1.808   5.681   1.059  0.5658 -1.8053 -0.6455
 3225TIP3   OH231309   0.611   5.061   1.351 -0.1923 -0.5469  0.2143
 3225TIP3    H131310   0.672   5.132   1.373 -0.6919  0.0165 -0.1985
 3225TIP3    H231311   0.646   4.985   1.397  1.3997 -0.4834 -0.7928
 3226TIP3   OH231312   5.114   0.620   8.419 -0.2928 -0.5329  0.2336
 3226TIP3    H131313   5.076   0.540   8.382 -1.6558  0.3659 -0.4004
 3226TIP3    H231314   5.207   0.613   8.400 -0.8444 -0.2998 -3.1945
 3227TIP3   OH231315   3.539   5.531   2.372 -0.1148 -0.2392 -0.3162
 3227TIP3    H131316   3.611   5.468   2.378  0.5380  0.5957  1.1222
 3227TIP3    H231317   3.575   5.604   2.323  0.5453  0.7855  1.5778
 3228TIP3   OH231318   2.531   5.620   1.539 -0.6225  0.5056  0.3100
 3228TIP3    H131319   2.530   5.714   1.524 -1.3483  0.4238 -0.1792
 3228TIP3    H231320   2.454   5.603   1.594 -0.1389  0.2765  0.9392
 3229TIP3   OH231321   3.968   5.097   9.380  0.5578  0.9775 -0.0538
 3229TIP3    H131322   4.061   5.122   9.374  0.7098  0.6538  0.8772
 3229TIP3    H231323   3.950   5.093   9.474 -0.7301  2.2131 -0.2054
 3230TIP3   OH231324   0.850   2.525   0.050  0.5589  0.0472 -0.2195
 3230TIP3    H131325   0.797   2.461   0.003  0.1089 -0.7221  1.2706
 3230TIP3    H231326   0.916   2.473   0.095 -0.5564  0.4320  2.0027
 3231TIP3   OH231327   1.011   2.744   9.715  0.0064  0.3058 -0.3868
 3231TIP3    H131328   0.956   2.808   9.669 -2.2101 -1.1132  0.1280
 3231TIP3    H231329   1.025   2.784   9.801 -0.9359  0.3621 -0.2429
 3232TIP3   OH231330   4.730   4.831   0.849 -0.7539  0.2087 -0.3768
 3232TIP3    H131331   4.791   4.904   0.836  0.2444 -0.6918 -0.8995
 3232TIP3    H231332   4.780   4.753   0.826 -1.5335 -0.7405  1.0082
 3233TIP3   OH231333   4.078   5.555   3.104 -0.2679 -0.2736  0.0254
 3233TIP3    H131334   4.008   5.541   3.169  0.7993  0.0797  1.3006
 3233TIP3    H231335   4.117   5.639   3.129  0.2373 -0.1881 -1.0270
 3234TIP3   OH231336   0.169   1.619   8.459 -0.3008 -0.3872  1.0667
 3234TIP3    H131337   0.148   1.572   8.379 -0.5241  0.8257  0.3837
 3234TIP3    H231338   0.258   1.651   8.446 -0.7341  0.7765  0.7916
 3235TIP3   OH231339   1.397   3.008   3.283 -0.6804 -0.1662  0.0994
 3235TIP3    H131340   1.325   2.963   3.328 -1.1442 -0.8130 -1.2371
 3235TIP3    H231341   1.434   2.941   3.224  0.6428  0.3239  0.3314
 3236TIP3   OH231342   2.992   0.222   0.054  0.0213 -0.6749  0.0096
 3236TIP3    H131343   2.933   0.239   0.128  1.3691 -0.5361  1.0848
 3236TIP3    H231344   2.940   0.243  -0.023 -0.7807  1.1868  0.9946
 3237TIP3   OH231345   6.275   3.644   2.186  0.2778  0.6647 -0.2243
 3237TIP3    H131346   6.292   3.664   2.278  0.5343  0.8713 -0.3167
 3237TIP3    H231347   6.291   3.727   2.140 -0.1238  0.6349 -0.4199
 3238TIP3   OH231348   4.013   3.011   9.706  0.0406 -0.2277  0.5485
 3238TIP3    H131349   4.039   2.936   9.653  0.6183 -0.3659  1.0275
 3238TIP3    H231350   3.965   2.973   9.780  1.6650 -0.2712  1.6264
 3239TIP3   OH231351   0.896   1.972   1.679  0.6716  0.0684 -0.2781
 3239TIP3    H131352   0.963   1.911   1.649  0.8035 -0.3194  0.7656
 3239TIP3    H231353   0.850   1.925   1.749  0.8756  1.2067  0.6477
 3240TIP3   OH231354   2.066   3.801   2.074 -0.0434 -0.1584 -0.1981
 3240TIP3    H131355   2.006   3.872   2.094  1.5024  1.4796 -1.0226
 3240TIP3    H231356   2.051   3.782   1.981 -0.4465 -0.9443  0.0153
 3241TIP3   OH231357   3.485   0.778   9.178 -0.0691 -0.4398 -0.1064
 3241TIP3    H131358   3.420   0.845   9.156  0.4358 -0.3756 -1.5341
 3241TIP3    H231359   3.509   0.797   9.269  1.3709  2.4963 -0.9746
 3242TIP3   OH231360   0.559   3.993   8.884 -0.2334 -0.4500 -0.1157
 3242TIP3    H131361   0.524   4.023   8.799 -1.4479  1.2935  0.9212
 3242TIP3    H231362   0.581   4.074   8.930  1.6941 -1.4180  0.7402
 3243TIP3   OH231363   0.274   1.624   3.226 -0.5502 -0.3940 -0.1430
 3243TIP3    H131364   0.282   1.538   3.267 -0.7703 -0.6507 -0.6268
 3243TIP3    H231365   0.332   1.681   3.277 -1.0445 -0.6281  0.7167
 3244TIP3   OH231366   4.031   6.058   1.532 -0.2712 -0.1125  0.2341
 3244TIP3    H131367   4.083   6.009   1.468  0.4932 -0.6592  1.2495
 3244TIP3    H231368   3.988   5.990   1.585  0.8260  0.2890  1.6818
 3245TIP3   OH231369   5.740   1.206   0.429 -0.2641 -0.2782  0.7370
 3245TIP3    H131370   5.705   1.269   0.366  0.2711  0.4323  1.1355
 3245TIP3    H231371   5.675   1.205   0.500 -0.3987 -0.3728  0.6146
 3246TIP3   OH231372   2.876   2.921   3.219 -0.0015 -0.0711  0.3002
 3246TIP3    H131373   2.791   2.964   3.222  0.0311 -0.0251  1.8610
 3246TIP3    H231374   2.860   2.834   3.255  0.4897 -0.2845  0.0115
 3247TIP3   OH231375   0.142   2.815   7.480 -0.4310  0.2694  0.1476
 3247TIP3    H131376   0.098   2.860   7.552  0.6752  0.5714  0.6596
 3247TIP3    H231377   0.082   2.745   7.455 -1.2490  0.7432  0.7348
 3248TIP3   OH231378   4.103   2.141   1.500 -0.3419 -0.3576 -0.4067
 3248TIP3    H131379   4.094   2.231   1.469  0.3414 -0.3187 -0.4969
 3248TIP3    H231380   4.149   2.096   1.429  1.9799 -0.0831  0.8448
 3249TIP3   OH231381   5.061   3.844   1.479  0.7994 -0.1312 -0.3775
 3249TIP3    H131382   5.039   3.848   1.572  0.7666  0.1009 -0.3952
 3249TIP3    H231383   5.043   3.932   1.446  3.0056  0.4544 -0.1290
 3250TIP3   OH231384   0.368   3.324   9.603  0.1684 -0.0760 -0.1387
 3250TIP3    H131385   0.374   3.229   9.596  3.2614 -0.2868  2.8037
 3250TIP3    H231386   0.454   3.355   9.573 -0.1393  1.6178  0.6073
 3251TIP3   OH231387   3.184   1.855   0.428  0.1741  0.3590 -0.0191
 3251TIP3    H131388   3.207   1.786   0.492  1.2161  0.5819 -0.1422
 3251TIP3    H231389   3.152   1.806   0.352 -1.5964  0.0957  0.8187
 3252TIP3   OH231390   1.341   3.752   9.124  0.0638  0.1342 -0.2805
 3252TIP3    H131391   1.322   3.747   9.218 -1.9676  0.5473 -0.6314
 3252TIP3    H231392   1.257   3.740   9.081  1.1503 -1.5636 -2.1358
 3253TIP3   OH231393   1.652   0.141   9.493  0.1271  0.3408 -0.2681
 3253TIP3    H131394   1.734   0.176   9.457  1.0168 -0.4231  0.9590
 3253TIP3    H231395   1.675   0.053   9.521 -1.5231 -0.4533 -1.2958
 3254TIP3   OH231396   4.657   3.118   9.636 -0.2100  0.0239 -0.3594
 3254TIP3    H131397   4.652   3.144   9.728  2.9507  0.3825 -0.1959
 3254TIP3    H231398   4.678   3.199   9.589  3.4641 -0.9226 -0.6395
 3255TIP3   OH231399   1.628   2.957   9.491  0.4527 -0.5121  0.2867
 3255TIP3    H131400   1.702   2.990   9.441  1.6294 -1.5639  1.2753
 3255TIP3    H231401   1.594   2.884   9.438 -1.0925  1.0939 -1.0675
 3256TIP3   OH231402   2.238   5.205   1.604 -0.2208 -0.0846  0.4308
 3256TIP3    H131403   2.156   5.191   1.558  0.2461  0.6299 -0.6673
 3256TIP3    H231404   2.277   5.118   1.611 -0.3564 -0.2289 -0.4627
 3257TIP3   OH231405   4.629   5.109   9.544  0.1268 -0.2138 -0.6676
 3257TIP3    H131406   4.666   5.190   9.580 -1.0337  0.5989 -1.2099
 3257TIP3    H231407   4.542   5.102   9.584 -1.3024  0.8334 -3.2907
 3258TIP3   OH231408   3.137   2.408   0.603 -0.3952 -0.6698 -0.0818
 3258TIP3    H131409   3.193   2.339   0.638  0.4617 -1.3388 -2.5511
 3258TIP3    H231410   3.196   2.464   0.553 -1.8378 -1.4711 -2.8824
 3259TIP3   OH231411   2.313   0.159   7.819  0.4527 -0.1786 -0.2226
 3259TIP3    H131412   2.362   0.209   7.885 -0.6931  1.0098 -0.2131
 3259TIP3    H231413   2.226   0.200   7.819 -0.0216 -1.1380 -1.4141
 3260TIP3   OH231414   0.872   2.735   8.013  0.6734  0.2335 -0.0954
 3260TIP3    H131415   0.962   2.736   7.978  1.4315 -0.1782  1.7269
 3260TIP3    H231416   0.828   2.666   7.963  1.7475 -0.4385 -0.1511
 3261TIP3   OH231417   3.918   5.417   2.258  0.1704 -0.0182 -0.0361
 3261TIP3    H131418   3.898   5.490   2.316 -0.0421 -0.1146  0.0111
 3261TIP3    H231419   3.869   5.437   2.178 -1.3015 -0.9843  0.5876
 3262TIP3   OH231420   5.598   2.616   8.865  0.0856  0.1030  0.2466
 3262TIP3    H131421   5.688   2.650   8.870  0.4780 -1.0002  0.9647
 3262TIP3    H231422   5.591   2.579   8.777  0.0742  0.8418 -0.0775
 3263TIP3   OH231423   4.714   4.927   3.009  0.0447  0.3365  0.1982
 3263TIP3    H131424   4.745   4.936   3.099 -3.1343 -0.4846  1.5043
 3263TIP3    H231425   4.622   4.954   3.012 -0.5348 -0.9917 -2.5195
 3264TIP3   OH231426   6.289   3.079   0.442  0.3196 -0.0698  0.7125
 3264TIP3    H131427   6.379   3.076   0.474  0.5281 -0.9867  0.0850
 3264TIP3    H231428   6.245   3.007   0.487  0.5203 -1.1329 -0.7083
 3265TIP3   OH231429   1.002   5.009   8.696 -0.5540 -0.0126 -0.1158
 3265TIP3    H131430   0.980   4.953   8.621  0.2758  0.5917 -0.8238
 3265TIP3    H231431   1.044   5.086   8.657  0.8794 -0.1799  1.0478
 3266TIP3   OH231432   5.674   6.323   0.777 -0.2539  0.4963  0.1291
 3266TIP3    H131433   5.678   6.404   0.827 -0.3881 -0.1821  1.2798
 3266TIP3    H231434   5.726   6.340   0.698  1.3329  1.0588  1.2567
 3267TIP3   OH231435   1.701   5.449   0.439  0.2288  0.1172  0.1113
 3267TIP3    H131436   1.740   5.375   0.391  2.3639  0.2487  1.4902
 3267TIP3    H231437   1.682   5.414   0.526 -1.6419  0.4245 -0.1348
 3268TIP3   OH231438   1.187   3.555   0.629  0.2703  0.1955  0.0935
 3268TIP3    H131439   1.156   3.550   0.538  0.4295  0.0298  0.0481
 3268TIP3    H231440   1.121   3.506   0.679  0.0342  0.5232  0.1066
 3269TIP3   OH231441   0.994   2.263   8.880 -0.1076 -0.5753  0.3581
 3269TIP3    H131442   1.085   2.245   8.857 -0.3365  1.0656 -2.1731
 3269TIP3    H231443   0.944   2.193   8.837 -0.1358 -0.8910  0.8944
 3270TIP3   OH231444   3.876   5.611   2.936 -0.1329 -0.0586 -0.1106
 3270TIP3    H131445   3.955   5.601   2.990 -0.5187  0.3824  0.5499
 3270TIP3    H231446   3.813   5.551   2.975 -0.9394  1.4222  0.9568
 3271TIP3   OH231447   5.718   0.746   1.707 -0.4986  0.0172 -0.8643
 3271TIP3    H131448   5.776   0.739   1.630  0.3403  1.0443 -0.3595
 3271TIP3    H231449   5.778   0.748   1.782 -1.2906 -0.6293 -0.1957
 3272TIP3   OH231450   5.291   3.196   9.509  0.6759 -0.5577 -0.2116
 3272TIP3    H131451   5.350   3.151   9.449  0.0074 -0.3263 -1.0619
 3272TIP3    H231452   5.307   3.289   9.493  1.3077 -0.4751  0.7981
 3273TIP3   OH231453   4.101   4.484   1.915  0.4731 -0.5070  0.2881
 3273TIP3    H131454   4.083   4.566   1.960 -0.5719 -1.1680  1.1380
 3273TIP3    H231455   4.185   4.498   1.871 -0.3247  1.4496 -0.6905
 3274TIP3   OH231456   0.636   0.065   0.370  0.1955  0.0490  0.4435
 3274TIP3    H131457   0.720   0.027   0.348  0.2478 -0.5804  1.6834
 3274TIP3    H231458   0.584  -0.008   0.404 -0.8065  0.4548 -0.1658
 3275TIP3   OH231459   0.304   3.231   2.807  0.2170  0.0202 -0.2988
 3275TIP3    H131460   0.290   3.290   2.880 -0.7149  0.0691 -0.5063
 3275TIP3    H231461   0.346   3.154   2.845 -1.6693 -0.6279  0.5997
 3276TIP3   OH231462   2.535   3.858   2.883 -0.7763  0.1231  0.4370
 3276TIP3    H131463   2.475   3.824   2.816 -1.9860 -3.1345  2.8805
 3276TIP3    H231464   2.481   3.918   2.935 -0.4537  0.9684 -0.1797
 3277TIP3   OH231465   0.849   3.453   0.986  0.8790 -0.2098  0.2829
 3277TIP3    H131466   0.890   3.492   1.064  1.9570 -0.7217 -0.0076
 3277TIP3    H231467   0.837   3.361   1.009 -1.2992  0.1432  0.8194
 3278TIP3   OH231468   4.945   6.323   0.061 -0.8937 -0.1241  0.0329
 3278TIP3    H131469   5.001   6.285   0.129  1.9993  1.3659 -1.3316
 3278TIP3    H231470   4.921   6.409   0.095 -1.4111 -0.2935  0.1109
 3279TIP3   OH231471   1.152   3.992   8.520  0.2670 -0.3756  0.8693
 3279TIP3    H131472   1.091   3.979   8.448  0.6745  0.6052  0.3294
 3279TIP3    H231473   1.163   4.087   8.526  0.7338 -0.4745  1.8027
 3280TIP3   OH231474   4.186   3.697   1.825 -0.0488 -0.1659  0.7795
 3280TIP3    H131475   4.227   3.760   1.884 -1.0058 -0.2128  1.5090
 3280TIP3    H231476   4.096   3.727   1.816 -0.2444 -0.8604  0.3233
 3281TIP3   OH231477   5.264   2.360   9.482  0.1919  0.3035 -0.1861
 3281TIP3    H131478   5.323   2.393   9.414  0.3375  0.8512  0.1982
 3281TIP3    H231479   5.323   2.332   9.553  0.0259  0.0521 -0.1445
 3282TIP3   OH231480   3.541   4.510   3.628 -0.2166  0.0919  0.2437
 3282TIP3    H131481   3.449   4.538   3.627 -0.1797  0.3068  1.6748
 3282TIP3    H231482   3.590   4.590   3.647  0.3261  0.0797 -1.0246
 3283TIP3   OH231483   2.433   2.346   1.771  0.1582 -0.3421 -0.4677
 3283TIP3    H131484   2.391   2.268   1.806  0.1356 -0.0938  0.0861
 3283TIP3    H231485   2.378   2.374   1.698  0.1396 -0.8143 -0.6320
 3284TIP3   OH231486   3.922   3.064   1.347  0.2522 -0.2701 -0.8047
 3284TIP3    H131487   3.962   2.979   1.332  0.1339 -0.5462  0.3244
 3284TIP3    H231488   3.988   3.113   1.397 -1.8680 -1.9022  4.2072
 3285TIP3   OH231489   3.861   5.027   8.351 -0.2356 -0.7179  0.3012
 3285TIP3    H131490   3.814   5.060   8.274 -0.9762 -0.4263  0.8656
 3285TIP3    H231491   3.953   5.027   8.325 -0.5106 -1.0444 -0.7389
 3286TIP3   OH231492   1.967   5.900   9.628  1.0180 -0.7825 -0.2227
 3286TIP3    H131493   1.900   5.957   9.590  0.0196 -0.5510  1.7762
 3286TIP3    H231494   2.049   5.948   9.615  0.2979  0.7690  0.7081
 3287TIP3   OH231495   4.314   5.114   2.748 -0.0251 -0.4188 -0.2326
 3287TIP3    H131496   4.400   5.075   2.732 -0.2136 -0.6728 -0.6100
 3287TIP3    H231497   4.271   5.115   2.663 -0.3551 -0.1818 -0.0664
 3288TIP3   OH231498   6.035   4.425   2.413  0.5087  0.5751 -0.2618
 3288TIP3    H131499   5.943   4.454   2.413  0.3658  0.1993 -1.9201
 3288TIP3    H231500   6.071   4.458   2.331  1.6598  0.0525  0.0132
 3289TIP3   OH231501   0.091   2.770   8.057 -0.9726 -0.3548  0.8677
 3289TIP3    H131502   0.133   2.684   8.063 -0.2764 -0.0732  0.2025
 3289TIP3    H231503  -0.003   2.751   8.060 -0.8200 -1.0729  1.4725
 3290TIP3   OH231504   5.761   2.561   2.746 -0.5437 -0.2923 -0.3127
 3290TIP3    H131505   5.738   2.646   2.785 -0.2107 -1.2981  2.2276
 3290TIP3    H231506   5.679   2.530   2.707 -0.7593  1.0026 -0.9638
 3291TIP3   OH231507   2.897   1.879   7.802  0.0032  0.5786  0.0688
 3291TIP3    H131508   2.916   1.802   7.748  1.8487 -0.7036  2.3787
 3291TIP3    H231509   2.842   1.846   7.873 -2.5953  2.2836 -1.0060
 3292TIP3   OH231510   5.111   1.412   2.279  0.1127  0.2187  0.3003
 3292TIP3    H131511   5.056   1.336   2.264  0.5545  0.0257 -0.4190
 3292TIP3    H231512   5.074   1.480   2.223  1.2286 -0.2346 -1.0629
 3293TIP3   OH231513   4.988   1.181   1.635 -0.1675  0.2392 -0.0442
 3293TIP3    H131514   5.011   1.270   1.606  2.9240 -1.0777 -2.1135
 3293TIP3    H231515   5.032   1.172   1.719 -1.9823  1.1526  1.0820
 3294TIP3   OH231516   1.619   6.034   8.372  1.0700 -0.1447  0.2127
 3294TIP3    H131517   1.611   5.991   8.287 -0.9061 -2.7663  1.5716
 3294TIP3    H231518   1.616   6.127   8.351 -0.9133 -0.6744 -2.5167
 3295TIP3   OH231519   3.377   5.131   1.760 -0.0108  0.5603 -0.0544
 3295TIP3    H131520   3.416   5.137   1.672  0.1545 -0.3638 -0.0589
 3295TIP3    H231521   3.422   5.057   1.800 -1.4283 -0.2302  0.1259
 3296TIP3   OH231522   6.178   2.227   3.441  0.6134  0.1031  0.6978
 3296TIP3    H131523   6.128   2.307   3.455 -1.2092 -0.7703 -0.4847
 3296TIP3    H231524   6.209   2.233   3.350 -0.0951 -0.8004  0.3819
 3297TIP3   OH231525   2.506   1.230   8.602 -0.3129  0.4258 -0.1115
 3297TIP3    H131526   2.523   1.299   8.538 -0.5097 -0.1567 -0.7947
 3297TIP3    H231527   2.592   1.191   8.619 -0.3983 -0.0662 -0.7698
 3298TIP3   OH231528   4.080   1.367   2.023 -0.6324  0.9556  0.0638
 3298TIP3    H131529   4.159   1.393   1.975 -0.5703 -0.7592 -0.8327
 3298TIP3    H231530   4.060   1.443   2.077  2.1532  1.1224  1.0408
 3299TIP3   OH231531   1.980   2.225   1.530 -0.1674  0.2482 -0.4338
 3299TIP3    H131532   1.968   2.131   1.516  3.6787 -0.1096 -2.8714
 3299TIP3    H231533   1.948   2.265   1.449 -1.5529  1.1032  0.4921
 3300TIP3   OH231534   0.860   4.127   8.366 -0.2736  0.6674 -0.1685
 3300TIP3    H131535   0.824   4.039   8.353 -4.5226  2.1111  0.0968
 3300TIP3    H231536   0.871   4.134   8.461 -0.0107  0.4323 -0.1817
 3301TIP3   OH231537   0.804   4.696   8.604  0.5363 -0.2834  0.1590
 3301TIP3    H131538   0.889   4.708   8.646 -0.4796  0.8134  2.0878
 3301TIP3    H231539   0.746   4.670   8.676 -1.4708  2.3581 -0.3433
 3302TIP3   OH231540   4.591   3.650   1.867 -0.8333  0.2833  0.3938
 3302TIP3    H131541   4.653   3.637   1.795 -0.1828  0.6351  0.8772
 3302TIP3    H231542   4.640   3.627   1.945 -2.0220 -1.6369  0.6260
 3303TIP3   OH231543   5.921   0.632   9.717  0.6477  0.1586  0.5652
 3303TIP3    H131544   5.881   0.682   9.646 -0.2199 -0.4511  0.6176
 3303TIP3    H231545   6.014   0.631   9.695  0.2612 -1.0645 -1.2224
 3304TIP3   OH231546   2.655   2.816   9.485 -0.1427  0.0752 -0.4645
 3304TIP3    H131547   2.645   2.726   9.456 -2.1815  0.6492 -1.7870
 3304TIP3    H231548   2.652   2.867   9.404 -0.1235  1.4146  0.3444
 3305TIP3   OH231549   4.697   5.386   0.648  0.6928  0.4403 -0.4790
 3305TIP3    H131550   4.742   5.344   0.575  0.9658 -0.5719  0.2497
 3305TIP3    H231551   4.619   5.333   0.662  0.0965  1.2337 -0.6814
 3306TIP3   OH231552   0.445   0.184   0.554  0.2548  0.3255 -0.4188
 3306TIP3    H131553   0.517   0.214   0.499  1.1682  1.4184  1.2559
 3306TIP3    H231554   0.485   0.121   0.614 -0.3361  0.3851  0.0523
 3307TIP3   OH231555   5.507   3.718   9.302 -0.6219 -0.6448 -0.4469
 3307TIP3    H131556   5.513   3.682   9.213  0.8792  0.1909 -0.7184
 3307TIP3    H231557   5.444   3.790   9.295 -0.5496 -0.6153 -0.8249
 3308TIP3   OH231558   3.046   2.232   9.158 -0.6991  0.1493 -0.0251
 3308TIP3    H131559   3.137   2.203   9.147 -0.6612 -0.2478  1.1376
 3308TIP3    H231560   3.054   2.323   9.188 -0.6383 -0.1012  0.7587
 3309TIP3   OH231561   3.219   6.400   9.429 -0.5569 -0.1719  0.0590
 3309TIP3    H131562   3.190   6.472   9.485 -2.0041 -1.1861  0.6733
 3309TIP3    H231563   3.266   6.342   9.487 -1.6823 -1.0123  0.1568
 3310TIP3   OH231564   6.415   2.921   1.606 -0.0765  0.0613  0.8076
 3310TIP3    H131565   6.349   2.990   1.615 -0.2131 -0.2584  2.5910
 3310TIP3    H231566   6.377   2.860   1.543  0.0603  1.5707 -0.8529
 3311TIP3   OH231567   1.174   4.489   9.957  0.0672  0.2973  0.0422
 3311TIP3    H131568   1.223   4.406   9.951  0.6484  0.6591 -0.3331
 3311TIP3    H231569   1.149   4.507   9.866  0.7777  1.0183 -0.0263
 3312TIP3   OH231570   1.068   6.046   0.194 -0.2035  0.5526 -0.8063
 3312TIP3    H131571   0.982   6.086   0.189 -1.6454 -2.1931 -0.0431
 3312TIP3    H231572   1.058   5.961   0.152  1.6144 -0.6141  0.9077
 3313TIP3   OH231573   5.219   0.172   1.767  0.7049 -0.2073  0.4127
 3313TIP3    H131574   5.223   0.084   1.730 -2.2936 -0.0490 -0.6263
 3313TIP3    H231575   5.168   0.162   1.847 -0.5834  0.6467 -0.2529
 3314TIP3   OH231576   2.311   3.161   7.869  0.1826 -0.3169  0.6376
 3314TIP3    H131577   2.383   3.185   7.811 -0.7378 -0.8102 -0.7451
 3314TIP3    H231578   2.324   3.216   7.947  1.4436  0.3577 -0.0180
 3315TIP3   OH231579   4.678   3.469   9.990 -0.1125  0.2998  0.1508
 3315TIP3    H131580   4.676   3.519   9.908 -1.8439 -1.2567 -0.8008
 3315TIP3    H231581   4.727   3.526  10.050 -1.2496  2.7780 -1.1037
 3316TIP3   OH231582   2.143   5.138   3.223  0.1130 -0.5110  0.4864
 3316TIP3    H131583   2.185   5.219   3.253  0.0636 -0.8570  1.5283
 3316TIP3    H231584   2.213   5.073   3.225  0.0753 -0.5721 -0.0400
 3317TIP3   OH231585   4.903   0.199   7.803 -0.0710 -0.1173 -0.0299
 3317TIP3    H131586   4.859   0.277   7.835  0.6845  0.8764 -1.3189
 3317TIP3    H231587   4.839   0.159   7.744  0.3224  0.7351 -1.0600
 3318TIP3   OH231588   0.056   1.054   8.202 -0.0722 -0.3178 -0.2760
 3318TIP3    H131589   0.001   1.057   8.279  0.4675  0.3029  0.0974
 3318TIP3    H231590   0.028   1.128   8.149 -0.0186 -0.3727 -0.3836
 3319TIP3   OH231591   4.033   1.893   9.677  0.0128  0.1854  0.3465
 3319TIP3    H131592   3.986   1.939   9.747  0.5778  2.1414 -0.4706
 3319TIP3    H231593   4.003   1.936   9.596  2.6168  1.0693 -0.2439
 3320TIP3   OH231594   3.721   5.200   8.096 -0.2031 -0.0517 -0.2159
 3320TIP3    H131595   3.763   5.280   8.063 -2.6864  1.5729  0.2491
 3320TIP3    H231596   3.687   5.226   8.182 -2.0672 -1.2258 -0.5543
 3321TIP3   OH231597   0.757   0.344   9.108  0.4233 -0.5918  0.1732
 3321TIP3    H131598   0.663   0.352   9.128  0.2380 -0.3585 -0.7805
 3321TIP3    H231599   0.787   0.434   9.098  0.8039 -0.6564  0.6842
 3322TIP3   OH231600   4.914   1.639   0.684 -0.2666  0.1028  0.2717
 3322TIP3    H131601   4.892   1.612   0.595  3.2245  1.6535 -1.2384
 3322TIP3    H231602   4.883   1.729   0.690  1.1237  0.6230 -0.0886
 3323TIP3   OH231603   4.160   5.545   3.816 -0.1248 -0.2826  0.2699
 3323TIP3    H131604   4.205   5.624   3.786  1.5458 -0.9290  0.9728
 3323TIP3    H231605   4.154   5.555   3.911 -0.9431 -0.4875  0.2488
 3324TIP3   OH231606   1.481   3.838   0.533  0.4582  0.0934  0.0277
 3324TIP3    H131607   1.397   3.880   0.550  0.5828  0.1616  0.4795
 3324TIP3    H231608   1.488   3.836   0.437 -0.2575 -0.3112 -0.0249
 3325TIP3   OH231609   3.131   1.974   8.767  0.2953  0.1821  0.3085
 3325TIP3    H131610   3.063   1.962   8.702  0.7655 -1.9893  0.1634
 3325TIP3    H231611   3.212   1.946   8.724  1.0094  0.9804  1.0659
 3326TIP3   OH231612   3.954   5.847   1.950  0.0096  0.0253  0.1669
 3326TIP3    H131613   3.988   5.884   2.031 -0.9249 -1.0317  1.0796
 3326TIP3    H231614   4.018   5.871   1.883  0.1199  2.0497  0.9541
 3327TIP3   OH231615   2.873   2.601   1.160  1.0431  0.3569  0.0013
 3327TIP3    H131616   2.927   2.655   1.218  0.4057 -1.0785  2.0172
 3327TIP3    H231617   2.800   2.658   1.136 -0.2628  0.1609  3.0677
 3328TIP3   OH231618   5.599   1.911   9.733 -0.3129 -0.5342  0.2031
 3328TIP3    H131619   5.514   1.874   9.755 -1.0498  0.4122 -0.9073
 3328TIP3    H231620   5.620   1.874   9.648 -0.1660  0.0998 -0.0444
 3329TIP3   OH231621   4.863   3.700   3.627  0.2321 -0.8838 -0.2922
 3329TIP3    H131622   4.938   3.641   3.627  1.0127  0.0511  1.1617
 3329TIP3    H231623   4.803   3.663   3.692 -0.4781 -1.4800 -1.2567
 3330TIP3   OH231624   6.115   1.462   7.572 -0.5531  0.5642  0.3136
 3330TIP3    H131625   6.083   1.550   7.590 -2.0591 -0.0332  0.6968
 3330TIP3    H231626   6.048   1.404   7.608  1.1388 -0.7776  1.4818
 3331TIP3   OH231627   1.104   0.438   9.739 -0.5837  0.0873 -0.1580
 3331TIP3    H131628   1.046   0.514   9.736  1.6731  1.9293 -1.4307
 3331TIP3    H231629   1.120   0.416   9.648  1.8640  0.7096  0.0423
 3332TIP3   OH231630   3.704   3.296   2.142 -0.1508  0.2858 -0.1733
 3332TIP3    H131631   3.695   3.355   2.216 -0.2769 -0.6606  0.5914
 3332TIP3    H231632   3.728   3.352   2.069  0.4858  1.1878  0.6963
 3333TIP3   OH231633   6.038   1.510   2.232  0.2866  0.4501 -0.9523
 3333TIP3    H131634   5.986   1.429   2.237  0.4558  0.4098  1.3093
 3333TIP3    H231635   6.128   1.479   2.223  0.3567  0.3420 -0.0403
 3334TIP3   OH231636   5.238   5.971   8.950 -1.0171  0.0465 -0.4005
 3334TIP3    H131637   5.160   6.026   8.954 -0.9292  0.0999  1.2178
 3334TIP3    H231638   5.208   5.891   8.908 -1.8118  0.2796 -0.3030
 3335TIP3   OH231639   1.110   1.527   0.805 -0.4582 -0.5227 -0.2508
 3335TIP3    H131640   1.178   1.593   0.798 -1.6293  1.0074  1.7383
 3335TIP3    H231641   1.053   1.543   0.730 -0.9557  1.0661  0.4258
 3336TIP3   OH231642   3.820   3.949   1.479 -0.2085 -0.3267  0.3961
 3336TIP3    H131643   3.739   3.932   1.432 -0.1936 -1.5592  0.8043
 3336TIP3    H231644   3.846   4.037   1.451 -1.1401 -0.3357 -0.5179
 3337TIP3   OH231645   2.999   2.004   3.132  0.0243  0.6069  0.4098
 3337TIP3    H131646   3.028   1.989   3.223  4.6645  1.5832 -0.6340
 3337TIP3    H231647   2.989   2.099   3.126 -0.3090  0.5387 -0.1166
 3338TIP3   OH231648   2.169   0.509   9.015  0.6081 -0.0000 -0.4676
 3338TIP3    H131649   2.160   0.486   9.107  0.8972  1.1962 -0.1341
 3338TIP3    H231650   2.248   0.462   8.987  2.4073  2.1063  0.7534
 3339TIP3   OH231651   2.485   0.499   1.032 -0.2940 -0.7803 -0.1822
 3339TIP3    H131652   2.452   0.425   0.982  0.8611 -0.6148 -1.2392
 3339TIP3    H231653   2.469   0.575   0.975 -0.2740 -0.3864  0.3264
 3340TIP3   OH231654   1.110   1.822   1.605 -0.2215 -0.4144  0.0863
 3340TIP3    H131655   1.115   1.785   1.518  0.4345  0.8665 -0.4464
 3340TIP3    H231656   1.174   1.894   1.605 -0.9333  0.2641  1.2785
 3341TIP3   OH231657   3.514   2.087   2.933 -0.5139 -0.3010 -0.4858
 3341TIP3    H131658   3.473   2.020   2.988 -0.5965  1.6213  1.9918
 3341TIP3    H231659   3.474   2.169   2.962  1.8133  1.1706 -1.1790
 3342TIP3   OH231660   0.068   2.137   9.477  0.2496  0.0303  0.5116
 3342TIP3    H131661  -0.014   2.127   9.525 -0.3021 -1.5308 -0.6616
 3342TIP3    H231662   0.076   2.231   9.461 -0.5088  0.3630  1.9589
 3343TIP3   OH231663   2.501   1.766   1.585  0.1922 -0.2870  0.0990
 3343TIP3    H131664   2.547   1.704   1.641 -0.3076 -0.1732  0.6512
 3343TIP3    H231665   2.423   1.790   1.635 -0.0865  0.0868 -0.5002
 3344TIP3   OH231666   1.882   3.593   0.319 -0.3531  0.0666  0.6812
 3344TIP3    H131667   1.869   3.643   0.400  0.0224  2.3486 -0.5966
 3344TIP3    H231668   1.976   3.578   0.315 -0.5740 -1.8933  1.6479
 3345TIP3   OH231669   6.173   2.152   8.442  0.2226 -0.2333 -0.1598
 3345TIP3    H131670   6.246   2.181   8.495  0.2029  0.1936 -0.3585
 3345TIP3    H231671   6.197   2.064   8.413  0.8481  0.0648 -0.5690
 3346TIP3   OH231672   3.413   4.068   1.382 -0.5096  0.3354  0.2967
 3346TIP3    H131673   3.489   4.045   1.330 -1.0232 -1.3034  0.2093
 3346TIP3    H231674   3.373   4.141   1.336  0.5233  0.6456 -0.1249
 3347TIP3   OH231675   6.213   0.089   8.066  0.1158  0.5757  0.2667
 3347TIP3    H131676   6.298   0.070   8.108 -0.0117 -1.3676 -0.2428
 3347TIP3    H231677   6.182   0.003   8.038 -1.5336  1.4075 -0.5184
 3348TIP3   OH231678   1.458   3.465   1.937  0.2179  0.1536  0.2227
 3348TIP3    H131679   1.414   3.382   1.919  0.0422  0.3388 -0.2161
 3348TIP3    H231680   1.533   3.441   1.991 -0.8041 -0.0926  1.6007
 3349TIP3   OH231681   0.891   1.430   2.500  0.2047  0.0370 -0.1224
 3349TIP3    H131682   0.841   1.479   2.566 -1.2604  1.4067 -2.1347
 3349TIP3    H231683   0.890   1.340   2.532 -1.9350  0.3479  0.9002
 3350TIP3   OH231684   4.425   4.382   1.186 -0.2217  0.8135  0.6508
 3350TIP3    H131685   4.396   4.473   1.179  0.6580  1.0291 -0.8561
 3350TIP3    H231686   4.513   4.383   1.146  1.4817  0.0314  4.0455
 3351TIP3   OH231687   4.006   5.452   3.629 -0.2378  0.2817  0.5087
 3351TIP3    H131688   4.035   5.500   3.551  0.9668 -0.3932  0.5158
 3351TIP3    H231689   4.057   5.489   3.701  1.1068 -1.2913  0.4363
 3352TIP3   OH231690   1.321   1.838   2.861 -0.2165 -0.0196  0.0519
 3352TIP3    H131691   1.341   1.745   2.875 -0.1868  0.0991  0.8502
 3352TIP3    H231692   1.407   1.878   2.847 -0.1954 -0.0513  0.0897
 3353TIP3   OH231693   1.923   2.843   2.019 -0.0568  0.2579  0.1145
 3353TIP3    H131694   1.856   2.794   1.972  0.4716  0.3113 -0.7112
 3353TIP3    H231695   1.972   2.888   1.951  0.3513  0.8131  0.7646
 3354TIP3   OH231696   3.739   0.259   1.780  0.2618  0.2718  0.4989
 3354TIP3    H131697   3.783   0.175   1.766 -0.8628 -0.6650  2.2214
 3354TIP3    H231698   3.780   0.319   1.717  3.1814 -0.7890  1.2433
 3355TIP3   OH231699   1.804   0.211   8.769  0.1125  0.3425  0.0034
 3355TIP3    H131700   1.893   0.239   8.788  1.2498 -3.1047  0.4452
 3355TIP3    H231701   1.811   0.117   8.752 -3.3536  0.0591 -0.6941
 3356TIP3   OH231702   6.330   5.630   9.368  0.3476  0.3031 -0.2151
 3356TIP3    H131703   6.284   5.682   9.302  1.6402  2.6320  0.6179
 3356TIP3    H231704   6.273   5.634   9.445  0.0827 -0.1900 -0.3827
 3357TIP3   OH231705   1.386   0.726   8.981 -0.0769 -0.1492 -0.0350
 3357TIP3    H131706   1.336   0.718   8.900 -1.3212 -1.0436  0.7819
 3357TIP3    H231707   1.391   0.820   8.997  0.4293  0.0495 -1.2829
 3358TIP3   OH231708   5.285   2.694   9.081 -0.3713 -0.1887  0.1249
 3358TIP3    H131709   5.307   2.772   9.030  1.2864 -1.3634 -1.0638
 3358TIP3    H231710   5.213   2.654   9.033 -0.3361 -0.1008 -0.0032
 3359TIP3   OH231711   3.081   5.478   8.237 -0.2387 -0.3603  0.3524
 3359TIP3    H131712   3.150   5.542   8.247 -0.5152 -0.2837  2.0577
 3359TIP3    H231713   3.127   5.395   8.221  0.3248 -0.4333  2.1143
 3360TIP3   OH231714   1.738   1.809   0.089  0.1126 -0.0385  0.3967
 3360TIP3    H131715   1.819   1.825   0.041  0.0587 -0.0228  0.3108
 3360TIP3    H231716   1.701   1.731   0.047  0.6503 -0.7249  1.1622
 3361TIP3   OH231717   0.980   4.487   1.823  0.5527 -0.6624 -0.3319
 3361TIP3    H131718   0.970   4.396   1.797 -1.1059 -0.2853 -1.1535
 3361TIP3    H231719   0.933   4.494   1.906  0.7537 -0.5712 -0.2250
 3362TIP3   OH231720   3.597   5.400   9.161 -0.0077  0.3604  0.3196
 3362TIP3    H131721   3.605   5.373   9.069  1.3633 -3.1832  1.3137
 3362TIP3    H231722   3.608   5.495   9.158 -0.3145  0.4462 -3.1884
 3363TIP3   OH231723   0.239   0.129   7.834  0.0691  0.4954 -0.4744
 3363TIP3    H131724   0.154   0.090   7.854  0.0943  1.4586  1.7408
 3363TIP3    H231725   0.221   0.191   7.764 -0.7112 -0.5366 -1.2243
 3364TIP3   OH231726   5.744   2.446   0.953  0.1749  0.3481  0.5367
 3364TIP3    H131727   5.713   2.482   1.036 -3.6949  1.5947 -1.2124
 3364TIP3    H231728   5.793   2.518   0.913 -1.3161  1.2186  0.1728
 3365TIP3   OH231729   5.987   2.275   9.484 -0.5886  0.0958 -0.0416
 3365TIP3    H131730   6.068   2.228   9.464 -0.9996 -0.9713  0.6994
 3365TIP3    H231731   6.014   2.344   9.545 -0.5699 -2.1245  2.7269
 3366TIP3   OH231732   5.679   3.887   2.811  0.0146 -0.5068 -0.1176
 3366TIP3    H131733   5.600   3.894   2.757 -0.5063  0.1965  0.7073
 3366TIP3    H231734   5.738   3.832   2.760 -1.0670 -1.1859 -0.6815
 3367TIP3   OH231735   0.768   0.139   7.767  0.6256  0.4434 -0.3786
 3367TIP3    H131736   0.759   0.169   7.857  0.5390 -0.8663  0.0661
 3367TIP3    H231737   0.679   0.119   7.739  0.7480 -0.0194 -0.4411
 3368TIP3   OH231738   5.913   0.045   9.408 -0.3280 -0.2118 -0.5845
 3368TIP3    H131739   5.940  -0.004   9.331  1.1159 -1.6198  0.7416
 3368TIP3    H231740   5.822   0.018   9.423  0.2361 -2.0916 -0.2469
 3369TIP3   OH231741   5.306   5.620   8.357 -0.2530  0.1531 -0.3423
 3369TIP3    H131742   5.279   5.599   8.447  0.8712 -0.9446 -0.2414
 3369TIP3    H231743   5.249   5.693   8.332 -0.8253  0.2555  1.1351
 3370TIP3   OH231744   3.390   0.243   0.826  0.1956 -0.1903 -0.2986
 3370TIP3    H131745   3.444   0.310   0.785  1.0403  0.3276  1.5388
 3370TIP3    H231746   3.453   0.182   0.865 -0.3619  1.1647  3.1029
 3371TIP3   OH231747   3.930   1.084   8.592 -0.4358 -0.3912  0.0418
 3371TIP3    H131748   3.967   1.047   8.512 -0.5489  0.0669 -0.2276
 3371TIP3    H231749   3.980   1.043   8.663 -1.1321 -1.7139 -0.2001
 3372TIP3   OH231750   2.855   1.271   7.313  0.3026 -0.5778  0.0915
 3372TIP3    H131751   2.835   1.181   7.290 -0.7637 -0.4885  0.5996
 3372TIP3    H231752   2.773   1.305   7.350 -0.2598  1.4863 -2.7284
 3373TIP3   OH231753   2.287   1.711   0.343 -0.3243  0.0124  0.2393
 3373TIP3    H131754   2.339   1.766   0.284 -0.9993 -0.6614 -1.0352
 3373TIP3    H231755   2.197   1.741   0.331 -0.2922  1.0449  2.2849
 3374TIP3   OH231756   3.137   5.483   9.475 -0.5296 -0.3621  0.3210
 3374TIP3    H131757   3.147   5.560   9.530 -1.1501 -0.5397  0.6929
 3374TIP3    H231758   3.189   5.502   9.396 -0.6791  0.4220  0.4101
 3375TIP3   OH231759   1.543   5.271   8.745  0.0979 -0.3026  0.9477
 3375TIP3    H131760   1.469   5.211   8.747  0.0247 -0.2396  0.3495
 3375TIP3    H231761   1.516   5.341   8.685  1.1510 -0.9637 -0.3544
 3376TIP3   OH231762   3.520   3.880   2.893  0.1521  0.0825 -0.3525
 3376TIP3    H131763   3.569   3.895   2.973  2.1206  1.1623 -1.6586
 3376TIP3    H231764   3.437   3.927   2.906  0.7343  0.8358  0.7691
 3377TIP3   OH231765   0.118   2.051   9.220 -0.6184 -0.6529  0.0845
 3377TIP3    H131766   0.119   2.093   9.305 -0.4539  2.4921 -1.3450
 3377TIP3    H231767   0.068   2.110   9.164 -0.9958 -2.7540 -1.9642
 3378TIP3   OH231768   2.435   3.777   8.720  0.3853  0.3353 -0.5837
 3378TIP3    H131769   2.424   3.687   8.749  1.3136  0.4398  0.1696
 3378TIP3    H231770   2.426   3.829   8.800 -0.3827  0.9383 -1.0477
 3379TIP3   OH231771   4.140   5.192   8.675 -0.0425 -0.2148 -0.6811
 3379TIP3    H131772   4.062   5.224   8.629  0.8053  0.8103 -1.4538
 3379TIP3    H231773   4.214   5.231   8.628  0.8780  0.4214  1.1885
 3380TIP3   OH231774   2.166   6.037   0.277  0.2966  0.8175 -0.2831
 3380TIP3    H131775   2.220   6.034   0.356 -0.7211 -1.4645  0.4380
 3380TIP3    H231776   2.115   6.117   0.286  0.3437  0.7044  1.3230
 3381TIP3   OH231777   1.991   3.753   8.655 -0.4355  1.5848  0.7711
 3381TIP3    H131778   1.971   3.827   8.712 -0.2716  1.5858  0.8288
 3381TIP3    H231779   2.080   3.771   8.624  0.0323  0.8600  1.6483
 3382TIP3   OH231780   2.387   3.599   0.095  0.1373 -0.0615  0.1037
 3382TIP3    H131781   2.313   3.627   0.041  1.4258  1.0607 -1.1641
 3382TIP3    H231782   2.426   3.680   0.127  1.1059 -0.6100  0.3371
 3383TIP3   OH231783   0.601   0.596   2.847  0.1030  0.5212  0.2200
 3383TIP3    H131784   0.694   0.608   2.862 -0.0979  2.8587 -0.0439
 3383TIP3    H231785   0.571   0.679   2.810 -1.9433 -0.4330 -0.4737
 3384TIP3   OH231786   3.003   0.434   1.840 -0.0133  0.9663 -0.0615
 3384TIP3    H131787   2.914   0.402   1.852  0.5491  0.0782  2.2893
 3384TIP3    H231788   2.994   0.529   1.838 -1.1118  0.8767 -1.2883
 3385TIP3   OH231789   5.312   4.152   1.293  0.1985 -0.1231 -0.6013
 3385TIP3    H131790   5.346   4.218   1.354 -0.5176 -0.3082  0.0269
 3385TIP3    H231791   5.232   4.192   1.259  0.0004 -0.4810 -0.5553
 3386TIP3   OH231792   1.809   1.192   0.841  0.2011 -0.1712  0.1508
 3386TIP3    H131793   1.812   1.267   0.901  0.6684 -0.3528  0.3660
 3386TIP3    H231794   1.793   1.231   0.755  0.4638  0.1812  0.2549
 3387TIP3   OH231795   2.867   6.349   0.391  0.0055 -0.2591  0.2144
 3387TIP3    H131796   2.855   6.391   0.476  1.9796  1.6918 -0.3921
 3387TIP3    H231797   2.829   6.261   0.403 -3.0852  1.1276  1.9441
 3388TIP3   OH231798   1.652   4.874   8.868  0.2537 -0.2678  0.2007
 3388TIP3    H131799   1.603   4.896   8.947  0.1632  0.3385 -0.0118
 3388TIP3    H231800   1.619   4.789   8.841 -2.3151  1.0408 -1.1517
 3389TIP3   OH231801   4.111   4.136   0.221 -0.1381  0.4069  0.4322
 3389TIP3    H131802   4.050   4.186   0.276 -2.1730  1.5232 -2.5539
 3389TIP3    H231803   4.169   4.202   0.184  0.8911 -0.2604  0.8203
 3390TIP3   OH231804   0.248   6.247   2.722  0.3801  0.2587  0.0028
 3390TIP3    H131805   0.272   6.273   2.811  1.0471 -1.3260  0.3224
 3390TIP3    H231806   0.204   6.162   2.733 -0.4959  0.5545 -1.0898
 3391TIP3   OH231807   1.066   3.163   1.227  0.0893  0.4271 -0.1526
 3391TIP3    H131808   1.080   3.233   1.163 -0.6283 -0.5297 -1.4018
 3391TIP3    H231809   1.151   3.119   1.233  0.2956  0.8384 -0.0681
 3392TIP3   OH231810   3.545   0.454   1.347  0.3697 -0.7056  0.2914
 3392TIP3    H131811   3.553   0.538   1.302 -0.2852 -1.2127 -0.7963
 3392TIP3    H231812   3.524   0.477   1.438  0.5078  0.3032  0.0737
 3393TIP3   OH231813   5.057   5.960   8.463 -0.1766  0.5459  0.3526
 3393TIP3    H131814   4.981   6.009   8.495  0.3631  0.1190  2.4469
 3393TIP3    H231815   5.121   5.965   8.534  1.4283  0.1268 -0.9903
 3394TIP3   OH231816   1.179   4.347   2.465  0.4617 -0.1568 -0.0270
 3394TIP3    H131817   1.202   4.287   2.537  0.8182  0.1557  0.1217
 3394TIP3    H231818   1.240   4.420   2.475 -0.3799  0.5313  0.1738
 3395TIP3   OH231819   3.738   1.623   1.754  0.7692  0.3509 -0.0815
 3395TIP3    H131820   3.677   1.574   1.807 -1.9158  1.9744 -1.4513
 3395TIP3    H231821   3.739   1.578   1.670  0.0305  1.2943 -0.6219
 3396TIP3   OH231822   3.710   5.622   3.287  0.0136  0.0317 -0.3892
 3396TIP3    H131823   3.628   5.587   3.320  0.9271 -1.1138  0.7564
 3396TIP3    H231824   3.722   5.704   3.335 -1.7119  1.6137 -2.4727
 3397TIP3   OH231825   4.515   2.724   8.509 -0.1190  0.6811  0.5061
 3397TIP3    H131826   4.579   2.660   8.479  0.6038  1.4002  0.4680
 3397TIP3    H231827   4.440   2.672   8.536 -0.2695 -0.0862 -1.2311
 3398TIP3   OH231828   3.776   5.536   2.562  0.1102 -0.4953 -0.2048
 3398TIP3    H131829   3.743   5.600   2.625 -0.8837 -0.1018 -1.0857
 3398TIP3    H231830   3.813   5.588   2.491 -1.9731 -0.7932 -1.6029
 3399TIP3   OH231831   2.179   4.232   0.266  0.2046 -0.4492  0.4419
 3399TIP3    H131832   2.255   4.207   0.212  0.5357  1.6875 -0.1651
 3399TIP3    H231833   2.214   4.296   0.328 -1.1891  0.9746 -0.1906
 3400TIP3   OH231834   2.259   0.925   8.981  0.0057 -0.1844 -0.0229
 3400TIP3    H131835   2.298   1.010   8.959  0.0047 -0.1214  0.2152
 3400TIP3    H231836   2.198   0.908   8.909 -0.0768  0.0715 -0.0191
 3401TIP3   OH231837   6.417   3.066   8.314  0.1296  0.6877  0.4339
 3401TIP3    H131838   6.370   2.985   8.296  2.0708 -0.7126  1.2418
 3401TIP3    H231839   6.489   3.066   8.251 -1.0514  2.9633 -1.0444
 3402TIP3   OH231840   1.178   1.138   0.436 -0.4075  0.3228 -0.4531
 3402TIP3    H131841   1.191   1.087   0.356 -0.5395 -0.4588  0.0120
 3402TIP3    H231842   1.159   1.072   0.504 -0.1197  0.9540  0.2570
 3403TIP3   OH231843   5.364   2.294   2.050  0.3847  0.5205 -0.5155
 3403TIP3    H131844   5.352   2.274   1.957  1.5102  1.2911 -0.8475
 3403TIP3    H231845   5.398   2.383   2.051  1.7921  0.0150  0.5474
 3404TIP3   OH231846   2.196   2.331   1.948  0.4561  0.1839  0.0117
 3404TIP3    H131847   2.158   2.363   2.030 -0.8229  0.2259 -0.5654
 3404TIP3    H231848   2.176   2.400   1.884 -2.1746 -1.5256 -1.2126
 3405TIP3   OH231849   3.181   0.984   9.045  0.1685  0.0692  0.6736
 3405TIP3    H131850   3.200   0.958   9.135 -0.0982  1.7308  1.2449
 3405TIP3    H231851   3.092   0.951   9.029  0.3806 -0.6105  0.8453
 3406TIP3   OH231852   6.100   2.736   2.197 -0.0767  0.0360  0.3706
 3406TIP3    H131853   6.081   2.764   2.108  0.6637  1.3130  0.5874
 3406TIP3    H231854   6.109   2.641   2.192  0.2539  0.1301 -0.9551
 3407TIP3   OH231855   2.959   5.908   2.613  0.4423  0.3501 -0.1282
 3407TIP3    H131856   2.955   5.976   2.547  0.0061  0.4539  0.0029
 3407TIP3    H231857   2.967   5.826   2.563  2.8125  0.5974 -0.2662
 3408TIP3   OH231858   2.962   3.166   9.406  0.4934  0.2094  0.1230
 3408TIP3    H131859   3.048   3.146   9.370  1.2269 -0.2629  2.0569
 3408TIP3    H231860   2.943   3.255   9.375  1.7596  0.4049 -0.1302
 3409TIP3   OH231861   4.462   2.849   2.727  0.0811 -0.6021 -0.1706
 3409TIP3    H131862   4.449   2.757   2.703 -0.5562 -0.7807  0.7840
 3409TIP3    H231863   4.533   2.847   2.791  0.6495 -0.3258 -0.7877
 3410TIP3   OH231864   3.144   4.452   9.811 -0.1444  0.0593 -0.3739
 3410TIP3    H131865   3.158   4.443   9.716  1.1448  1.0530 -0.3057
 3410TIP3    H231866   3.146   4.546   9.827  1.9318 -0.1528  0.9278
 3411TIP3   OH231867   2.520   0.775   0.363  0.2792 -0.1415  0.2440
 3411TIP3    H131868   2.508   0.848   0.303 -1.5171  0.2232  0.9961
 3411TIP3    H231869   2.603   0.794   0.407  0.5935  0.6399 -0.6518
 3412TIP3   OH231870   2.405   1.877   9.091 -0.0741  0.0610  0.5280
 3412TIP3    H131871   2.424   1.896   9.183 -1.0236 -1.4033  1.0713
 3412TIP3    H231872   2.468   1.930   9.042 -0.3297  1.7928  1.9674
 3413TIP3   OH231873   3.670   0.874   8.608  0.2639 -0.0961  0.6665
 3413TIP3    H131874   3.742   0.827   8.649 -0.0477 -1.0837  0.1071
 3413TIP3    H231875   3.595   0.861   8.666  0.0550 -0.7126  0.2642
 3414TIP3   OH231876   5.836   3.961   3.432  0.1949  0.0740  0.3877
 3414TIP3    H131877   5.877   4.030   3.485 -2.6664  0.1730  2.7474
 3414TIP3    H231878   5.854   3.880   3.480  0.6001 -0.3526 -0.4720
 3415TIP3   OH231879   3.046   4.735   9.547  0.3502 -0.2184 -0.4991
 3415TIP3    H131880   2.993   4.733   9.627  0.3933 -2.6024 -0.4675
 3415TIP3    H231881   3.033   4.649   9.508  1.9908  0.1661 -1.9767
 3416TIP3   OH231882   4.654   5.536   9.998  0.3220  0.2445  0.3080
 3416TIP3    H131883   4.698   5.502   9.919 -1.5817  1.7139 -1.5120
 3416TIP3    H231884   4.653   5.631   9.985 -0.7675  0.4505  1.7027
 3417TIP3   OH231885   0.295   1.760   0.701 -0.1540  0.3208 -0.4591
 3417TIP3    H131886   0.320   1.682   0.750  0.2140  1.3968  1.1221
 3417TIP3    H231887   0.199   1.760   0.703 -0.1464  1.1562  1.6410
 3418TIP3   OH231888   5.912   1.284   7.837  0.4361 -0.4199  0.2381
 3418TIP3    H131889   5.841   1.318   7.783  0.2348  0.2688  0.9136
 3418TIP3    H231890   5.977   1.252   7.775  1.0631  2.0803 -0.5080
 3419TIP3   OH231891   5.502   3.923   1.686 -0.3711 -0.1028  0.1569
 3419TIP3    H131892   5.573   3.983   1.707 -0.8675 -0.0806  1.9410
 3419TIP3    H231893   5.432   3.980   1.654 -0.9779  0.3989  2.2008
 3420TIP3   OH231894   4.083   2.344   2.721 -0.6980 -0.0521  0.2968
 3420TIP3    H131895   4.029   2.394   2.783 -1.7908 -1.1734  0.2840
 3420TIP3    H231896   4.078   2.394   2.639  0.7133  1.4123  1.0450
 3421TIP3   OH231897   2.717   3.277   2.350 -0.5003 -0.3246  0.4098
 3421TIP3    H131898   2.685   3.259   2.261 -1.0642 -2.5512  0.9976
 3421TIP3    H231899   2.763   3.197   2.375 -0.4367  0.2311  2.1665
 3422TIP3   OH231900   6.002   6.010   7.837 -0.0264  0.7887  0.3113
 3422TIP3    H131901   5.996   5.916   7.851 -0.8687  0.7034 -0.5736
 3422TIP3    H231902   5.913   6.038   7.816  0.5169  1.4671 -1.3022
 3423TIP3   OH231903   2.760   3.681   2.907 -0.3154 -0.0468  0.4073
 3423TIP3    H131904   2.683   3.736   2.898  0.0932  0.4752  0.0423
 3423TIP3    H231905   2.793   3.700   2.994 -0.8326 -0.5924  0.7344
 3424TIP3   OH231906   3.038   2.271   2.836 -0.0568 -0.0099 -0.3455
 3424TIP3    H131907   3.097   2.241   2.768 -0.7120  1.5416 -1.6719
 3424TIP3    H231908   2.951   2.265   2.797 -0.4843  0.5993  0.4711
 3425TIP3   OH231909   0.528   5.456   1.189  0.4183 -0.5462  0.5760
 3425TIP3    H131910   0.437   5.429   1.174  0.6142  0.6743 -4.8452
 3425TIP3    H231911   0.521   5.541   1.233 -1.4188  1.0103 -2.3976
 3426TIP3   OH231912   6.340   6.325   0.831  0.2762 -0.3445 -0.1932
 3426TIP3    H131913   6.371   6.341   0.742 -0.0073 -0.1964 -0.2650
 3426TIP3    H231914   6.407   6.269   0.870 -0.8229 -2.5877 -1.3304
 3427TIP3   OH231915   2.292   5.157   0.438  0.1883 -0.5474 -0.1515
 3427TIP3    H131916   2.228   5.139   0.507 -0.1109 -1.4659 -0.6514
 3427TIP3    H231917   2.375   5.170   0.484 -0.2253 -0.0283  0.4526
 3428TIP3   OH231918   1.289   4.012   0.567  0.2678  0.2046  0.1151
 3428TIP3    H131919   1.244   4.019   0.483  0.9100  1.0880 -0.1799
 3428TIP3    H231920   1.312   4.102   0.589  0.7165 -0.0897  0.8986
 3429TIP3   OH231921   4.072   5.482   9.252 -0.4206 -0.0879  0.1575
 3429TIP3    H131922   4.090   5.459   9.161  1.3564 -1.2449  0.7293
 3429TIP3    H231923   4.083   5.399   9.300  0.3708  0.8138  1.6118
 3430TIP3   OH231924   1.059   3.543   0.365  0.4342 -0.2077 -0.1309
 3430TIP3    H131925   1.033   3.635   0.373  0.1242 -0.3271  0.2482
 3430TIP3    H231926   0.977   3.495   0.374  0.7997 -0.5984  1.2238
 3431TIP3   OH231927   0.393   0.470   0.505 -0.1903  0.5225  0.3510
 3431TIP3    H131928   0.481   0.452   0.539 -0.4918  0.8209  1.3313
 3431TIP3    H231929   0.403   0.465   0.410  0.3636 -1.8499  0.4589
 3432TIP3   OH231930   4.756   3.538   0.992 -0.0357  0.2416 -0.9117
 3432TIP3    H131931   4.807   3.615   0.966 -0.9303  0.6941 -1.3708
 3432TIP3    H231932   4.751   3.485   0.912 -2.5841  1.5148 -1.6873
 3433TIP3   OH231933   0.999   3.384   0.743 -0.2308 -0.8685 -0.0871
 3433TIP3    H131934   0.959   3.308   0.701  1.4880 -2.0896  0.3932
 3433TIP3    H231935   0.955   3.390   0.828 -1.3489 -0.4387 -0.6713
 3434TIP3   OH231936   4.519   0.985   0.185 -0.2067 -0.0515 -0.5300
 3434TIP3    H131937   4.551   1.070   0.216  2.5836 -1.5200  1.0493
 3434TIP3    H231938   4.579   0.962   0.114 -0.0805 -1.2479 -0.0572
 3435TIP3   OH231939   4.368   1.823   9.485  0.1855 -0.0384 -0.1570
 3435TIP3    H131940   4.374   1.849   9.578 -0.1879  0.5245 -0.2829
 3435TIP3    H231941   4.450   1.854   9.447 -0.3271  1.1489 -0.3405
 3436TIP3   OH231942   2.228   1.284   9.397  0.1631  0.0666  0.2159
 3436TIP3    H131943   2.305   1.300   9.343 -0.0713 -2.3502 -0.9755
 3436TIP3    H231944   2.161   1.255   9.335 -1.7037  1.8617  1.2415
 3437TIP3   OH231945   3.469   2.782   8.342  0.4655 -0.3784  0.0643
 3437TIP3    H131946   3.541   2.844   8.351  0.0574  0.1555 -0.2935
 3437TIP3    H231947   3.495   2.706   8.395  1.0702  0.0020  0.3146
 3438TIP3   OH231948   6.065   5.585   2.823 -0.1354 -0.7647 -0.2991
 3438TIP3    H131949   6.051   5.601   2.730  2.8021 -2.5876 -1.1640
 3438TIP3    H231950   6.117   5.659   2.853 -1.6758  0.1851  0.1270
 3439TIP3   OH231951   1.683   4.251   9.861  0.2639  0.2220  0.1078
 3439TIP3    H131952   1.636   4.250   9.778  1.7229 -0.8600 -0.7506
 3439TIP3    H231953   1.614   4.248   9.928 -0.8897 -1.1650 -1.0824
 3440TIP3   OH231954   4.375   2.385   1.553 -0.1686 -0.2994  0.2093
 3440TIP3    H131955   4.334   2.367   1.468 -1.1948  0.5770  0.4972
 3440TIP3    H231956   4.444   2.449   1.533 -1.2830  0.9398  0.1981
 3441TIP3   OH231957   4.792   1.472   9.464 -0.6064 -0.3542 -0.2381
 3441TIP3    H131958   4.770   1.557   9.502 -1.0543 -0.9748  0.9479
 3441TIP3    H231959   4.716   1.450   9.409 -0.1033  0.3922 -1.2716
 3442TIP3   OH231960   1.464   4.990   1.451  0.0180 -0.6905  0.3241
 3442TIP3    H131961   1.395   4.970   1.513 -0.3212 -1.1300 -0.1912
 3442TIP3    H231962   1.542   4.948   1.487 -0.0161 -0.3397  0.8163
 3443TIP3   OH231963   4.823   6.375   2.871 -0.3393  0.8616  0.1944
 3443TIP3    H131964   4.909   6.365   2.913 -0.4783 -0.9226  0.1134
 3443TIP3    H231965   4.803   6.289   2.836 -1.8555  1.4364 -0.4322
 3444TIP3   OH231966   1.493   0.507   8.393  0.1388 -0.1567 -0.5040
 3444TIP3    H131967   1.562   0.465   8.445  0.7406  1.8386  0.3760
 3444TIP3    H231968   1.540   0.549   8.321 -0.1762  0.8959 -0.1117
 3445TIP3   OH231969   1.691   3.468   9.219  0.0243 -0.1966 -0.2752
 3445TIP3    H131970   1.647   3.426   9.292  1.0382 -1.1627 -0.1911
 3445TIP3    H231971   1.782   3.438   9.225  0.0201 -0.7443 -2.2371
 3446TIP3   OH231972   4.488   2.478   3.075  0.7975 -0.5080  0.4082
 3446TIP3    H131973   4.518   2.514   2.991  2.2698 -1.0239  0.6853
 3446TIP3    H231974   4.567   2.445   3.117 -0.0594 -1.1692  1.5729
 3447TIP3   OH231975   0.381   0.474   9.487 -0.2742 -0.4948 -0.4616
 3447TIP3    H131976   0.309   0.450   9.546 -0.6547  1.2095 -0.1635
 3447TIP3    H231977   0.338   0.521   9.415  0.5032  0.3954 -0.3683
 3448TIP3   OH231978   3.029   3.847   8.664 -0.3186  0.0026 -0.1886
 3448TIP3    H131979   3.005   3.933   8.627 -0.7204 -0.2386 -0.5018
 3448TIP3    H231980   3.094   3.867   8.731  1.9535  0.3166 -2.3365
 3449TIP3   OH231981   4.815   0.286   0.663 -0.6870  0.1138 -0.3588
 3449TIP3    H131982   4.864   0.340   0.725  0.3452 -0.5353 -0.5889
 3449TIP3    H231983   4.723   0.301   0.686 -0.3250 -0.3847  1.5632
 3450TIP3   OH231984   4.720   3.635   3.046 -0.0685 -0.0990 -0.0580
 3450TIP3    H131985   4.726   3.539   3.042  1.0461 -0.0554  0.3421
 3450TIP3    H231986   4.779   3.665   2.977  2.6123  0.3260  2.2749
 3451TIP3   OH231987   2.608   3.965   3.284  0.3377 -0.9655  0.1003
 3451TIP3    H131988   2.691   3.919   3.294 -0.1690 -1.7138  0.9683
 3451TIP3    H231989   2.606   3.990   3.191  2.2667  0.5502  0.4050
 3452TIP3   OH231990   1.314   4.706   0.029 -0.2487 -0.1160 -0.1203
 3452TIP3    H131991   1.272   4.623   0.008  1.1388 -0.5972 -1.0994
 3452TIP3    H231992   1.377   4.720  -0.042  1.0230  0.7190  1.1166
 3453TIP3   OH231993   3.252   3.615   1.618 -0.2379  0.3124  0.5606
 3453TIP3    H131994   3.191   3.643   1.550  0.3284  0.7161  0.2064
 3453TIP3    H231995   3.307   3.549   1.576 -0.6463 -0.3021  0.9792
 3454TIP3   OH231996   4.444   5.148   1.580 -0.6799  0.2272  0.0696
 3454TIP3    H131997   4.535   5.176   1.567 -0.6577  0.6208  0.9792
 3454TIP3    H231998   4.444   5.056   1.556 -0.4137  0.5948 -1.5230
 3455TIP3   OH231999   2.844   3.148   8.655 -0.0761  0.3479 -0.4254
 3455TIP3    H132000   2.908   3.182   8.718  2.4281 -1.1885 -1.9703
 3455TIP3    H232001   2.834   3.217   8.591 -0.5579  0.8778  0.2087
 3456TIP3   OH232002   6.351   0.289   8.727  0.1533 -0.2692  0.0073
 3456TIP3    H132003   6.269   0.269   8.773 -1.0511  1.9089 -1.0478
 3456TIP3    H232004   6.410   0.320   8.796 -1.4729  2.5150  0.2789
 3457TIP3   OH232005   4.097   4.696   3.434  0.2313 -0.5147  0.6146
 3457TIP3    H132006   4.185   4.701   3.471  0.5777  1.8091 -0.3687
 3457TIP3    H232007   4.109   4.710   3.340 -1.2352  0.7579  0.5701
 3458TIP3   OH232008   4.351   5.097   1.311  0.3106 -0.0417  0.2706
 3458TIP3    H132009   4.365   5.007   1.282  0.8755  1.0501 -3.2148
 3458TIP3    H232010   4.423   5.114   1.371 -0.6131 -2.2707  2.1881
 3459TIP3   OH232011   1.287   3.982   1.181 -0.3316 -0.3759 -0.2586
 3459TIP3    H132012   1.335   3.944   1.106 -0.3751 -1.3509  0.1943
 3459TIP3    H232013   1.338   4.060   1.204  0.5065 -0.8676 -0.3948
 3460TIP3   OH232014   0.087   5.091   7.159 -0.0236 -0.0905 -0.1103
 3460TIP3    H132015   0.087   5.022   7.093  0.9021 -0.4664  0.2706
 3460TIP3    H232016   0.079   5.045   7.243 -0.7835  0.3580  0.0780
 3461TIP3   OH232017   1.527   0.537   9.481  0.4253 -0.2970  0.3232
 3461TIP3    H132018   1.533   0.632   9.479 -1.5657 -0.1360  0.1192
 3461TIP3    H232019   1.606   0.509   9.527  0.2627  1.5395  1.8291
 3462TIP3   OH232020   4.920   1.578   9.222 -0.2802 -0.3350 -0.1883
 3462TIP3    H132021   4.834   1.616   9.205 -0.5319 -1.6332 -2.2822
 3462TIP3    H232022   4.911   1.535   9.307 -1.8796 -0.8492 -0.5783
 3463TIP3   OH232023   3.417   4.669   1.559  0.2814 -1.1663  0.6714
 3463TIP3    H132024   3.472   4.595   1.536  0.1574 -1.0372 -0.0877
 3463TIP3    H232025   3.477   4.743   1.567  0.5150 -1.5061  2.2912
 3464TIP3   OH232026   1.978   3.586   9.708 -1.0267  0.4118  0.2112
 3464TIP3    H132027   1.896   3.542   9.683 -2.3121  0.9775  3.0279
 3464TIP3    H232028   1.981   3.577   9.803  1.3221  1.9568  0.3442
 3465TIP3   OH232029   0.965   0.203   0.661 -0.0056 -0.5446  0.4109
 3465TIP3    H132030   0.923   0.191   0.746  0.8570  3.6247  1.6441
 3465TIP3    H232031   0.900   0.249   0.608 -0.0427 -1.9229 -0.8310
 3466TIP3   OH232032   1.322   5.774   7.256 -0.9178 -0.4670  0.2546
 3466TIP3    H132033   1.273   5.733   7.185 -1.1795  0.1538  0.0705
 3466TIP3    H232034   1.405   5.800   7.216 -0.5395 -1.2567  0.4959
 3467TIP3   OH232035   5.665   4.971   1.598  0.0955  0.8138 -0.5776
 3467TIP3    H132036   5.716   4.919   1.534 -0.4173  0.5711 -0.7939
 3467TIP3    H232037   5.728   4.992   1.666  0.3564  0.0264 -0.5625
 3468TIP3   OH232038   5.077   3.410   0.898  0.0307 -0.1101 -0.2856
 3468TIP3    H132039   5.169   3.403   0.921  0.0230 -0.0077 -0.2196
 3468TIP3    H232040   5.056   3.502   0.912 -0.0455 -0.1046 -0.4395
 3469TIP3   OH232041   0.854   5.173   0.740 -0.5600 -0.0636  0.4482
 3469TIP3    H132042   0.892   5.183   0.652 -0.6994 -0.9436  0.2723
 3469TIP3    H232043   0.790   5.103   0.730 -1.0194  0.2560  1.1234
 3470TIP3   OH232044   5.877   6.377   1.724 -0.3696  0.5119 -0.3101
 3470TIP3    H132045   5.788   6.407   1.707  0.4097  2.1332 -1.8822
 3470TIP3    H232046   5.884   6.293   1.678 -0.8525  0.7610 -0.8472
 3471TIP3   OH232047   3.499   1.422   0.654 -0.1446  0.1942 -0.0727
 3471TIP3    H132048   3.464   1.384   0.734  0.3584  0.6677  0.3827
 3471TIP3    H232049   3.588   1.447   0.676 -0.0185  0.3862 -0.7653
 3472TIP3   OH232050   4.790   5.765   8.906 -0.3981 -0.7440  0.1305
 3472TIP3    H132051   4.829   5.687   8.867 -1.8887 -1.5798  0.2024
 3472TIP3    H232052   4.856   5.833   8.897  1.0375 -2.0607  0.2403
 3473TIP3   OH232053   5.368   0.734   0.635  0.5241 -0.3879 -0.1039
 3473TIP3    H132054   5.290   0.782   0.661  1.4569  0.6967  0.8220
 3473TIP3    H232055   5.341   0.643   0.630 -1.5330  0.2283 -2.7012
 3474TIP3   OH232056   5.003   4.922   9.066  0.2485 -0.1298  0.2758
 3474TIP3    H132057   5.019   4.851   9.004  2.8312 -0.1196  0.7850
 3474TIP3    H232058   5.037   5.000   9.021 -0.4517  0.3750  0.6119
 3475TIP3   OH232059   0.523   0.617   7.033 -0.3461 -0.3045  0.4912
 3475TIP3    H132060   0.611   0.643   7.007  1.4547 -3.4099  2.8430
 3475TIP3    H232061   0.468   0.641   6.959  2.7279  0.3156 -1.7699
 3476TIP3   OH232062   3.013   6.142   1.153  0.4684 -0.6026  0.4055
 3476TIP3    H132063   2.936   6.187   1.118  0.3389 -1.0566  0.1048
 3476TIP3    H232064   3.075   6.212   1.171  0.1965 -0.2851  0.1219
 3477TIP3   OH232065   6.381   1.310   1.401 -0.2720 -0.1907  0.0782
 3477TIP3    H132066   6.345   1.373   1.339  0.9300  1.1311  0.6719
 3477TIP3    H232067   6.469   1.292   1.368 -0.9495 -2.4077 -0.6629
 3478TIP3   OH232068   3.624   3.045   8.318  0.7138  0.0626 -0.6851
 3478TIP3    H132069   3.566   3.114   8.285 -0.4100 -1.3645 -1.8569
 3478TIP3    H232070   3.649   2.996   8.239  0.1521 -1.8472  0.2732
 3479TIP3   OH232071   1.575   4.250   8.702 -0.2106  0.4736 -0.1450
 3479TIP3    H132072   1.619   4.286   8.626  0.7747  0.0601  0.2068
 3479TIP3    H232073   1.640   4.254   8.772 -0.5384 -0.6605  0.2571
 3480TIP3   OH232074   3.476   2.476   8.312  0.6610 -0.3450  0.4713
 3480TIP3    H132075   3.462   2.514   8.225 -0.6615 -1.7315  0.0397
 3480TIP3    H232076   3.555   2.520   8.345  1.6664 -0.3592 -1.7569
 3481TIP3   OH232077   6.221   2.905   8.946  0.8213 -0.0721  0.2228
 3481TIP3    H132078   6.131   2.878   8.931  1.0837  0.3521 -2.5586
 3481TIP3    H232079   6.222   2.998   8.926  1.8238  0.0219  0.6286
 3482TIP3   OH232080   3.596   6.054   2.331  0.3978 -0.8746  0.1794
 3482TIP3    H132081   3.509   6.016   2.343  0.4826 -1.1636 -0.1027
 3482TIP3    H232082   3.581   6.133   2.280  0.2613 -0.7298  0.4414
 3483TIP3   OH232083   4.757   4.557   2.292  1.1630 -0.4285  0.3528
 3483TIP3    H132084   4.758   4.541   2.197 -0.1053  1.0943  0.0252
 3483TIP3    H232085   4.665   4.571   2.313  1.5220  0.1579  1.6461
 3484TIP3   OH232086   1.044   4.541   8.639  0.3756 -0.2492 -0.4273
 3484TIP3    H132087   1.088   4.615   8.597 -1.0259  1.1436  0.4290
 3484TIP3    H232088   0.968   4.523   8.584  1.1782 -1.7184 -1.1321
 3485TIP3   OH232089   4.186   1.231   7.950 -0.0871  0.0880  0.4877
 3485TIP3    H132090   4.191   1.298   8.018  1.1865  0.0823  0.4376
 3485TIP3    H232091   4.149   1.276   7.874 -0.5065  0.3729  0.8592
 3486TIP3   OH232092   1.854   0.951   9.779 -0.4372  0.0802  0.3317
 3486TIP3    H132093   1.914   0.901   9.833  1.5363  0.1794 -1.6227
 3486TIP3    H232094   1.910   1.011   9.730 -1.9034 -0.7880 -2.6656
 3487TIP3   OH232095   2.097   2.474   9.283  0.3569 -0.1835 -0.1100
 3487TIP3    H132096   2.119   2.462   9.376  0.5192 -0.4299 -0.1777
 3487TIP3    H232097   2.179   2.498   9.242  0.4191 -0.6962 -0.2943
 3488TIP3   OH232098   3.085   2.996   0.959  0.0931  0.0034 -0.0790
 3488TIP3    H132099   3.177   3.021   0.963  0.3860 -1.1481  1.7977
 3488TIP3    H232100   3.087   2.901   0.943 -0.7381 -0.1172  0.4866
 3489TIP3   OH232101   0.870   3.838   1.636 -0.2318  0.0713 -0.0313
 3489TIP3    H132102   0.901   3.924   1.607 -0.6089  0.2426  0.0665
 3489TIP3    H232103   0.920   3.776   1.583 -2.0941  0.3812 -2.3288
 3490TIP3   OH232104   6.209   4.753   1.903 -0.2247 -0.1566  0.1583
 3490TIP3    H132105   6.186   4.759   1.810  0.4022 -1.0424 -0.0627
 3490TIP3    H232106   6.176   4.668   1.931 -0.3631  0.0836  0.7432
 3491TIP3   OH232107   3.407   5.737   1.300 -0.3921 -0.7025 -0.2048
 3491TIP3    H132108   3.425   5.819   1.347 -0.5862 -0.2161 -0.9633
 3491TIP3    H232109   3.347   5.690   1.357 -3.1111  1.2259 -1.2666
 3492TIP3   OH232110   5.686   0.449   1.576  0.1479  0.2459  0.2476
 3492TIP3    H132111   5.639   0.501   1.511  0.6509  0.3979  0.0005
 3492TIP3    H232112   5.648   0.475   1.660 -1.4657 -0.9462 -0.0589
 3493TIP3   OH232113   5.170   3.101   0.361  0.0132 -0.2967 -0.0409
 3493TIP3    H132114   5.141   3.023   0.313  0.7251 -0.4878 -0.1677
 3493TIP3    H232115   5.090   3.153   0.373 -0.3666 -0.7788 -0.4489
 3494TIP3   OH232116   0.781   2.299   1.992  0.0396  0.3584 -0.0236
 3494TIP3    H132117   0.704   2.355   2.000  0.1743  1.0627 -2.6921
 3494TIP3    H232118   0.842   2.333   2.058 -1.2583  0.8854  0.9665
 3495TIP3   OH232119   0.710   1.594   1.606 -0.3571 -0.5729  0.1538
 3495TIP3    H132120   0.701   1.672   1.552 -0.1578 -0.7153 -0.0929
 3495TIP3    H232121   0.723   1.627   1.695 -2.0451 -0.3560  0.3457
 3496TIP3   OH232122   5.136   2.054   1.248  0.1580 -0.1152  0.0346
 3496TIP3    H132123   5.079   1.993   1.295  1.4056 -1.5988 -0.2934
 3496TIP3    H232124   5.138   2.021   1.158  1.2233  0.1346 -0.0444
 3497TIP3   OH232125   3.976   1.701   0.281  0.1665  0.1788 -0.2010
 3497TIP3    H132126   3.941   1.644   0.213  4.5531 -1.4466 -1.4224
 3497TIP3    H232127   3.984   1.645   0.358  1.9935 -0.2497 -0.6332
 3498TIP3   OH232128   3.047   6.283   8.245  0.6313  0.2743  0.2770
 3498TIP3    H132129   3.048   6.240   8.160  1.4422  1.5546 -0.3934
 3498TIP3    H232130   2.954   6.288   8.268  0.2961  1.0592 -1.1558
 3499TIP3   OH232131   3.880   6.407   9.655 -0.4685  0.4562  0.4038
 3499TIP3    H132132   3.884   6.337   9.590  1.9016  0.0343  0.8892
 3499TIP3    H232133   3.790   6.407   9.685 -0.5594 -2.4416  0.4126
 3500TIP3   OH232134   4.386   3.296   9.084  0.4305 -0.2449 -0.6211
 3500TIP3    H132135   4.313   3.249   9.045  0.3264 -0.4834 -0.1493
 3500TIP3    H232136   4.458   3.233   9.084  0.3436 -0.3485 -0.1567
 3501TIP3   OH232137   3.392   3.877   2.482 -0.2043 -0.5246 -0.6547
 3501TIP3    H132138   3.310   3.920   2.459 -0.6946 -1.2794 -0.3643
 3501TIP3    H232139   3.435   3.860   2.398 -1.1386 -1.6348 -0.9289
 3502TIP3   OH232140   0.990   0.656   7.369  0.8372  0.9450  0.5030
 3502TIP3    H132141   0.967   0.667   7.277  1.6652  2.0396  0.4023
 3502TIP3    H232142   0.906   0.658   7.415  0.0374 -2.9889 -0.4266
 3503TIP3   OH232143   6.055   3.076   8.734 -0.0181 -0.4923 -0.0218
 3503TIP3    H132144   6.099   3.005   8.688  0.9836  0.3765 -0.4270
 3503TIP3    H232145   5.964   3.048   8.740  0.0387 -1.0815 -1.6312
 3504TIP3   OH232146   5.869   6.265   9.822 -0.2245  0.2915  0.4875
 3504TIP3    H132147   5.885   6.189   9.878 -0.9757  0.2447  0.6460
 3504TIP3    H232148   5.944   6.322   9.837  1.0449 -0.9859 -0.6159
 3505TIP3   OH232149   3.872   4.700   2.872 -0.5471  0.9117 -0.4086
 3505TIP3    H132150   3.863   4.614   2.831  0.4133  0.6789 -0.1580
 3505TIP3    H232151   3.782   4.728   2.889 -0.8593 -0.2560 -0.0442
 3506TIP3   OH232152   5.399   0.811   0.373  0.1815  0.2042  0.0376
 3506TIP3    H132153   5.334   0.864   0.327 -0.2445 -0.7698 -0.5014
 3506TIP3    H232154   5.386   0.833   0.465 -0.4576  0.5113 -0.1192
 3507TIP3   OH232155   0.810   4.643   2.665 -0.0386 -0.2138  0.1507
 3507TIP3    H132156   0.839   4.572   2.722 -1.0839  0.0814  1.0889
 3507TIP3    H232157   0.755   4.698   2.721 -0.8074  0.2890 -1.0503
 3508TIP3   OH232158   1.675   0.658   1.709  0.0339 -0.0379  0.2487
 3508TIP3    H132159   1.734   0.720   1.753 -0.2859  1.4734 -1.3327
 3508TIP3    H232160   1.587   0.691   1.726 -0.1054  0.4579 -1.2771
 3509TIP3   OH232161   0.041   6.102   1.368 -0.0949 -0.0519 -0.3312
 3509TIP3    H132162   0.099   6.100   1.292  1.8393 -1.8697  1.0695
 3509TIP3    H232163   0.070   6.178   1.418  0.5883 -0.4910 -0.0395
 3510TIP3   OH232164   4.812   6.254   9.667  0.2214  0.0976 -0.2489
 3510TIP3    H132165   4.750   6.188   9.637  1.4488 -1.9462  1.4101
 3510TIP3    H232166   4.781   6.336   9.629 -3.0781 -0.9257 -0.0331
 3511TIP3   OH232167   1.171   3.913   0.143 -0.1140  0.6552  0.2341
 3511TIP3    H132168   1.263   3.910   0.116 -0.4707 -0.3585 -0.9652
 3511TIP3    H232169   1.128   3.846   0.089 -1.4316  0.6255  1.2687
 3512TIP3   OH232170   0.897   0.911   2.604 -0.6899 -0.4442 -0.2213
 3512TIP3    H132171   0.821   0.902   2.660  0.0047  0.9771  1.0113
 3512TIP3    H232172   0.958   0.844   2.634 -0.2591  0.4117  0.8604
 3513TIP3   OH232173   6.232   5.314   8.615 -0.1310 -0.1449  0.1460
 3513TIP3    H132174   6.152   5.274   8.580  0.3559 -0.8731 -0.1606
 3513TIP3    H232175   6.249   5.265   8.696 -0.6951  0.8627  0.8877
 3514TIP3   OH232176   1.012   3.428   1.718  0.3046  0.4241 -0.6136
 3514TIP3    H132177   0.947   3.485   1.761 -2.4002 -1.5258 -1.8398
 3514TIP3    H232178   1.096   3.467   1.742 -0.9938  0.9185  4.3861
 3515TIP3   OH232179   3.212   0.212   9.852  0.6554 -0.0184 -0.9947
 3515TIP3    H132180   3.262   0.185   9.929 -0.0785  0.6511 -0.2701
 3515TIP3    H232181   3.131   0.161   9.855  0.8462 -0.3775 -1.6257
 3516TIP3   OH232182   4.050   0.490   8.418  0.3813  0.1295  0.0321
 3516TIP3    H132183   4.104   0.536   8.353 -0.1132  0.5575 -0.0799
 3516TIP3    H232184   4.001   0.559   8.462  0.5960 -0.1714  0.7700
 3517TIP3   OH232185   5.505   1.568   1.072 -0.1859  0.0844  0.3308
 3517TIP3    H132186   5.493   1.661   1.050 -0.0619  0.0177 -0.0418
 3517TIP3    H232187   5.593   1.547   1.038  0.4919  0.2552  1.8822
 3518TIP3   OH232188   2.535   3.822   2.184 -0.2014 -0.3892  0.5408
 3518TIP3    H132189   2.573   3.833   2.271  0.9542 -1.1370  0.1631
 3518TIP3    H232190   2.609   3.797   2.129 -0.7535  0.8586 -0.8462
 3519TIP3   OH232191   2.779   5.776   0.407  0.2837  0.1622  0.5308
 3519TIP3    H132192   2.747   5.688   0.389  0.3910  0.5541 -1.8581
 3519TIP3    H232193   2.874   5.766   0.418  0.6087  0.1447 -1.7060
 3520TIP3   OH232194   1.823   4.832   8.187 -0.1302 -0.3627  0.2892
 3520TIP3    H132195   1.862   4.779   8.117  0.7469  0.1568  0.3740
 3520TIP3    H232196   1.898   4.865   8.237 -0.5922  1.8448 -0.3837
 3521TIP3   OH232197   5.645   2.808   1.681 -0.3697 -1.2306 -0.1646
 3521TIP3    H132198   5.563   2.846   1.714 -0.1811 -0.6628 -0.3391
 3521TIP3    H232199   5.617   2.751   1.610 -0.7129 -1.8916  0.4914
 3522TIP3   OH232200   4.489   3.871   3.113 -0.2946 -0.3469 -0.1854
 3522TIP3    H132201   4.421   3.817   3.152  0.4505 -1.5394 -0.4911
 3522TIP3    H232202   4.458   3.961   3.124 -1.4145 -0.8139  0.6042
 3523TIP3   OH232203   1.452   4.984   0.326 -0.4501  0.0560  0.2395
 3523TIP3    H132204   1.402   4.970   0.246  1.4169 -0.0757 -0.9746
 3523TIP3    H232205   1.429   5.072   0.354 -3.1131 -0.8112  1.0993
 3524TIP3   OH232206   1.275   3.898   1.995  0.3997  0.3060  0.1505
 3524TIP3    H132207   1.197   3.843   1.990  0.3781  0.3477  0.0013
 3524TIP3    H232208   1.346   3.838   2.015  0.3815  0.2175 -0.0460
 3525TIP3   OH232209   2.823   6.389   1.521  0.4543 -0.5129  0.3726
 3525TIP3    H132210   2.859   6.417   1.437 -1.7599  1.9711  0.1238
 3525TIP3    H232211   2.877   6.432   1.587  0.9086 -0.7710  0.1709
 3526TIP3   OH232212   5.970   2.190   8.629 -0.4761  0.2171 -0.3727
 3526TIP3    H132213   6.012   2.264   8.673 -0.8148 -0.3160  0.8807
 3526TIP3    H232214   6.036   2.159   8.566  0.2202  0.6888  0.1075
 3527TIP3   OH232215   0.419   3.336   8.826 -0.0825  0.0000  0.0166
 3527TIP3    H132216   0.501   3.366   8.787  0.3242 -1.5395 -0.3677
 3527TIP3    H232217   0.405   3.396   8.900  0.8698  0.8819 -0.4847
 3528TIP3   OH232218   3.474   4.917   0.500 -0.1223  0.4577  0.4108
 3528TIP3    H132219   3.525   4.899   0.579 -0.4772  1.9258  1.0145
 3528TIP3    H232220   3.451   5.010   0.507  1.7429  1.2925 -2.5310
 3529TIP3   OH232221   1.555   3.007   3.709  0.6042  0.1841  0.2941
 3529TIP3    H132222   1.534   3.071   3.777 -1.2007  0.8066 -0.7753
 3529TIP3    H232223   1.558   3.059   3.628  0.0283 -0.9412 -0.4743
 3530TIP3   OH232224   4.417   3.378   1.204  0.6499  0.8524 -0.6840
 3530TIP3    H132225   4.383   3.290   1.188 -0.4277  1.3275 -1.0729
 3530TIP3    H232226   4.385   3.401   1.291 -0.4915  1.5008 -1.2574
 3531TIP3   OH232227   1.636   1.312   0.284  0.2248  0.4896 -0.1844
 3531TIP3    H132228   1.728   1.307   0.260 -0.2334 -0.4841 -1.9391
 3531TIP3    H232229   1.596   1.367   0.217 -0.6964 -0.2327 -0.2587
 3532TIP3   OH232230   6.191   0.588   9.664  0.4384 -0.1281 -0.0115
 3532TIP3    H132231   6.240   0.668   9.647  0.8821 -0.3482  0.2147
 3532TIP3    H232232   6.166   0.555   9.578  0.4883  0.1069 -0.1145
 3533TIP3   OH232233   4.104   0.157   1.891 -0.5982 -0.0760  0.4670
 3533TIP3    H132234   4.162   0.181   1.818  0.4445 -0.2156  1.2191
 3533TIP3    H232235   4.110   0.061   1.895 -1.1234 -0.1140  0.3638
 3534TIP3   OH232236   4.411   2.328   8.554 -0.2631  0.1433 -0.3728
 3534TIP3    H132237   4.455   2.252   8.515 -0.7074  0.6087 -1.8455
 3534TIP3    H232238   4.481   2.375   8.600 -0.0361 -1.2715  0.7863
 3535TIP3   OH232239   2.937   4.741   0.024  0.0699  0.1169 -0.3606
 3535TIP3    H132240   2.880   4.818   0.032  0.9408  0.7958 -0.5218
 3535TIP3    H232241   2.950   4.730  -0.070  0.0179 -0.1717 -0.3340
 3536TIP3   OH232242   2.950   1.360   0.307 -0.2220 -0.4376 -0.4205
 3536TIP3    H132243   2.995   1.323   0.232  0.9560  0.2630 -0.0754
 3536TIP3    H232244   2.878   1.299   0.325 -1.0285 -0.2014 -2.5922
 3537TIP3   OH232245   1.078   5.503   2.108 -0.0154  0.0527 -0.0313
 3537TIP3    H132246   1.111   5.448   2.037 -0.3652 -0.8377  0.4788
 3537TIP3    H232247   1.086   5.592   2.075  0.1092 -0.3291 -1.0745
 3538TIP3   OH232248   2.256   0.260   8.171 -0.0063 -0.3255 -0.0688
 3538TIP3    H132249   2.268   0.348   8.137 -1.7918 -0.6530 -1.6686
 3538TIP3    H232250   2.346   0.228   8.185  0.7075  1.0746 -1.1648
 3539TIP3   OH232251   0.446   3.709   9.636 -0.1694  0.5326  0.3187
 3539TIP3    H132252   0.378   3.657   9.678 -0.9169  0.6066 -0.7711
 3539TIP3    H232253   0.497   3.745   9.709 -0.4976 -0.5762  1.1126
 3540TIP3   OH232254   1.054   3.673   1.480  0.4961 -0.3203 -0.3844
 3540TIP3    H132255   0.996   3.611   1.435  0.7781 -1.5124  0.8191
 3540TIP3    H232256   1.139   3.658   1.440  0.2855  0.4029 -1.1446
 3541TIP3   OH232257   5.264   2.178   2.934  0.1599 -0.2501  0.1935
 3541TIP3    H132258   5.321   2.116   2.979 -2.1234 -0.0995  3.7100
 3541TIP3    H232259   5.294   2.264   2.962 -1.5244 -0.1639  1.9433
 3542TIP3   OH232260   0.920   3.924   3.155  0.0103  0.1619  0.0957
 3542TIP3    H132261   0.896   4.014   3.177  0.4472 -0.2197  2.2999
 3542TIP3    H232262   0.842   3.872   3.177 -0.7048  0.0844 -2.3387
 3543TIP3   OH232263   6.177   3.373   1.784  0.0092 -0.2209 -0.1322
 3543TIP3    H132264   6.230   3.452   1.793 -0.3955 -0.0070  0.4080
 3543TIP3    H232265   6.232   3.314   1.732 -0.4514  1.0984 -2.2260
 3544TIP3   OH232266   5.769   2.837   2.825 -0.7640 -0.2321 -0.5481
 3544TIP3    H132267   5.759   2.922   2.869 -2.5930 -0.1435 -1.0515
 3544TIP3    H232268   5.819   2.857   2.745  0.9707 -0.0904  0.5114
 3545TIP3   OH232269   5.121   4.553   2.551 -0.2896 -0.3655 -0.2474
 3545TIP3    H132270   5.041   4.501   2.545  0.4192 -1.5792  0.1954
 3545TIP3    H232271   5.170   4.512   2.623  1.2906 -0.5051 -1.3385
 3546TIP3   OH232272   5.177   6.332   9.888 -0.1920 -0.4962 -0.6367
 3546TIP3    H132273   5.111   6.292   9.944 -0.8150  1.4106  0.0621
 3546TIP3    H232274   5.245   6.362   9.948  0.1112 -0.1984 -1.1169
 3547TIP3   OH232275   1.377   2.287   0.733  0.1818  0.3837 -0.0853
 3547TIP3    H132276   1.428   2.211   0.705  0.0994 -0.0157  0.7944
 3547TIP3    H232277   1.352   2.267   0.823  0.1056  1.4358  0.1433
 3548TIP3   OH232278   2.877   0.915   8.717 -0.8047 -0.2955 -0.1754
 3548TIP3    H132279   2.952   0.873   8.675  0.1701  1.4039 -0.2311
 3548TIP3    H232280   2.864   0.866   8.798  0.6561 -0.3913  0.0310
 3549TIP3   OH232281   0.211   2.215   0.710  0.1230 -0.1354 -0.2524
 3549TIP3    H132282   0.214   2.307   0.686 -0.3140 -0.1547 -0.3852
 3549TIP3    H232283   0.302   2.191   0.725  0.1470  0.6692  1.1178
 3550TIP3   OH232284   4.295   6.099   9.629 -0.0888 -0.5999  0.4149
 3550TIP3    H132285   4.309   6.018   9.579  1.4862  0.2573 -0.6364
 3550TIP3    H232286   4.362   6.159   9.596 -1.1425  1.1117  1.2405
 3551TIP3   OH232287   4.174   2.330   8.650 -0.5312  0.8809  0.4996
 3551TIP3    H132288   4.121   2.344   8.572  0.4843  2.6733  0.0704
 3551TIP3    H232289   4.263   2.323   8.618 -0.4127 -2.0710  1.2104
 3552TIP3   OH232290   1.313   2.433   9.300 -0.4394  0.2465 -0.4822
 3552TIP3    H132291   1.297   2.443   9.393 -0.4486 -0.5861 -0.3822
 3552TIP3    H232292   1.400   2.469   9.285 -1.6618  3.4299 -0.7529
 3553TIP3   OH232293   0.865   1.414   1.793  0.0884  0.0659  0.5673
 3553TIP3    H132294   0.940   1.473   1.806 -0.3182  0.6594  0.2746
 3553TIP3    H232295   0.893   1.356   1.722  0.8244 -0.6736  1.4406
 3554TIP3   OH232296   5.321   0.682   2.774 -0.4436 -0.2025  0.4222
 3554TIP3    H132297   5.286   0.752   2.719  1.0953  0.0794 -0.2544
 3554TIP3    H232298   5.372   0.728   2.841  3.3427 -0.6013 -1.9117
 3555TIP3   OH232299   1.801   5.217   0.292  0.1054 -0.0132 -0.1558
 3555TIP3    H132300   1.874   5.216   0.231  1.0434  0.1031  0.9301
 3555TIP3    H232301   1.782   5.125   0.310 -0.9840 -0.0930 -1.5143
 3556TIP3   OH232302   0.830   0.697   8.858  0.6514 -0.6011 -0.3713
 3556TIP3    H132303   0.866   0.758   8.793  0.3527  1.3145  1.1451
 3556TIP3    H232304   0.742   0.678   8.826  0.9324 -0.6613 -1.1409
 3557TIP3   OH232305   5.925   5.235   2.113 -0.1916  0.1395  0.1989
 3557TIP3    H132306   5.904   5.144   2.095  1.7769 -0.0637 -1.4405
 3557TIP3    H232307   5.942   5.238   2.208  0.0338 -1.2689  0.2148
 3558TIP3   OH232308   1.475   0.318   7.810 -0.4375 -0.2026  0.3970
 3558TIP3    H132309   1.510   0.300   7.723 -0.8664 -1.3719  0.4543
 3558TIP3    H232310   1.537   0.380   7.848  1.1000 -1.5243  0.1516
 3559TIP3   OH232311   3.639   2.204   9.730 -0.6981  0.2045  0.2454
 3559TIP3    H132312   3.614   2.139   9.666 -3.6350  0.2239  1.2392
 3559TIP3    H232313   3.627   2.288   9.686  0.7650  0.1688 -0.2667
 3560TIP3   OH232314   0.428   4.152   2.371 -0.3780 -0.4266 -0.6785
 3560TIP3    H132315   0.343   4.173   2.332 -0.3527 -0.9162 -0.9991
 3560TIP3    H232316   0.411   4.074   2.424 -0.2694 -0.1416 -0.2130
 3561TIP3   OH232317   3.540   3.146   9.846 -0.5168 -0.4253 -0.8137
 3561TIP3    H132318   3.480   3.218   9.828  0.1154 -0.3628 -2.9562
 3561TIP3    H232319   3.483   3.074   9.874 -1.3568  0.2569 -0.7168
 3562TIP3   OH232320   3.471   1.857   2.182 -0.3172 -0.1411  0.7647
 3562TIP3    H132321   3.445   1.767   2.202  1.1239 -0.4676  1.3205
 3562TIP3    H232322   3.515   1.851   2.097 -0.1829  0.0424  0.8214
 3563TIP3   OH232323   3.338   1.200   0.266  0.1866 -0.1142  0.0847
 3563TIP3    H132324   3.375   1.113   0.251  0.9970  0.2265  0.0461
 3563TIP3    H232325   3.368   1.224   0.353 -1.0313 -0.3576  0.5864
 3564TIP3   OH232326   5.563   1.072   9.026  0.2214  0.2687  0.4377
 3564TIP3    H132327   5.646   1.073   8.977 -0.4691  0.5801 -0.7680
 3564TIP3    H232328   5.590   1.073   9.118  1.5616 -0.0402  0.0788
 3565TIP3   OH232329   3.498   0.529   1.603 -0.3303  0.7288 -0.6045
 3565TIP3    H132330   3.440   0.546   1.677  0.2020 -2.0389  0.5818
 3565TIP3    H232331   3.585   0.554   1.635 -0.1109 -0.3979 -0.2730
 3566TIP3   OH232332   2.293   4.753   9.171  0.2558 -0.0741 -0.1097
 3566TIP3    H132333   2.385   4.737   9.189 -0.0375 -1.3827  0.3999
 3566TIP3    H232334   2.288   4.846   9.149  1.5579  0.2289  0.7328
 3567TIP3   OH232335   0.261   0.772   8.702 -0.6204  0.1904 -0.2502
 3567TIP3    H132336   0.169   0.785   8.680 -1.3711 -0.3837  2.2072
 3567TIP3    H232337   0.294   0.714   8.634 -2.5578 -0.9810 -0.2599
 3568TIP3   OH232338   5.427   5.942   0.838  0.2131 -0.4598 -0.3642
 3568TIP3    H132339   5.395   5.871   0.782 -1.5236 -0.5663  0.7121
 3568TIP3    H232340   5.491   5.900   0.895 -0.6041 -1.1300  0.0814
 3569TIP3   OH232341   5.414   1.259   8.478  0.0684 -0.5327  0.4775
 3569TIP3    H132342   5.381   1.310   8.404 -0.3296  0.7692  1.5144
 3569TIP3    H232343   5.419   1.170   8.445  1.6994  0.2735 -1.7232
 3570TIP3   OH232344   0.039   6.417   8.219  0.3489  0.2870  0.0429
 3570TIP3    H132345  -0.021   6.373   8.280 -0.4715 -0.6275 -1.3573
 3570TIP3    H232346   0.123   6.418   8.265 -0.1696 -0.6317  1.0708
 3571TIP3   OH232347   1.103   4.426   8.232 -0.5853  0.1468 -0.8553
 3571TIP3    H132348   1.191   4.452   8.261 -1.4514  0.1580  2.1293
 3571TIP3    H232349   1.087   4.479   8.154  0.5308  3.1831  0.8132
 3572TIP3   OH232350   3.966   6.190   9.011 -0.3840 -0.0828 -0.0778
 3572TIP3    H132351   3.992   6.177   8.920 -0.4027  1.0216 -0.2520
 3572TIP3    H232352   3.972   6.102   9.050  1.9789 -0.1882 -0.5167
 3573TIP3   OH232353   3.615   4.067   3.372 -0.2705  0.1971  0.0978
 3573TIP3    H132354   3.673   4.116   3.431 -0.0615 -1.0512  0.9670
 3573TIP3    H232355   3.527   4.098   3.394 -0.0605  1.1855 -0.3583
 3574TIP3   OH232356   5.924   0.928   8.195  0.2716 -0.5784  0.2123
 3574TIP3    H132357   5.907   1.018   8.166  1.4828  0.1104  1.5262
 3574TIP3    H232358   5.961   0.885   8.118 -0.9901 -0.1670 -0.6418
 3575TIP3   OH232359   0.561   2.792   8.902 -0.4073 -0.6165  0.4779
 3575TIP3    H132360   0.573   2.760   8.813  1.0318 -0.0034  0.4239
 3575TIP3    H232361   0.575   2.887   8.896 -1.0586 -0.4522  1.2376
 3576TIP3   OH232362   4.064   1.770   1.349  0.4065  0.0512 -0.5980
 3576TIP3    H132363   4.106   1.851   1.319  1.4896 -0.1799  0.2205
 3576TIP3    H232364   3.996   1.799   1.409  0.7010  0.3713 -0.4153
 3577TIP3   OH232365   1.244   2.076   7.873 -1.1132 -0.2064 -0.0714
 3577TIP3    H132366   1.324   2.053   7.920 -0.9935 -1.0645 -0.6702
 3577TIP3    H232367   1.217   2.159   7.911  0.0975  0.1249  0.1024
 3578TIP3   OH232368   6.361   4.357   1.719  0.3437 -0.3762 -0.3474
 3578TIP3    H132369   6.305   4.282   1.704  1.1431 -1.1240  0.3219
 3578TIP3    H232370   6.414   4.364   1.639  1.5684 -1.6958  0.3049
 3579TIP3   OH232371   1.772   5.910   0.346 -0.4751  0.2635 -0.4879
 3579TIP3    H132372   1.789   5.825   0.307 -1.6066 -0.0667 -0.2772
 3579TIP3    H232373   1.824   5.910   0.426 -0.2308 -0.1066 -0.6440
 3580TIP3   OH232374   0.721   3.245   9.910  0.1252  0.4387 -0.6307
 3580TIP3    H132375   0.668   3.253   9.990  0.3790 -0.4770 -0.3609
 3580TIP3    H232376   0.675   3.180   9.858  1.3994 -0.9977 -0.0305
 3581TIP3   OH232377   0.394   5.871   1.093 -0.3614  0.0976 -0.5798
 3581TIP3    H132378   0.322   5.812   1.073 -0.6511 -0.5306  1.9316
 3581TIP3    H232379   0.352   5.952   1.123 -0.1640 -0.5680  1.7446
 3582TIP3   OH232380   0.666   1.843   8.645 -0.0122  0.3766  0.2388
 3582TIP3    H132381   0.664   1.870   8.553 -3.1017  0.9876  0.3845
 3582TIP3    H232382   0.646   1.749   8.644 -1.8113  0.7223  0.3023
 3583TIP3   OH232383   3.051   5.951   8.241 -0.3164 -0.5382 -0.2294
 3583TIP3    H132384   3.009   5.898   8.308 -0.4729  0.9781  0.9187
 3583TIP3    H232385   3.129   5.901   8.215 -1.2924 -2.0463 -0.3461
 3584TIP3   OH232386   4.204   3.647   2.526  0.0284  0.6676  0.2487
 3584TIP3    H132387   4.225   3.642   2.433 -0.8208  1.9803 -0.0349
 3584TIP3    H232388   4.275   3.600   2.570 -0.1172 -0.8978 -1.1189
 3585TIP3   OH232389   6.024   1.325   0.761  0.2371  0.6235 -0.0211
 3585TIP3    H132390   5.993   1.303   0.849 -0.6387  0.5884 -0.3256
 3585TIP3    H232391   6.117   1.344   0.772  0.2757  0.0056  0.8052
 3586TIP3   OH232392   2.412   4.393   2.069  0.3680  0.3096 -0.0998
 3586TIP3    H132393   2.465   4.473   2.062  1.1866 -0.2406 -0.2795
 3586TIP3    H232394   2.475   4.324   2.088 -0.5404  0.0251  2.2068
 3587TIP3   OH232395   1.149   0.760   2.713  0.2165 -0.4227 -0.2229
 3587TIP3    H132396   1.204   0.832   2.682  0.0700  0.4045  1.3667
 3587TIP3    H232397   1.158   0.693   2.645 -0.2649  1.3503 -2.1392
 3588TIP3   OH232398   0.722   0.938   9.533 -0.3327 -0.0135  0.7201
 3588TIP3    H132399   0.689   0.865   9.480  1.2561 -0.4295  0.2492
 3588TIP3    H232400   0.689   1.016   9.489  0.8367 -0.3526 -0.8579
 3589TIP3   OH232401   5.864   1.616   7.426  0.3621 -0.0603  0.2254
 3589TIP3    H132402   5.789   1.557   7.424 -0.5181  0.9557  1.5362
 3589TIP3    H232403   5.884   1.626   7.519 -0.6419  3.0434  0.2259
 3590TIP3   OH232404   2.408   2.496   8.794  0.2818  0.1629 -0.3149
 3590TIP3    H132405   2.397   2.492   8.889 -1.3737 -0.9665 -0.5042
 3590TIP3    H232406   2.429   2.407   8.768 -1.2132  0.0110 -1.1578
 3591TIP3   OH232407   5.834   2.609   0.056  0.3223 -0.1832 -0.3264
 3591TIP3    H132408   5.863   2.559  -0.020  0.5692 -0.3219 -0.1411
 3591TIP3    H232409   5.897   2.588   0.125  0.7650  0.8180 -0.4097
 3592TIP3   OH232410   2.653   3.166   0.997  0.4132  0.3371  1.1037
 3592TIP3    H132411   2.734   3.191   0.952  0.3951 -0.1247  0.8157
 3592TIP3    H232412   2.658   3.071   1.006  0.7773  0.4965  2.7790
 3593TIP3   OH232413   2.404   0.404   8.889 -0.1658  0.1235  0.3066
 3593TIP3    H132414   2.479   0.393   8.947  0.1027  0.3894  0.0168
 3593TIP3    H232415   2.415   0.491   8.852  1.1402 -0.9723 -2.1644
 3594TIP3   OH232416   4.312   4.063   0.868  0.3196 -0.2104  0.5039
 3594TIP3    H132417   4.353   4.035   0.950  1.0339 -3.4745 -0.7759
 3594TIP3    H232418   4.375   4.125   0.830  2.4967 -2.3693  0.2743
 3595TIP3   OH232419   0.007   2.897   7.700  0.1022 -0.1764 -0.2006
 3595TIP3    H132420  -0.043   2.826   7.741 -1.0368  0.1258 -0.9987
 3595TIP3    H232421   0.030   2.955   7.772 -0.9837 -0.1765  0.1630
 3596TIP3   OH232422   0.574   3.900   2.741 -0.1475 -0.2915  0.3458
 3596TIP3    H132423   0.626   3.963   2.792 -0.3105 -0.0612  0.2254
 3596TIP3    H232424   0.492   3.891   2.790  0.0475 -0.7541  0.6058
 3597TIP3   OH232425   4.599   4.504   3.490 -0.1867 -0.0920 -0.6890
 3597TIP3    H132426   4.687   4.479   3.518 -0.4413 -0.2277 -0.0035
 3597TIP3    H232427   4.578   4.580   3.544 -0.0064  0.7131 -1.7223
 3598TIP3   OH232428   1.753   2.501  10.018 -0.0732  0.3479  0.1660
 3598TIP3    H132429   1.670   2.468   9.983 -0.0141  0.6855 -0.2963
 3598TIP3    H232430   1.741   2.596  10.023  1.5018  0.8552 -3.2740
 3599TIP3   OH232431   6.103   2.433   2.472 -0.0887  0.2902  0.7202
 3599TIP3    H132432   6.196   2.435   2.446 -0.3229 -1.3513 -0.3880
 3599TIP3    H232433   6.087   2.520   2.508  1.8556  0.6554  0.8409
 3600TIP3   OH232434   0.718   6.322   8.805 -0.2599 -0.2107  0.0899
 3600TIP3    H132435   0.715   6.398   8.864 -1.9532 -0.0620 -0.1495
 3600TIP3    H232436   0.661   6.258   8.847 -1.4762 -0.1124 -1.3396
 3601TIP3   OH232437   6.284   3.315   2.740 -0.4477  0.5483 -0.6281
 3601TIP3    H132438   6.224   3.365   2.683  0.3351 -0.1196 -2.0955
 3601TIP3    H232439   6.364   3.308   2.689  0.3426  0.0306  0.6471
 3602TIP3   OH232440   0.473   2.035   2.216  1.2477 -0.0397  0.5400
 3602TIP3    H132441   0.509   1.956   2.256  0.7280  0.5232  2.2126
 3602TIP3    H232442   0.524   2.047   2.136  0.6352 -2.6413 -0.3354
 3603TIP3   OH232443   5.855   5.669   8.862 -0.4544 -0.0315  0.3589
 3603TIP3    H132444   5.764   5.699   8.857  0.2290  2.7231  2.0550
 3603TIP3    H232445   5.854   5.582   8.823 -3.9679 -0.4784  1.1371
 3604TIP3   OH232446   2.522   6.326   1.181  0.0876 -0.3893 -0.2607
 3604TIP3    H132447   2.440   6.329   1.131 -0.1553 -1.3483  0.0489
 3604TIP3    H232448   2.537   6.417   1.207 -0.3327 -0.0427 -1.1889
 3605TIP3   OH232449   2.511   3.492   0.954 -0.8840 -0.1199 -0.4257
 3605TIP3    H132450   2.468   3.407   0.968 -1.2450  0.3552  1.6854
 3605TIP3    H232451   2.441   3.556   0.968 -0.4770  0.5611 -1.4155
 3606TIP3   OH232452   5.189   5.035   2.010 -0.5493  0.2883  0.3457
 3606TIP3    H132453   5.266   5.046   1.954 -1.0739 -1.4727 -0.7942
 3606TIP3    H232454   5.208   4.955   2.060 -0.2982  1.5550  2.4310
 3607TIP3   OH232455   4.554   1.569   2.681  0.4820  0.0824  0.5340
 3607TIP3    H132456   4.628   1.534   2.731  0.8617 -1.8285 -1.2117
 3607TIP3    H232457   4.478   1.521   2.714  0.9140 -2.1675 -1.4260
 3608TIP3   OH232458   3.302   3.250   3.205  0.1110 -0.0569  0.0005
 3608TIP3    H132459   3.372   3.295   3.252  0.0077 -0.8198  0.9284
 3608TIP3    H232460   3.231   3.314   3.201  0.1508  0.0512  0.8387
 3609TIP3   OH232461   1.136   4.880   9.621  0.3155 -0.2328 -0.0493
 3609TIP3    H132462   1.077   4.892   9.546  0.2467  0.8368  0.1617
 3609TIP3    H232463   1.156   4.969   9.650 -0.0370 -0.6455  1.5096
 3610TIP3   OH232464   0.817   1.741   1.827  0.0362  0.1831 -0.2730
 3610TIP3    H132465   0.774   1.745   1.912 -2.3066 -0.6907 -1.3241
 3610TIP3    H232466   0.895   1.688   1.842  0.2053  0.8765  1.5053
 3611TIP3   OH232467   3.525   5.544   9.570  0.2278 -0.3874 -0.1227
 3611TIP3    H132468   3.492   5.612   9.630 -0.3404 -1.0338  0.3233
 3611TIP3    H232469   3.460   5.474   9.576  0.4431 -0.6844 -1.1093
 3612TIP3   OH232470   4.899   5.875   0.382 -0.5504  0.2133 -0.1534
 3612TIP3    H132471   4.878   5.839   0.468 -0.4760  1.6701  0.4998
 3612TIP3    H232472   4.833   5.838   0.323 -0.3433 -1.1360  0.4214
 3613TIP3   OH232473   1.507   4.736   0.686 -0.5110  0.1817  0.1261
 3613TIP3    H132474   1.592   4.754   0.727 -0.4679 -1.9226  1.1075
 3613TIP3    H232475   1.525   4.734   0.592  0.0779  1.7826  0.1823
 3614TIP3   OH232476   3.645   4.414   0.848  0.4522  0.4147  0.5095
 3614TIP3    H132477   3.591   4.370   0.914  3.1359 -0.3164  2.3688
 3614TIP3    H232478   3.603   4.392   0.765 -0.5961 -2.3507  1.6510
 3615TIP3   OH232479   2.024   3.758   2.753 -0.2002  0.1566 -0.2709
 3615TIP3    H132480   2.038   3.758   2.847  0.2357  0.6929 -0.3270
 3615TIP3    H232481   1.952   3.696   2.738  1.1347 -1.5899  0.2014
 3616TIP3   OH232482   0.237   4.010   0.989  0.5582 -0.0398  0.0995
 3616TIP3    H132483   0.243   3.937   1.051  0.9639 -0.2616 -0.1941
 3616TIP3    H232484   0.158   4.057   1.014 -0.0831 -0.9682 -0.1302
 3617TIP3   OH232485   0.787   2.778   9.948  0.1143 -0.2317 -0.3953
 3617TIP3    H132486   0.823   2.844  10.007  2.1377 -0.7692 -0.9362
 3617TIP3    H232487   0.803   2.695   9.993 -1.8315 -0.4285 -0.0023
 3618TIP3   OH232488   4.476   2.496   1.258  0.4691 -0.0277  0.2394
 3618TIP3    H132489   4.393   2.453   1.277  1.2278 -1.8347 -0.3274
 3618TIP3    H232490   4.452   2.572   1.205 -0.8511 -0.2901  0.4390
 3619TIP3   OH232491   1.227   4.991   9.272 -0.3631  0.0741 -0.5851
 3619TIP3    H132492   1.304   5.013   9.325  0.5679 -3.1205 -0.3619
 3619TIP3    H232493   1.182   5.074   9.259  1.5325  1.6316  1.8030
 3620TIP3   OH232494   1.504   3.716   2.058 -0.3545  0.3818 -0.5894
 3620TIP3    H132495   1.584   3.744   2.015 -0.8711  0.6781 -1.3808
 3620TIP3    H232496   1.488   3.627   2.025 -1.0786  0.8367 -1.5139
 3621TIP3   OH232497   3.836   5.631   2.031 -0.1761  0.0322 -0.0884
 3621TIP3    H132498   3.804   5.611   1.943 -1.6957  1.8091 -0.0090
 3621TIP3    H232499   3.895   5.706   2.019 -2.0927  1.7599  0.5322
 3622TIP3   OH232500   0.731   3.440   2.925 -0.4558  0.2043  0.3528
 3622TIP3    H132501   0.696   3.362   2.967  0.4175  0.5413  1.7956
 3622TIP3    H232502   0.697   3.513   2.977  0.5059  0.6443  0.4027
 3623TIP3   OH232503   5.495   1.530   0.049 -0.0969 -0.0367 -0.2056
 3623TIP3    H132504   5.564   1.490   0.103  0.1977  0.3951 -0.2606
 3623TIP3    H232505   5.416   1.482   0.073  0.4126 -1.3253 -0.9828
 3624TIP3   OH232506   2.928   4.027   0.521 -0.4336 -0.2391  0.2107
 3624TIP3    H132507   2.950   3.947   0.474 -0.4970 -0.2865  0.2626
 3624TIP3    H232508   2.833   4.026   0.529 -0.4515 -0.0612  0.0390
 3625TIP3   OH232509   6.390   5.000   9.889  0.1813 -0.9635 -0.4359
 3625TIP3    H132510   6.413   5.083   9.932 -0.7612 -0.8187 -0.1793
 3625TIP3    H232511   6.473   4.966   9.857  0.4567  0.5910 -1.4669
 3626TIP3   OH232512   3.381   5.410   2.958  0.4672 -0.7505 -0.3515
 3626TIP3    H132513   3.363   5.316   2.968  0.7676 -0.7824 -0.0802
 3626TIP3    H232514   3.472   5.420   2.986  0.1082 -0.2111  0.7063
 3627TIP3   OH232515   0.537   5.110   8.321 -0.5382 -0.2085  0.1281
 3627TIP3    H132516   0.474   5.086   8.253  0.2010 -1.3965 -0.1550
 3627TIP3    H232517   0.591   5.032   8.333  0.0413  0.3518  1.3066
 3628TIP3   OH232518   5.678   2.475   1.209  0.0339 -0.1945  0.1037
 3628TIP3    H132519   5.682   2.401   1.269  0.6196  0.6276  1.1082
 3628TIP3    H232520   5.608   2.530   1.242 -0.6114 -0.4349 -0.8245
 3629TIP3   OH232521   4.782   3.354   3.003 -0.1333 -1.0298  0.3304
 3629TIP3    H132522   4.865   3.391   3.030  0.4076 -2.0436  0.1252
 3629TIP3    H232523   4.801   3.311   2.919 -0.5729 -2.2357  0.8202
 3630TIP3   OH232524   1.675   0.726   8.197  0.4735  0.0963 -0.1733
 3630TIP3    H132525   1.653   0.636   8.173  1.4327 -0.1443 -0.1978
 3630TIP3    H232526   1.625   0.780   8.136  0.6841 -0.4432 -0.8305
 3631TIP3   OH232527   2.165   5.437   1.902 -0.3269  0.3143 -0.0270
 3631TIP3    H132528   2.211   5.424   1.819 -0.2008 -0.1203  0.1051
 3631TIP3    H232529   2.146   5.530   1.905 -0.1669  0.3633 -0.4589
 3632TIP3   OH232530   4.865   2.681   1.588  0.2141 -0.0996  0.1628
 3632TIP3    H132531   4.936   2.713   1.643  0.1124  1.6628 -0.6727
 3632TIP3    H232532   4.893   2.700   1.499 -0.7464 -0.5737 -0.2557
 3633TIP3   OH232533   3.596   2.623   1.623  0.5140  0.4978  0.5136
 3633TIP3    H132534   3.630   2.554   1.680  0.5277  0.6400  0.6753
 3633TIP3    H232535   3.604   2.703   1.674 -0.8779  0.4272  0.8979
 3634TIP3   OH232536   2.356   2.200   1.450  0.4067  0.0497  0.0985
 3634TIP3    H132537   2.331   2.270   1.510  1.6305  0.9865 -0.4212
 3634TIP3    H232538   2.433   2.160   1.491  0.8712  0.2835 -0.5325
 3635TIP3   OH232539   0.407   1.961   0.543 -0.1202  0.3717  0.3285
 3635TIP3    H132540   0.377   1.892   0.602  1.3991 -0.5232  0.1178
 3635TIP3    H232541   0.337   1.970   0.479 -1.0983  0.2415  1.3526
 3636TIP3   OH232542   0.450   5.415  10.025  0.2816 -0.1039  0.3434
 3636TIP3    H132543   0.513   5.352   9.992  0.5471 -0.1043  0.8388
 3636TIP3    H232544   0.433   5.474   9.951  0.2108 -0.6061 -0.0481
 3637TIP3   OH232545   0.360   4.875   8.799 -0.6478 -0.2006 -0.4355
 3637TIP3    H132546   0.451   4.885   8.772  0.8846 -1.1343  3.6528
 3637TIP3    H232547   0.320   4.960   8.778  2.1043  1.4936  0.6069
 3638TIP3   OH232548   6.028   5.607   2.554 -0.7235 -0.1769  0.1063
 3638TIP3    H132549   6.053   5.547   2.483  1.4001  0.3793  0.3288
 3638TIP3    H232550   5.936   5.628   2.536 -0.7224 -1.3639 -1.5128
 3639TIP3   OH232551   1.226   0.309   1.429  0.7251  0.0064  0.5454
 3639TIP3    H132552   1.313   0.269   1.423  1.8144  2.2615  0.4260
 3639TIP3    H232553   1.226   0.351   1.515 -0.4016 -0.2331  0.6756
 3640TIP3   OH232554   5.306   5.312   0.471 -0.2337 -0.3788 -0.2313
 3640TIP3    H132555   5.319   5.229   0.425 -0.1861 -0.9564  0.7915
 3640TIP3    H232556   5.384   5.363   0.449 -0.8058 -0.1309 -1.8070
 3641TIP3   OH232557   4.458   1.086   0.540 -0.8458  0.6795  0.1256
 3641TIP3    H132558   4.504   1.052   0.617  0.4628  2.0085 -0.0240
 3641TIP3    H232559   4.421   1.008   0.498  1.0128 -0.4284  0.4356
 3642TIP3   OH232560   4.424   4.431   2.833  0.4871  0.2366  0.0552
 3642TIP3    H132561   4.409   4.521   2.862  0.0701  0.3867 -0.6044
 3642TIP3    H232562   4.345   4.383   2.860  1.1635 -0.1800  1.3544
 3643TIP3   OH232563   2.003   6.234   1.747  0.1288  0.2796 -0.0909
 3643TIP3    H132564   2.071   6.302   1.748  0.2394  0.2031 -0.9492
 3643TIP3    H232565   2.002   6.199   1.836 -0.3968  1.8433  0.5526
 3644TIP3   OH232566   2.986   2.274   8.540  0.0318 -0.7080  0.7957
 3644TIP3    H132567   3.073   2.312   8.527  0.4668 -1.6904  0.6976
 3644TIP3    H232568   2.941   2.285   8.456 -0.0411  0.0424  0.9283
 3645TIP3   OH232569   3.670   0.537   1.000 -0.1158 -0.0254 -0.9882
 3645TIP3    H132570   3.581   0.534   1.035  0.4332  0.5031  0.5415
 3645TIP3    H232571   3.702   0.447   1.010 -0.0296  0.0785 -0.2860
 3646TIP3   OH232572   6.355   4.674   2.375  0.0243  0.1503 -0.1293
 3646TIP3    H132573   6.384   4.735   2.307 -0.8163 -0.8338 -1.4313
 3646TIP3    H232574   6.415   4.600   2.368  0.1578  0.1991  0.4656
 3647TIP3   OH232575   3.908   4.964   1.142 -0.2603  0.4178  0.3075
 3647TIP3    H132576   4.001   4.982   1.129 -0.1241 -0.4149  0.0963
 3647TIP3    H232577   3.905   4.899   1.212 -0.6864  0.4502  0.3255
 3648TIP3   OH232578   4.088   1.925   1.025  0.0793 -0.1712 -0.2159
 3648TIP3    H132579   4.130   1.842   1.001 -0.2647 -0.5691  0.5144
 3648TIP3    H232580   4.044   1.953   0.945  2.2976  0.6395 -1.2347
 3649TIP3   OH232581   0.161   1.143   9.692  0.2134  0.4558 -0.0288
 3649TIP3    H132582   0.200   1.180   9.772 -0.7022 -2.2387  1.7784
 3649TIP3    H232583   0.070   1.173   9.693 -0.0281 -0.2779  0.4248
 3650TIP3   OH232584   2.661   3.298   3.360  0.3408 -0.1259 -0.4908
 3650TIP3    H132585   2.633   3.319   3.450 -1.2989  0.5315 -1.1048
 3650TIP3    H232586   2.699   3.379   3.327 -1.3046  0.4235 -1.1613
 3651TIP3   OH232587   0.956   5.898   8.097  0.1926 -0.1316  0.0364
 3651TIP3    H132588   0.897   5.949   8.041 -0.4480 -0.3374  0.5107
 3651TIP3    H232589   0.900   5.831   8.137  0.8555 -0.6714  0.0802
 3652TIP3   OH232590   5.942   3.105   0.708 -0.2909 -0.1791  0.2235
 3652TIP3    H132591   5.908   3.124   0.621  0.1058 -1.0748 -0.1355
 3652TIP3    H232592   5.992   3.183   0.732  1.5398 -0.8164 -1.3269
 3653TIP3   OH232593   2.095   1.459   1.346 -0.5761  0.2928 -0.1709
 3653TIP3    H132594   2.139   1.447   1.262  0.0147 -1.0349  0.2969
 3653TIP3    H232595   2.140   1.533   1.387 -0.6947  0.7741 -0.9002
 3654TIP3   OH232596   2.022   2.133   8.599  0.2113 -0.1490 -0.0708
 3654TIP3    H132597   2.078   2.208   8.579 -0.2186  0.7089  1.7341
 3654TIP3    H232598   2.080   2.057   8.594  0.7535  0.3426 -1.4860
 3655TIP3   OH232599   5.015   2.688   0.813  0.8847  0.3405 -0.6480
 3655TIP3    H132600   5.045   2.771   0.850 -0.3933  0.6735 -0.2926
 3655TIP3    H232601   5.035   2.623   0.880  0.4434  0.6200 -0.2357
 3656TIP3   OH232602   4.433   4.835   1.247 -0.2184  0.6581  0.0124
 3656TIP3    H132603   4.357   4.810   1.195  0.3618  2.9467 -2.1257
 3656TIP3    H232604   4.508   4.799   1.199  0.2143  1.0536  0.3770
 3657TIP3   OH232605   4.291   5.952   1.759 -0.0130 -0.0551  0.7064
 3657TIP3    H132606   4.234   5.999   1.820  0.6429  0.4812  0.9143
 3657TIP3    H232607   4.372   6.003   1.756 -0.1956  0.2132 -1.0016
 3658TIP3   OH232608   3.370   1.882   9.584 -0.2145 -0.3434 -0.4126
 3658TIP3    H132609   3.293   1.870   9.527 -0.3783  0.7810 -0.4516
 3658TIP3    H232610   3.427   1.941   9.535  0.1463 -0.2463  0.1175
 3659TIP3   OH232611   1.484   0.569   0.731  0.3767  0.1493 -0.5491
 3659TIP3    H132612   1.561   0.564   0.675  0.8326  0.5242  0.0330
 3659TIP3    H232613   1.466   0.663   0.739  2.1874  0.3914  2.3930
 3660TIP3   OH232614   1.902   1.929   9.437 -0.1357  0.1258 -0.0811
 3660TIP3    H132615   1.991   1.894   9.426  0.3668  1.9063 -3.1514
 3660TIP3    H232616   1.914   2.007   9.491 -0.2804 -0.9400  1.5486
 3661TIP3   OH232617   5.384   3.848   9.962  0.0283  0.2690  0.1530
 3661TIP3    H132618   5.459   3.789   9.971  0.6443  1.0681  0.4529
 3661TIP3    H232619   5.402   3.918  10.025 -0.4895  0.9721 -0.4655
 3662TIP3   OH232620   0.531   4.410   3.596 -0.2716  0.5146  0.2935
 3662TIP3    H132621   0.531   4.316   3.581 -1.0359  0.6555 -0.7116
 3662TIP3    H232622   0.624   4.434   3.596 -0.1019 -0.0148 -1.1111
 3663TIP3   OH232623   1.840   4.519   0.950  0.2113  0.4234  0.0529
 3663TIP3    H132624   1.800   4.434   0.968 -0.0300  0.8814  1.8344
 3663TIP3    H232625   1.932   4.509   0.974  0.7068  0.0741 -1.7943
 3664TIP3   OH232626   4.703   0.606   2.526  0.1984 -0.0655 -0.9982
 3664TIP3    H132627   4.619   0.561   2.517 -0.2377 -0.0166  1.8743
 3664TIP3    H232628   4.679   0.698   2.539  0.5922 -0.1146  0.2791
 3665TIP3   OH232629   0.986   0.239   8.203  0.2960  0.1958  0.0379
 3665TIP3    H132630   1.046   0.264   8.132 -1.8629  1.2847 -1.5123
 3665TIP3    H232631   0.972   0.145   8.190 -0.5127  0.4823 -1.3997
 3666TIP3   OH232632   4.249   0.604   0.559 -1.3195 -0.4525 -0.0423
 3666TIP3    H132633   4.249   0.520   0.605 -0.6960 -1.4401 -1.7571
 3666TIP3    H232634   4.329   0.602   0.506 -1.0671  1.4246  0.1991
 3667TIP3   OH232635   1.715   2.897   8.971  0.1160 -0.0299 -0.4140
 3667TIP3    H132636   1.653   2.935   8.910  1.3087  1.6713 -0.6370
 3667TIP3    H232637   1.666   2.886   9.052 -0.7361  0.3061 -0.8767
 3668TIP3   OH232638   6.268   3.251   9.134 -0.1264  0.4528  0.2464
 3668TIP3    H132639   6.242   3.251   9.226 -0.8552  1.7432  0.0621
 3668TIP3    H232640   6.325   3.175   9.125 -0.7951 -0.2298  1.5480
 3669TIP3   OH232641   2.448   5.036   9.183 -0.0477 -0.3583  0.3920
 3669TIP3    H132642   2.541   5.022   9.166 -0.5006 -1.9071 -1.1198
 3669TIP3    H232643   2.441   5.128   9.208  1.5775  0.4991 -1.9589
 3670TIP3   OH232644   4.858   4.192   1.673 -0.1418  0.7415 -0.0238
 3670TIP3    H132645   4.821   4.218   1.588  0.3791  1.9041  0.0846
 3670TIP3    H232646   4.798   4.125   1.706 -1.9304  2.2405 -0.0602
 3671TIP3   OH232647   3.632   1.550   9.939 -0.3275  0.1290  0.0196
 3671TIP3    H132648   3.683   1.630   9.952  1.2928 -0.6398 -1.2682
 3671TIP3    H232649   3.608   1.552   9.847 -2.0149  0.0644  0.4198
 3672TIP3   OH232650   1.469   4.647   9.031  0.8556 -0.0169 -0.8720
 3672TIP3    H132651   1.553   4.659   9.076  0.5223 -0.8096  0.0265
 3672TIP3    H232652   1.404   4.665   9.099  0.3319 -3.6499 -0.1898
 3673TIP3   OH232653   1.876   3.562   1.168  0.1408  0.2596 -0.5283
 3673TIP3    H132654   1.865   3.506   1.091  0.9745 -2.2119  1.0292
 3673TIP3    H232655   1.791   3.561   1.211  0.1383  0.2582 -0.5332
 3674TIP3   OH232656   4.736   0.979   0.744  0.2827 -0.1567  0.5679
 3674TIP3    H132657   4.758   0.930   0.823  0.9991  0.5729  0.8339
 3674TIP3    H232658   4.781   1.062   0.754  1.0904 -0.3588 -0.9931
 3675TIP3   OH232659   0.208   1.760   2.511 -0.4222 -0.0112  0.3442
 3675TIP3    H132660   0.177   1.845   2.542  0.9027  0.3275  0.8239
 3675TIP3    H232661   0.288   1.744   2.562 -0.8467 -1.7228  0.5368
 3676TIP3   OH232662   4.522   0.864   0.934 -0.2785  0.1382  0.0847
 3676TIP3    H132663   4.594   0.813   0.897 -0.4052  0.7256 -1.0241
 3676TIP3    H232664   4.549   0.880   1.025  0.6772 -0.2270 -0.1161
 3677TIP3   OH232665   2.457   5.994   8.596  0.3801  0.1145 -0.4925
 3677TIP3    H132666   2.520   5.998   8.523 -0.8637  0.7710 -1.5685
 3677TIP3    H232667   2.400   5.921   8.574 -0.3248  0.6481 -0.4453
 3678TIP3   OH232668   3.750   5.644   0.172 -0.4687 -0.3224 -0.0692
 3678TIP3    H132669   3.795   5.714   0.220 -0.1819 -0.1978 -0.5086
 3678TIP3    H232670   3.793   5.643   0.086 -0.6128 -0.8991 -0.1368
 3679TIP3   OH232671   0.873   0.814   0.420  0.3943  0.2990 -0.0377
 3679TIP3    H132672   0.931   0.788   0.349 -0.2733  0.0789 -0.5122
 3679TIP3    H232673   0.882   0.909   0.426 -0.5632  0.5056 -1.3481
 3680TIP3   OH232674   5.262   6.247   9.080 -0.1331 -0.4738  0.4503
 3680TIP3    H132675   5.281   6.156   9.058 -2.7162 -0.9737  0.0871
 3680TIP3    H232676   5.263   6.249   9.176  3.5977  0.0522  0.5761
 3681TIP3   OH232677   3.381   2.032   8.469 -0.0261 -0.5380  0.0195
 3681TIP3    H132678   3.307   2.049   8.412 -0.8277  0.1143  1.2111
 3681TIP3    H232679   3.457   2.067   8.421 -0.2307 -2.4715 -1.8218
 3682TIP3   OH232680   4.416   0.831   0.400 -0.0099 -0.6288 -0.1718
 3682TIP3    H132681   4.492   0.773   0.400  0.4473 -0.0489 -0.2978
 3682TIP3    H232682   4.430   0.888   0.324 -0.2457 -0.1022  0.1721
 3683TIP3   OH232683   2.531   4.797   1.319  0.0661  0.2709  0.3123
 3683TIP3    H132684   2.605   4.795   1.258  0.1873  1.7917  0.3784
 3683TIP3    H232685   2.512   4.704   1.336  0.1654 -0.1966 -1.8224
 3684TIP3   OH232686   0.044   4.848   3.054 -0.1875  0.5251 -0.2801
 3684TIP3    H132687  -0.024   4.874   2.992 -1.3838  3.4426  2.0235
 3684TIP3    H232688   0.111   4.916   3.047 -0.6783  1.3298  1.9913
 3685TIP3   OH232689   1.526   0.822   8.620 -0.0034 -0.0330 -0.2185
 3685TIP3    H132690   1.604   0.768   8.633 -1.2594 -1.8163  0.2814
 3685TIP3    H232691   1.543   0.870   8.539  2.8754  2.0098  1.4209
 3686TIP3   OH232692   2.523   5.691   2.397  0.0152  0.2720 -0.1985
 3686TIP3    H132693   2.523   5.631   2.323 -1.0702 -0.3727  0.3010
 3686TIP3    H232694   2.547   5.776   2.359 -2.1909  0.3404 -1.6449
 3687TIP3   OH232695   4.310   0.157   2.729 -0.0282 -0.0119  0.1811
 3687TIP3    H132696   4.335   0.191   2.643  2.4336  0.7524  1.1109
 3687TIP3    H232697   4.378   0.093   2.750 -0.5529 -0.1363  1.6110
 3688TIP3   OH232698   4.126   3.773   3.623  0.5084 -0.0709  0.5807
 3688TIP3    H132699   4.166   3.755   3.708  0.2089 -0.1045  0.7151
 3688TIP3    H232700   4.060   3.840   3.641  0.7447  0.2452  0.2978
 3689TIP3   OH232701   5.134   5.839   1.521 -0.2716  0.0183 -0.4805
 3689TIP3    H132702   5.226   5.819   1.504  0.1686 -0.2236  1.9067
 3689TIP3    H232703   5.091   5.754   1.528 -0.6150  0.1281 -1.0874
 3690TIP3   OH232704   5.347   5.638   9.918 -0.2408 -0.6232 -0.0714
 3690TIP3    H132705   5.398   5.676   9.846 -2.6550 -1.5778 -2.4475
 3690TIP3    H232706   5.274   5.698   9.931  0.4119 -0.2108  2.0117
 3691TIP3   OH232707   0.425   0.481   9.864 -0.2600 -0.2746  0.1455
 3691TIP3    H132708   0.402   0.534   9.787  2.1473  0.0001 -0.4591
 3691TIP3    H232709   0.434   0.545   9.935 -1.3974 -0.4031  0.4281
 3692TIP3   OH232710   5.720   3.740   3.037  1.1076  0.4751 -0.0221
 3692TIP3    H132711   5.733   3.798   2.961  0.7112  1.5459  0.7004
 3692TIP3    H232712   5.809   3.721   3.067  1.2399  1.3306  0.1709
 3693TIP3   OH232713   1.225   2.846   0.560 -0.3382  0.0287 -0.1356
 3693TIP3    H132714   1.253   2.765   0.603 -1.4095  0.1188  0.7885
 3693TIP3    H232715   1.273   2.915   0.606 -0.4766  0.0179  0.0279
 3694TIP3   OH232716   4.331   2.147   0.570 -0.5887 -0.4823  0.3553
 3694TIP3    H132717   4.261   2.134   0.634 -2.0004  0.8688 -0.8314
 3694TIP3    H232718   4.374   2.228   0.598  0.8429 -1.5284  1.3230
 3695TIP3   OH232719   4.007   3.814   0.821 -0.1476 -0.0601 -0.5404
 3695TIP3    H132720   4.088   3.845   0.861  1.3904 -3.6936 -0.4582
 3695TIP3    H232721   4.026   3.808   0.727 -1.3899  1.7815 -0.9706
 3696TIP3   OH232722   2.541   1.459   7.836 -0.3049  0.6375 -0.3485
 3696TIP3    H132723   2.551   1.418   7.750 -0.0626 -0.7927  0.3382
 3696TIP3    H232724   2.449   1.485   7.840 -0.5905 -0.2959 -0.6173
 3697TIP3   OH232725   4.964   0.483   7.634 -0.4179  0.2045 -0.0203
 3697TIP3    H132726   5.030   0.429   7.676  0.1536  1.3962  0.6649
 3697TIP3    H232727   4.976   0.570   7.671 -1.4440  0.7756 -0.9362
 3698TIP3   OH232728   0.263   2.550   1.843 -0.1488 -0.3815 -0.5978
 3698TIP3    H132729   0.235   2.632   1.803  0.9164  0.4949  0.3854
 3698TIP3    H232730   0.208   2.541   1.921  1.0585  0.4691  0.3984
 3699TIP3   OH232731   3.894   2.916   0.141 -0.2146  0.1750 -1.2461
 3699TIP3    H132732   3.982   2.882   0.126 -0.0939  0.3899 -1.0284
 3699TIP3    H232733   3.881   2.906   0.236 -0.9060 -1.0248 -1.4458
 3700TIP3   OH232734   2.016   6.124   1.996  0.3860 -0.1307 -0.0662
 3700TIP3    H132735   1.933   6.078   2.009  1.1644 -1.2875  1.0789
 3700TIP3    H232736   2.013   6.195   2.060  0.9993 -1.2684  1.2955
 3701TIP3   OH232737   1.953   3.459   1.777  0.4509 -0.2644 -0.6059
 3701TIP3    H132738   2.003   3.534   1.810  1.3074 -1.8931  2.0735
 3701TIP3    H232739   1.931   3.483   1.687 -0.0440  3.5406  0.3447
 3702TIP3   OH232740   0.568   0.765   0.675  0.0138 -0.2846  0.2389
 3702TIP3    H132741   0.623   0.749   0.599 -0.2286  1.3590 -0.3146
 3702TIP3    H232742   0.540   0.677   0.703  1.7772 -1.0671 -0.2792
 3703TIP3   OH232743   4.961   3.592   3.316  0.0319  0.2430 -0.8253
 3703TIP3    H132744   5.000   3.529   3.376 -0.7610  1.4184  1.0112
 3703TIP3    H232745   4.981   3.558   3.229  1.6673 -1.2572  0.0793
 3704TIP3   OH232746   4.724   0.350   7.546  0.4980  0.2343  0.0280
 3704TIP3    H132747   4.742   0.256   7.545  0.4075  0.2094 -1.6179
 3704TIP3    H232748   4.810   0.391   7.530  0.7557  0.5157  1.8690
 3705TIP3   OH232749   0.701   0.246   2.456 -0.1214 -0.2878 -0.5143
 3705TIP3    H132750   0.737   0.224   2.370 -1.1186  0.1599 -1.0566
 3705TIP3    H232751   0.680   0.161   2.494 -1.8912 -0.4293 -1.7017
 3706TIP3   OH232752   1.886   3.679   8.360 -0.4706 -0.2587  0.9366
 3706TIP3    H132753   1.850   3.754   8.313  1.7679  0.8586  0.8809
 3706TIP3    H232754   1.904   3.711   8.448  0.0520 -0.8631  1.0611
 3707TIP3   OH232755   5.838   4.761   0.000  0.1769  0.5141  0.1155
 3707TIP3    H132756   5.827   4.831   0.065 -1.0511  0.3568  0.0944
 3707TIP3    H232757   5.916   4.787  -0.049  0.1427  1.5200  0.5527
 3708TIP3   OH232758   0.835   4.134   8.644 -0.2342 -0.5708  0.2115
 3708TIP3    H132759   0.763   4.197   8.640 -0.5781 -0.8108  1.7837
 3708TIP3    H232760   0.890   4.165   8.716  1.0697 -0.5873 -0.7523
 3709TIP3   OH232761   0.417   0.924   1.748  0.3253  0.5004 -0.2930
 3709TIP3    H132762   0.368   0.922   1.830 -1.7550  0.3730 -1.4791
 3709TIP3    H232763   0.416   1.016   1.722 -0.0137  0.3635 -0.7577
 3710TIP3   OH232764   4.359   0.357   9.724  0.3564  0.3633 -0.5218
 3710TIP3    H132765   4.361   0.360   9.628 -2.3768  0.7940 -0.6559
 3710TIP3    H232766   4.384   0.446   9.751 -0.8715  0.8802 -0.9805
 3711TIP3   OH232767   0.628   5.809   0.957  0.5547  0.0016  0.3868
 3711TIP3    H132768   0.664   5.897   0.944  0.9705 -0.0854  0.9220
 3711TIP3    H232769   0.560   5.821   1.023  0.5303 -0.0608  0.3725
 3712TIP3   OH232770   4.871   3.786   9.708  0.3051  0.5155 -0.4795
 3712TIP3    H132771   4.890   3.849   9.637 -1.1154  0.7134 -0.7305
 3712TIP3    H232772   4.830   3.839   9.776 -3.4037 -0.3952 -1.7472
 3713TIP3   OH232773   5.291   0.377   9.469  0.1709  0.0798  0.0362
 3713TIP3    H132774   5.285   0.310   9.537 -1.3102 -1.2699 -1.3432
 3713TIP3    H232775   5.209   0.426   9.477  0.3069  0.3691 -0.3282
 3714TIP3   OH232776   0.365   6.220   9.165 -0.4986 -0.4058 -0.2516
 3714TIP3    H132777   0.428   6.268   9.218 -0.3501 -1.4765  0.5851
 3714TIP3    H232778   0.340   6.281   9.096 -0.2043  0.8011  0.6715
 3715TIP3   OH232779   2.151   4.554   2.931 -0.1666  0.0236  0.4308
 3715TIP3    H132780   2.230   4.562   2.878 -0.2462  2.0920  0.5457
 3715TIP3    H232781   2.174   4.596   3.014 -2.2812  3.8264 -0.6626
 3716TIP3   OH232782   3.958   0.449   2.326  0.7658 -0.0326 -0.1080
 3716TIP3    H132783   3.948   0.378   2.263 -0.9156 -0.9374  1.1209
 3716TIP3    H232784   4.018   0.414   2.392  0.3796 -0.1015  0.2066
 3717TIP3   OH232785   0.935   4.043   9.899  0.2483  0.1263 -0.6149
 3717TIP3    H132786   1.000   3.975   9.881 -0.3845 -0.5610 -0.3840
 3717TIP3    H232787   0.984   4.125   9.900  1.1836 -0.4332  0.0475
 3718TIP3   OH232788   5.372   2.407   0.437 -0.7165 -0.5222 -0.5542
 3718TIP3    H132789   5.317   2.336   0.469  1.8499 -2.4291 -0.0719
 3718TIP3    H232790   5.372   2.396   0.342  0.3318 -1.7788 -0.4408
 3719TIP3   OH232791   2.715   0.714   9.144  0.2961 -0.1263 -0.2907
 3719TIP3    H132792   2.690   0.782   9.207 -1.7318 -1.0165 -0.0593
 3719TIP3    H232793   2.752   0.644   9.198 -2.0761 -1.1863  0.1140
 3720TIP3   OH232794   5.345   2.117   9.333 -0.2567 -0.7923  0.2920
 3720TIP3    H132795   5.306   2.080   9.412  1.2666 -0.3779  1.2931
 3720TIP3    H232796   5.314   2.208   9.330 -0.4764 -0.8675  0.2974
 3721TIP3   OH232797   3.582   1.269   9.205 -0.1574 -1.3459 -0.0648
 3721TIP3    H132798   3.615   1.198   9.150 -0.4159 -1.5270  0.0142
 3721TIP3    H232799   3.611   1.349   9.160 -0.6492 -1.4857 -0.6394
 3722TIP3   OH232800   6.122   0.384   0.461  0.6695  0.3423 -0.6957
 3722TIP3    H132801   6.060   0.319   0.430  0.9844 -0.0052 -0.5970
 3722TIP3    H232802   6.132   0.365   0.555  1.0281  0.3087 -0.7396
 3723TIP3   OH232803   0.914   0.884   1.348  0.1810  0.4221 -0.0744
 3723TIP3    H132804   0.860   0.820   1.303  0.8698 -1.6440  1.8887
 3723TIP3    H232805   0.852   0.936   1.400 -0.5415  2.4025 -2.6862
 3724TIP3   OH232806   5.734   1.398   2.529  0.5663  0.0026 -0.2542
 3724TIP3    H132807   5.727   1.325   2.590 -1.9998 -0.1257 -0.5623
 3724TIP3    H232808   5.749   1.357   2.444  0.8468 -0.0422 -0.1832
 3725TIP3   OH232809   3.347   6.204   9.099 -0.2451  0.3511  0.0531
 3725TIP3    H132810   3.399   6.194   9.179  1.0022  1.2293 -0.6266
 3725TIP3    H232811   3.269   6.252   9.128  0.1861  0.6528  0.7427
 3726TIP3   OH232812   3.487   6.178   1.605  0.0059 -0.6096 -0.5154
 3726TIP3    H132813   3.569   6.220   1.632 -0.2715 -0.5468  0.2674
 3726TIP3    H232814   3.446   6.152   1.687 -1.3058  0.3748 -0.8353
 3727TIP3   OH232815   5.768   5.647   2.519  0.4358  0.0712 -0.0447
 3727TIP3    H132816   5.682   5.674   2.550 -0.1236 -3.5346  2.1417
 3727TIP3    H232817   5.752   5.613   2.431 -0.0367  0.8545 -0.2712
 3728TIP3   OH232818   2.505   3.222   8.414  1.0217 -0.0452 -0.5994
 3728TIP3    H132819   2.524   3.315   8.428  2.0773 -0.2340 -0.6709
 3728TIP3    H232820   2.551   3.201   8.333  0.9080 -0.6603 -0.5059
 3729TIP3   OH232821   1.453   3.131   2.557 -0.0419 -0.1802 -0.9689
 3729TIP3    H132822   1.383   3.156   2.617  1.4824  1.2722  0.3038
 3729TIP3    H232823   1.460   3.204   2.495  2.7254  1.5893  1.1975
 3730TIP3   OH232824   0.084   0.373   9.885  0.3529 -0.8462  0.1416
 3730TIP3    H132825   0.111   0.282   9.872 -0.6530 -0.9926 -1.2415
 3730TIP3    H232826   0.110   0.417   9.804  0.2002 -0.0673  0.5097
 3731TIP3   OH232827   3.704   4.308   2.921  0.3683  0.2813  0.1330
 3731TIP3    H132828   3.632   4.319   2.984 -0.9581  1.2093 -1.4580
 3731TIP3    H232829   3.753   4.232   2.953 -0.5878  0.3686  1.9405
 3732TIP3   OH232830   2.620   1.766   7.700  0.1787 -0.2054  0.7594
 3732TIP3    H132831   2.567   1.717   7.637 -0.2050  2.3279 -1.0266
 3732TIP3    H232832   2.711   1.742   7.679 -0.0222 -2.2886  1.8968
 3733TIP3   OH232833   2.987   3.596   1.275  0.3896  0.3536 -0.2600
 3733TIP3    H132834   2.895   3.573   1.290  0.3658  0.8543  0.4299
 3733TIP3    H232835   3.036   3.538   1.332  0.3245  1.9692  1.5498
 3734TIP3   OH232836   3.375   0.065   0.006 -0.1528 -0.0053  0.5110
 3734TIP3    H132837   3.432   0.054  -0.070 -1.4201  2.2022 -0.8626
 3734TIP3    H232838   3.328  -0.018   0.013  0.9744 -0.7315 -0.2250
 3735TIP3   OH232839   1.564   3.858   9.823  0.2894 -0.0085 -0.2013
 3735TIP3    H132840   1.603   3.778   9.859 -0.8882 -0.4841  0.0897
 3735TIP3    H232841   1.608   3.872   9.740 -0.6604 -1.9782 -1.1101
 3736TIP3   OH232842   0.176   4.115   1.491  0.2050  0.3071 -0.3152
 3736TIP3    H132843   0.155   4.208   1.503  0.1044  0.0859  1.6403
 3736TIP3    H232844   0.125   4.071   1.559  1.7978 -0.9722  0.1026
 3737TIP3   OH232845   4.229   4.070   1.588 -0.1195  0.4374 -0.2412
 3737TIP3    H132846   4.219   4.120   1.508  0.2812 -0.1552 -0.6689
 3737TIP3    H232847   4.165   3.998   1.580 -0.6383  0.8221  0.3316
 3738TIP3   OH232848   2.370   4.583   2.689 -0.6605  0.2396 -0.1054
 3738TIP3    H132849   2.356   4.498   2.648 -1.6419  0.3353  0.0045
 3738TIP3    H232850   2.364   4.646   2.617  3.7615  0.0520 -0.9080
 3739TIP3   OH232851   4.207   5.901   2.222 -0.5751  0.1036  0.0468
 3739TIP3    H132852   4.161   5.980   2.194 -0.7978  0.6740  1.9105
 3739TIP3    H232853   4.223   5.914   2.315 -0.3808 -1.9465  0.3445
 3740TIP3   OH232854   5.987   6.150   0.039  0.6831  0.3180 -0.0875
 3740TIP3    H132855   6.064   6.122   0.089  0.4108  0.9687  0.7180
 3740TIP3    H232856   5.919   6.162   0.104  0.1072  0.4797 -0.7075
 3741TIP3   OH232857   5.905   0.649   1.173  0.2071  0.2391  0.7962
 3741TIP3    H132858   5.831   0.609   1.127  0.9390 -1.2408  0.8512
 3741TIP3    H232859   5.977   0.644   1.111  0.3240  1.4851  0.8213
 3742TIP3   OH232860   5.593   3.362   0.960  0.4050 -0.1457 -0.0493
 3742TIP3    H132861   5.684   3.332   0.966 -0.0168 -1.3802  0.4738
 3742TIP3    H232862   5.547   3.315   1.030 -0.7284  0.0997 -0.6013
 3743TIP3   OH232863   4.328   3.375   0.844  0.5951  0.5486  0.2723
 3743TIP3    H132864   4.370   3.433   0.907  0.0607  1.4198 -0.1550
 3743TIP3    H232865   4.276   3.315   0.897  3.0037 -1.1429  0.8758
 3744TIP3   OH232866   4.355   5.585   9.557  0.0961 -0.2012  0.1256
 3744TIP3    H132867   4.266   5.559   9.533  0.0037 -1.1543  1.4126
 3744TIP3    H232868   4.410   5.510   9.534  0.6101  0.4078 -0.7255
 3745TIP3   OH232869   3.937   3.673   1.033  0.1869 -1.1451 -0.3284
 3745TIP3    H132870   3.967   3.712   0.951 -0.4435 -1.3635 -0.6716
 3745TIP3    H232871   3.957   3.738   1.100 -0.2665 -0.5139 -0.8036
 3746TIP3   OH232872   0.869   6.290   1.047 -0.8421 -0.6419 -0.4977
 3746TIP3    H132873   0.853   6.261   0.957 -0.9791 -1.4761 -0.2067
 3746TIP3    H232874   0.843   6.216   1.101 -0.6289 -0.1916  0.2268
 3747TIP3   OH232875   4.438   5.253   0.658  0.0566 -0.5527 -0.4632
 3747TIP3    H132876   4.346   5.269   0.638  0.0603  0.3094  0.1313
 3747TIP3    H232877   4.438   5.228   0.751  0.4666 -0.0071 -0.3096
 3748TIP3   OH232878   0.374   3.168   3.135  0.2993 -0.1943  0.0954
 3748TIP3    H132879   0.308   3.100   3.127 -1.8811  1.5545  1.6649
 3748TIP3    H232880   0.342   3.224   3.207  4.0421  0.2040  1.7012
 3749TIP3   OH232881   2.414   0.713   8.926  0.5098  0.0008  0.1102
 3749TIP3    H132882   2.499   0.749   8.900  0.5153  0.6476  0.9984
 3749TIP3    H232883   2.370   0.785   8.971 -0.4796 -0.3555 -0.2560
 3750TIP3   OH232884   4.824   5.222   9.187  0.7937  0.1914 -0.2778
 3750TIP3    H132885   4.773   5.299   9.210  1.3683  0.4827  0.0452
 3750TIP3    H232886   4.761   5.162   9.148  0.3345  0.8155 -0.5172
 3751TIP3   OH232887   1.343   3.571   8.230 -0.9153 -0.6791 -0.0363
 3751TIP3    H132888   1.372   3.528   8.310  1.1199 -1.1269 -0.9294
 3751TIP3    H232889   1.393   3.653   8.228 -1.5346 -0.3059 -0.4556
 3752TIP3   OH232890   4.831   5.630   1.282 -0.0415 -0.2556  0.2890
 3752TIP3    H132891   4.856   5.722   1.293 -0.3447 -0.2392  0.8894
 3752TIP3    H232892   4.816   5.621   1.188  2.8007 -0.4354 -0.2523
 3753TIP3   OH232893   0.928   5.944   9.816  0.0382  0.3739  0.3846
 3753TIP3    H132894   1.004   5.927   9.760  0.3667  0.1385  0.8903
 3753TIP3    H232895   0.929   6.039   9.829  0.7147  0.2861  1.0286
 3754TIP3   OH232896   4.079   2.710   1.474  0.1338  0.1971  0.6389
 3754TIP3    H132897   4.019   2.735   1.404  0.3561 -1.2103 -0.0924
 3754TIP3    H232898   4.023   2.673   1.542  0.1680 -1.7604 -0.3310
 3755TIP3   OH232899   2.375   0.586   1.719 -0.1587  0.2641 -0.2253
 3755TIP3    H132900   2.339   0.659   1.770 -0.2212  0.1019 -0.0374
 3755TIP3    H232901   2.470   0.593   1.732 -0.2061 -0.1184  0.3842
 3756TIP3   OH232902   3.531   0.198   2.002 -0.2442  0.3993  0.6656
 3756TIP3    H132903   3.610   0.200   1.948  0.2589  0.0845  1.3683
 3756TIP3    H232904   3.488   0.116   1.979 -1.1897  1.2799 -0.8372
 3757TIP3   OH232905   0.952   2.201   2.668 -0.4368 -0.5885  0.5472
 3757TIP3    H132906   0.897   2.277   2.689 -0.7434 -0.9275  0.9773
 3757TIP3    H232907   1.007   2.188   2.745  0.6988  0.1245 -0.1178
 3758TIP3   OH232908   1.031   5.105   9.881  0.3655 -0.5289 -0.1545
 3758TIP3    H132909   1.114   5.152   9.887 -0.4505  0.8985  0.3480
 3758TIP3    H232910   1.039   5.052   9.802  0.4143  2.3528 -2.2306
 3759TIP3   OH232911   3.032   0.705   9.184 -0.2347 -0.0438 -0.3097
 3759TIP3    H132912   2.998   0.783   9.141  0.7007  0.2407 -0.5628
 3759TIP3    H232913   2.990   0.704   9.270  1.4304  2.0182  0.6069
 3760TIP3   OH232914   1.157   4.809   9.084  0.2581 -0.0654 -0.2266
 3760TIP3    H132915   1.189   4.854   9.162  0.0741 -0.2803 -0.0280
 3760TIP3    H232916   1.225   4.824   9.018  0.4846 -0.0121  0.0191
 3761TIP3   OH232917   4.461   5.524   0.829  0.2753  0.2038 -0.3809
 3761TIP3    H132918   4.541   5.544   0.780  0.2351  1.1461 -0.0863
 3761TIP3    H232919   4.395   5.507   0.761  1.0582 -2.1367 -0.6331
 3762TIP3   OH232920   1.362   2.713   8.563  0.2400 -0.2580  0.2182
 3762TIP3    H132921   1.412   2.787   8.598  0.8314 -1.0754  1.1534
 3762TIP3    H232922   1.299   2.753   8.504  1.5744  0.8710 -0.5104
 3763TIP3   OH232923   0.639   1.922   9.598  0.0410  0.4075  0.1841
 3763TIP3    H132924   0.715   1.925   9.540  0.7864  1.0015  1.1406
 3763TIP3    H232925   0.628   1.830   9.619  0.0699  0.2432 -0.5058
 3764TIP3   OH232926   1.743   5.464   8.514 -0.6018  0.2905 -0.4410
 3764TIP3    H132927   1.734   5.415   8.432 -1.3144 -0.9996  0.3853
 3764TIP3    H232928   1.780   5.548   8.487 -0.6992 -0.1546 -2.0709
 3765TIP3   OH232929   5.084   2.407   2.042 -0.5249 -0.0489 -0.4785
 3765TIP3    H132930   5.166   2.367   2.073 -0.5711 -0.2848 -0.6624
 3765TIP3    H232931   5.085   2.495   2.079 -0.4624 -0.2492 -0.0002
 3766TIP3   OH232932   0.532   5.055   9.703 -0.1798  0.4322  0.0975
 3766TIP3    H132933   0.526   5.130   9.644  2.1558 -1.5563 -2.9505
 3766TIP3    H232934   0.625   5.049   9.725 -0.7914  0.2982  3.0593
 3767TIP3   OH232935   4.291   3.245   0.447  0.5269  0.4706  0.4987
 3767TIP3    H132936   4.372   3.226   0.400  0.3739 -1.0748  0.8002
 3767TIP3    H232937   4.241   3.301   0.388  0.0749 -1.8918 -1.5185
 3768TIP3   OH232938   0.142   2.558   8.744  0.0679  0.1768 -0.1069
 3768TIP3    H132939   0.217   2.577   8.800 -0.3688 -1.0363  0.9494
 3768TIP3    H232940   0.088   2.637   8.749  0.2380  0.2488  0.8757
 3769TIP3   OH232941   0.348   6.377   1.343  0.3206  0.0280  0.1880
 3769TIP3    H132942   0.396   6.448   1.299 -1.8438 -0.1613 -2.7740
 3769TIP3    H232943   0.310   6.418   1.421  0.6410  1.6347 -0.4549
 3770TIP3   OH232944   2.297   3.543   9.831  0.1861 -0.4675 -0.0684
 3770TIP3    H132945   2.213   3.536   9.877 -0.0090  0.2187 -0.3004
 3770TIP3    H232946   2.295   3.473   9.766 -1.1554  0.8578 -1.5400
 3771TIP3   OH232947   4.489   0.801   7.535 -0.1354 -0.4527 -0.2360
 3771TIP3    H132948   4.451   0.846   7.611  2.9132  0.0423  1.1594
 3771TIP3    H232949   4.434   0.827   7.461 -2.2629  0.3650  1.5279
 3772TIP3   OH232950   3.386   1.554   8.618 -0.1624  0.0042  0.2079
 3772TIP3    H132951   3.325   1.509   8.676 -1.1045  1.5474  0.4717
 3772TIP3    H232952   3.387   1.644   8.650  0.8007  0.4357 -0.9772
 3773TIP3   OH232953   1.970   1.623   1.794 -0.0372  0.1204  0.1025
 3773TIP3    H132954   2.040   1.633   1.858 -0.1120 -0.4500  0.2758
 3773TIP3    H232955   1.907   1.692   1.815  0.0936  0.1340  0.4434
 3774TIP3   OH232956   2.896   5.383   9.371  0.4682  0.6467 -0.1710
 3774TIP3    H132957   2.849   5.466   9.373  3.3732  2.4272  1.2816
 3774TIP3    H232958   2.983   5.404   9.404  2.0870 -2.5651 -1.9323
 3775TIP3   OH232959   5.367   2.954   2.382  0.2102 -0.0700  0.1259
 3775TIP3    H132960   5.415   2.875   2.404 -1.8841 -1.5701 -0.3764
 3775TIP3    H232961   5.329   2.936   2.296 -0.4765  1.4005  0.0929
 3776TIP3   OH232962   2.534   5.518   2.173  0.4551  0.2952 -0.2979
 3776TIP3    H132963   2.441   5.496   2.167  0.0871  0.6508  2.7445
 3776TIP3    H232964   2.579   5.435   2.156 -0.5215 -0.4412  0.5859
 3777TIP3   OH232965   1.354   3.159   0.269  0.3245 -0.0405  0.0645
 3777TIP3    H132966   1.353   3.254   0.282 -0.2120  0.1144 -0.9690
 3777TIP3    H232967   1.443   3.132   0.293  0.6097  0.7860 -0.0293
 3778TIP3   OH232968   0.180   0.718   1.941 -0.3568 -0.4390 -0.1140
 3778TIP3    H132969   0.191   0.813   1.937  2.9162 -0.6990 -0.0310
 3778TIP3    H232970   0.142   0.695   1.857  3.8264  0.5740 -2.5746
 3779TIP3   OH232971   0.073   4.432   2.370  0.7835 -0.0417  0.2247
 3779TIP3    H132972   0.166   4.435   2.345  0.7264  0.1891  0.0365
 3779TIP3    H232973   0.030   4.393   2.294  0.4293  1.8425 -0.6058
 3780TIP3   OH232974   3.562   4.040   9.531  0.4321 -0.0625  0.0306
 3780TIP3    H132975   3.508   4.054   9.454  1.0872 -3.3049 -1.1729
 3780TIP3    H232976   3.500   4.011   9.599  0.1067  0.9699  0.1968
 3781TIP3   OH232977   1.579   5.467   1.713 -0.2190  0.2594  0.1285
 3781TIP3    H132978   1.592   5.383   1.756 -1.5990 -0.9586 -1.7211
 3781TIP3    H232979   1.636   5.465   1.637 -0.3340  0.9460  0.0155
 3782TIP3   OH232980   2.838   1.979   9.662  0.2478 -0.4889  0.6317
 3782TIP3    H132981   2.861   1.933   9.742  0.7459 -0.9082  0.2476
 3782TIP3    H232982   2.884   2.063   9.668  1.8707 -1.3025 -0.1105
 3783TIP3   OH232983   2.525   4.271   7.854  0.4791 -0.0121  0.3433
 3783TIP3    H132984   2.465   4.223   7.797  1.2149 -0.4632 -0.0619
 3783TIP3    H232985   2.603   4.216   7.859  0.8916  0.6020  0.8061
 3784TIP3   OH232986   4.897   4.586   8.193 -0.1440 -0.4845  0.3719
 3784TIP3    H132987   4.953   4.508   8.196 -0.9352 -1.1158 -0.4369
 3784TIP3    H232988   4.920   4.628   8.110 -2.3679 -1.9797 -1.1238
 3785TIP3   OH232989   2.758   2.190   1.867 -0.6008  0.0173 -0.5992
 3785TIP3    H132990   2.745   2.119   1.804  0.5461 -0.6376 -0.1362
 3785TIP3    H232991   2.678   2.193   1.918 -0.2897 -1.6278  0.0333
 3786TIP3   OH232992   6.052   2.695   2.545  0.2836  0.5764  0.4098
 3786TIP3    H132993   6.117   2.756   2.511 -0.7151  0.9491 -0.8885
 3786TIP3    H232994   5.969   2.742   2.540 -0.7990 -1.3229 -2.1625
 3787TIP3   OH232995   3.345   3.703   2.681 -0.3783  0.3340  0.0857
 3787TIP3    H132996   3.427   3.674   2.720 -2.1427 -0.9300  3.2699
 3787TIP3    H232997   3.368   3.781   2.631  2.6251  0.4364  1.4143
 3788TIP3   OH232998   6.266   0.148   0.019  0.0413 -0.6176  0.2821
 3788TIP3    H132999   6.333   0.199   0.063 -0.3389 -0.5158  0.7551
 3788TIP3    H233000   6.184   0.194   0.039 -0.3430 -1.5617  0.9826
 3789TIP3   OH233001   4.834   5.914   2.833  0.2754 -0.6272 -0.3129
 3789TIP3    H133002   4.879   5.858   2.897  0.8479 -2.5174 -2.2763
 3789TIP3    H233003   4.771   5.856   2.791 -0.7935  0.8437 -0.8181
 3790TIP3   OH233004   0.049   0.862   1.353  0.3405 -0.0708  0.1566
 3790TIP3    H133005   0.020   0.781   1.310  0.5831 -0.0920  0.0299
 3790TIP3    H233006   0.124   0.836   1.405 -0.3281 -0.1671  1.0999
 3791TIP3   OH233007   3.331   4.395   1.997 -0.2837 -0.0467 -0.0062
 3791TIP3    H133008   3.417   4.389   1.956  0.3481 -1.1756  1.3995
 3791TIP3    H233009   3.325   4.486   2.026  0.8714 -0.1933  0.7545
 3792TIP3   OH233010   1.906   5.701   1.547  0.0506  0.6567 -0.0689
 3792TIP3    H133011   1.859   5.785   1.542 -0.9503  0.0358 -3.0568
 3792TIP3    H233012   1.943   5.690   1.460  0.4463 -1.8702  0.3595
 3793TIP3   OH233013   1.839   3.778   9.288 -0.0528  0.1349  0.4481
 3793TIP3    H133014   1.806   3.849   9.233  0.5814  1.5740  1.8473
 3793TIP3    H233015   1.761   3.728   9.311 -0.8267  1.5284  1.0038
 3794TIP3   OH233016   5.094   6.177   9.691  0.5348  0.3905  0.3771
 3794TIP3    H133017   5.008   6.218   9.697  0.6028  0.7383 -0.7748
 3794TIP3    H233018   5.151   6.235   9.742 -0.0627 -0.4009  2.0451
 3795TIP3   OH233019   3.067   3.666   2.514  0.1918  0.2727 -0.2474
 3795TIP3    H133020   2.990   3.685   2.568  0.5956 -1.1634  0.8854
 3795TIP3    H233021   3.140   3.665   2.576  0.9879  0.6277 -1.1570
 3796TIP3   OH233022   4.240   0.365   0.693 -0.2125 -0.1152  0.4448
 3796TIP3    H133023   4.168   0.357   0.756  1.0572 -1.3040  1.8491
 3796TIP3    H233024   4.307   0.305   0.727  1.2766  0.6522 -1.0229
 3797TIP3   OH233025   1.885   2.287   9.447 -0.5168 -0.2456 -0.0376
 3797TIP3    H133026   1.905   2.246   9.363  1.3967  1.4694 -0.5010
 3797TIP3    H233027   1.894   2.216   9.512 -1.1488 -1.3810 -1.1457
 3798TIP3   OH233028   2.783   4.441   2.856 -0.1601  0.3084 -0.5156
 3798TIP3    H133029   2.766   4.506   2.788 -3.9527 -0.2579 -0.3274
 3798TIP3    H233030   2.810   4.493   2.932 -0.2147  1.3753 -1.1987
 3799TIP3   OH233031   1.606   5.084   3.383 -0.4443  0.1629 -0.2140
 3799TIP3    H133032   1.556   5.032   3.446  0.1493  1.1399  1.1081
 3799TIP3    H233033   1.697   5.074   3.410 -0.1280  0.2291 -1.2168
 3800TIP3   OH233034   5.828   3.978   1.401 -0.6177  0.5160 -0.1769
 3800TIP3    H133035   5.764   4.009   1.465  0.8574 -0.4935  1.8874
 3800TIP3    H233036   5.870   4.058   1.369 -1.6283  1.0538 -0.2267
 3801TIP3   OH233037   1.301   5.399   0.861  0.2279 -0.0353  0.5880
 3801TIP3    H133038   1.216   5.442   0.868 -0.0661  0.0671 -2.3576
 3801TIP3    H233039   1.289   5.316   0.908 -1.2994  0.2219  0.7175
 3802TIP3   OH233040   0.531   3.462   9.926  0.0912  0.1849 -0.0589
 3802TIP3    H133041   0.606   3.457   9.867 -0.5479  0.8929 -0.9637
 3802TIP3    H233042   0.476   3.389   9.901 -0.8304  1.2693 -1.2930
 3803TIP3   OH233043   2.234   6.377   1.023  0.8776  0.0223  0.3898
 3803TIP3    H133044   2.231   6.472   1.038  0.3782  0.0684  0.0393
 3803TIP3    H233045   2.155   6.343   1.066  1.5540 -0.3650  1.3428
 3804TIP3   OH233046   4.018   4.594   0.637 -0.3095 -0.6135  0.1278
 3804TIP3    H133047   3.924   4.610   0.648 -0.2541 -0.4032  0.2899
 3804TIP3    H233048   4.031   4.505   0.670 -0.5858 -0.9412 -0.6150
 3805TIP3   OH233049   3.909   3.768   1.794  0.0630  0.1296  0.2037
 3805TIP3    H133050   3.824   3.744   1.757  0.2133 -0.4939  0.2529
 3805TIP3    H233051   3.891   3.847   1.845 -0.5700 -0.2334  0.5506
 3806TIP3   OH233052   0.245   4.301   0.676  0.5860 -0.1284  0.7737
 3806TIP3    H133053   0.338   4.291   0.657  0.5827  0.0235  0.6745
 3806TIP3    H233054   0.205   4.221   0.642  0.1073  1.5294 -2.9964
 3807TIP3   OH233055   4.505   3.438   3.396  0.6043  0.0059  0.0890
 3807TIP3    H133056   4.446   3.441   3.471  1.5469  0.4992  0.8397
 3807TIP3    H233057   4.467   3.372   3.338 -0.4851  0.0696  0.7008
 3808TIP3   OH233058   1.798   5.307   2.021 -0.2638  0.3331 -0.0640
 3808TIP3    H133059   1.760   5.262   1.946 -1.4371 -1.2379  1.3874
 3808TIP3    H233060   1.822   5.237   2.082  1.6203  1.4900  0.6318
 3809TIP3   OH233061   3.949   3.306   1.688  0.6924 -0.1990 -0.7552
 3809TIP3    H133062   3.998   3.285   1.609 -0.8100  1.3063 -2.1568
 3809TIP3    H233063   3.920   3.222   1.722  2.6644 -0.9761 -0.8873
 3810TIP3   OH233064   1.115   5.564   1.027 -0.0476 -0.5197  0.0579
 3810TIP3    H133065   1.055   5.541   0.956  0.3858 -1.7709  0.0647
 3810TIP3    H233066   1.089   5.509   1.100 -0.9686  1.2954  1.1669
 3811TIP3   OH233067   2.174   2.958   9.273  0.0847 -0.2703 -0.0867
 3811TIP3    H133068   2.093   2.945   9.224  0.6289 -1.1945 -0.7691
 3811TIP3    H233069   2.155   2.924   9.360 -0.6234  0.6193  0.1247
 3812TIP3   OH233070   0.605   3.856   9.836  0.0878  0.3806  0.2543
 3812TIP3    H133071   0.675   3.811   9.883 -0.8085  0.3324  1.5777
 3812TIP3    H233072   0.652   3.909   9.771  1.2089 -1.6832 -0.7313
 3813TIP3   OH233073   5.144   0.193   7.946 -0.1404 -0.3107 -0.0499
 3813TIP3    H133074   5.061   0.197   7.899 -0.7552  1.8566  1.0646
 3813TIP3    H233075   5.192   0.270   7.916  0.5735 -0.3749  0.8715
 3814TIP3   OH233076   1.322   3.408   0.363 -0.2655  0.1096  0.8582
 3814TIP3    H133077   1.253   3.473   0.357  0.8834  1.6301  2.8629
 3814TIP3    H233078   1.340   3.399   0.457  0.1574 -2.5646  0.6244
 3815TIP3   OH233079   5.282   2.804   1.129  0.2238  0.2127 -0.2681
 3815TIP3    H133080   5.250   2.882   1.174  1.9743  1.0327 -0.3648
 3815TIP3    H233081   5.214   2.786   1.063 -0.5192  1.2754  0.1691
 3816TIP3   OH233082   1.823   3.713   2.416 -0.6608 -0.6772  0.0711
 3816TIP3    H133083   1.771   3.652   2.468 -1.5011 -0.2562 -0.2384
 3816TIP3    H233084   1.768   3.791   2.409  1.5460  1.3286  2.9329
 3817TIP3   OH233085   0.459   5.857   8.335  0.2060  0.1756  0.6024
 3817TIP3    H133086   0.415   5.940   8.318  1.1988  0.6927  0.4731
 3817TIP3    H233087   0.472   5.819   8.248 -0.2256 -0.1148  0.6590
 3818TIP3   OH233088   0.548   5.253   9.525 -0.5407  0.1153 -0.0052
 3818TIP3    H133089   0.549   5.346   9.547  2.6794  0.2674 -0.2054
 3818TIP3    H233090   0.573   5.251   9.433  1.9170 -0.9013  0.5863
 3819TIP3   OH233091   4.823   1.546   1.780  0.2657  0.0037 -0.0150
 3819TIP3    H133092   4.901   1.495   1.800  0.3741  0.3659  0.5095
 3819TIP3    H233093   4.829   1.623   1.837  0.8623  1.3588 -1.8058
 3820TIP3   OH233094   2.270   0.396   8.607 -0.0098 -0.2200  0.3445
 3820TIP3    H133095   2.210   0.470   8.601 -1.3640 -1.0116  2.7807
 3820TIP3    H233096   2.216   0.319   8.588  0.6654 -0.8066  0.7451
 3821TIP3   OH233097   1.243   1.339   1.443  0.1623 -0.3212  0.1006
 3821TIP3    H133098   1.223   1.247   1.425  0.3425  0.1125 -2.7291
 3821TIP3    H233099   1.338   1.342   1.450  0.1448 -0.3535  0.3881
 3822TIP3   OH233100   0.527   2.424   0.303 -0.1377 -0.5575  0.2579
 3822TIP3    H133101   0.515   2.442   0.210 -0.1282 -0.7851  0.2114
 3822TIP3    H233102   0.621   2.432   0.318 -0.1363 -0.5469  0.2435
 3823TIP3   OH233103   4.339   2.532   2.317 -0.5667 -0.2156 -0.1760
 3823TIP3    H133104   4.322   2.548   2.224 -1.1306 -0.9173 -0.2053
 3823TIP3    H233105   4.363   2.618   2.352 -0.1352  0.0142 -1.0095
 3824TIP3   OH233106   3.108   1.705   1.729  0.2884  0.1136  0.5011
 3824TIP3    H133107   3.149   1.773   1.675 -1.0867  2.4734  2.2344
 3824TIP3    H233108   3.179   1.643   1.747  1.4072  0.5714 -1.8359
 3825TIP3   OH233109   5.064   5.459   8.176  0.3569 -0.2096  0.3295
 3825TIP3    H133110   5.155   5.428   8.172  0.0869 -0.9656 -0.3122
 3825TIP3    H233111   5.068   5.549   8.142  1.0010  0.1006  1.2006
 3826TIP3   OH233112   4.980   0.552   1.098 -0.1940  0.5338 -0.2875
 3826TIP3    H133113   4.928   0.551   1.178 -0.8179  1.0665 -0.6791
 3826TIP3    H233114   5.056   0.606   1.120 -0.1350  0.3063  0.0816
 3827TIP3   OH233115   4.154   2.746   9.057 -0.5406  0.7069  0.0204
 3827TIP3    H133116   4.182   2.753   9.148 -0.4398  0.7209 -0.0114
 3827TIP3    H233117   4.064   2.778   9.057 -2.1380 -3.1309  0.9140
 3828TIP3   OH233118   5.984   3.586   8.983 -0.1371 -0.0928  0.0951
 3828TIP3    H133119   5.941   3.656   9.031  2.4703  0.6330  1.5787
 3828TIP3    H233120   6.042   3.632   8.921  1.0369 -0.9102  0.5532
 3829TIP3   OH233121   4.587   1.904   2.065 -0.3675 -0.4760 -0.0461
 3829TIP3    H133122   4.569   1.855   1.985  0.8264  2.0874 -2.0110
 3829TIP3    H233123   4.570   1.995   2.042  2.2830  0.6244  1.8848
 3830TIP3   OH233124   3.236   4.680   1.773  0.1308  0.3032 -0.2221
 3830TIP3    H133125   3.157   4.628   1.755 -0.5932  0.2376  2.6993
 3830TIP3    H233126   3.296   4.656   1.702 -2.2902  0.0832 -2.3450
 3831TIP3   OH233127   2.129   2.912   1.852 -0.1359 -0.3308 -0.6435
 3831TIP3    H133128   2.143   3.005   1.832  0.5271 -0.0587  0.9051
 3831TIP3    H233129   2.172   2.866   1.780  1.5819  0.5711 -0.2707
 3832TIP3   OH233130   5.674   5.083   1.916  0.1625  0.6737  0.4025
 3832TIP3    H133131   5.760   5.066   1.954 -0.0897  2.1016  1.6890
 3832TIP3    H233132   5.629   4.999   1.919  1.0951  0.1778  0.8029
 3833TIP3   OH233133   4.898   3.815   9.074  0.0721  0.1740 -0.2969
 3833TIP3    H133134   4.940   3.731   9.092  0.7054  0.4522 -0.4588
 3833TIP3    H233135   4.823   3.793   9.019 -0.1393 -0.3546  0.1939
 3834TIP3   OH233136   0.426   3.074   0.958  0.0027  0.0113  0.0401
 3834TIP3    H133137   0.492   3.029   1.010  0.5048  0.7230  0.0456
 3834TIP3    H233138   0.426   3.164   0.993 -0.2644  0.2708 -0.6100
 3835TIP3   OH233139   3.757   3.160   0.606  0.3920  0.4069 -0.0111
 3835TIP3    H133140   3.677   3.128   0.564  1.3154 -0.5457 -1.1249
 3835TIP3    H233141   3.810   3.194   0.534  0.1032  3.1943  0.9511
 3836TIP3   OH233142   0.498   0.007   7.808  0.3039  0.2297 -0.1928
 3836TIP3    H133143   0.433   0.061   7.853  1.2895  1.1479  0.1969
 3836TIP3    H233144   0.447  -0.056   7.757 -0.9267  1.8203 -1.0397
 3837TIP3   OH233145   1.714   2.409   7.878  0.4752  0.0278  0.1262
 3837TIP3    H133146   1.707   2.315   7.891  0.7413 -0.2342 -1.4347
 3837TIP3    H233147   1.768   2.419   7.800  1.5412  1.5175  0.9962
 3838TIP3   OH233148   3.911   3.645   0.201 -0.3642  0.0857 -0.6904
 3838TIP3    H133149   3.821   3.657   0.231 -0.4489 -1.5455 -0.1936
 3838TIP3    H233150   3.964   3.694   0.264 -0.7876 -0.5878  0.2133
 3839TIP3   OH233151   3.785   5.595   9.067 -0.2968 -0.7537 -0.1309
 3839TIP3    H133152   3.863   5.550   9.033 -0.3555 -0.9403 -0.0162
 3839TIP3    H233153   3.733   5.614   8.989  0.0919 -0.1904 -0.2631
 3840TIP3   OH233154   6.131   4.819   0.739  0.0706  0.2610 -0.1756
 3840TIP3    H133155   6.190   4.803   0.666  0.6340 -1.1213  0.5484
 3840TIP3    H233156   6.110   4.912   0.732  0.2658  0.2164 -1.9617
 3841TIP3   OH233157   5.129   4.672   0.508  0.2772 -0.0568  0.3135
 3841TIP3    H133158   5.117   4.722   0.428 -0.9257 -0.3742  0.2654
 3841TIP3    H233159   5.053   4.613   0.511  0.9050 -0.8669  1.0931
 3842TIP3   OH233160   5.423   0.065   9.046 -0.0109  0.0421 -0.9546
 3842TIP3    H133161   5.403   0.125   9.118  1.0076 -1.6716  0.8844
 3842TIP3    H233162   5.360  -0.006   9.056  0.9688 -0.8458 -0.9247
 3843TIP3   OH233163   0.993   2.732   9.042 -0.4850 -0.0014 -0.0436
 3843TIP3    H133164   0.945   2.768   9.117  0.4467  0.0964  0.5098
 3843TIP3    H233165   0.938   2.659   9.013  0.1298 -1.3743  2.0343
 3844TIP3   OH233166   1.873   1.338   0.121 -0.4544 -0.5528  0.2515
 3844TIP3    H133167   1.902   1.413   0.174 -0.7926 -0.7257  0.6836
 3844TIP3    H233168   1.954   1.298   0.090 -0.2736  0.3607 -0.5131
 3845TIP3   OH233169   5.625   3.822   2.442 -0.4937  0.1676  0.0796
 3845TIP3    H133170   5.665   3.909   2.450 -0.9687  0.6479 -2.0725
 3845TIP3    H233171   5.598   3.817   2.351 -0.6210 -2.2119  0.1923
 3846TIP3   OH233172   5.711   1.771   0.087  0.3760  0.2440 -0.1354
 3846TIP3    H133173   5.739   1.714   0.015  1.9546 -0.2219  0.7993
 3846TIP3    H233174   5.619   1.748   0.101  0.5822 -1.0544 -0.7182
 3847TIP3   OH233175   2.965   0.157   1.693 -0.6269  0.0431  0.2316
 3847TIP3    H133176   2.933   0.224   1.754 -2.3278  0.7575 -1.3635
 3847TIP3    H233177   3.060   0.172   1.688 -0.6888  1.0070  1.4360
 3848TIP3   OH233178   3.687   5.824   1.502  0.4230 -0.4690 -0.0654
 3848TIP3    H133179   3.734   5.858   1.426 -1.3705 -0.5990 -1.2860
 3848TIP3    H233180   3.753   5.822   1.572  1.9746  0.1853 -1.4457
 3849TIP3   OH233181   3.480   3.099   3.889  0.2227  0.4580 -0.0355
 3849TIP3    H133182   3.436   3.166   3.941  0.7246  0.5141  0.3217
 3849TIP3    H233183   3.409   3.050   3.848 -0.1819  2.4065 -1.8725
 3850TIP3   OH233184   2.191   1.830   8.820  0.0901 -0.3007  0.6292
 3850TIP3    H133185   2.226   1.877   8.895 -0.0146 -0.2811  0.6657
 3850TIP3    H233186   2.251   1.757   8.807  1.4306  0.9701 -0.6816
 3851TIP3   OH233187   1.890   3.856   8.919 -0.0422 -0.2077 -0.2122
 3851TIP3    H133188   1.968   3.885   8.967 -0.6132 -0.0690  0.6552
 3851TIP3    H233189   1.822   3.917   8.945 -0.4902 -0.4218 -0.8487
 3852TIP3   OH233190   3.394   2.639   9.585  0.6466 -0.1608  0.7151
 3852TIP3    H133191   3.384   2.677   9.498  1.9571 -0.6019  0.3389
 3852TIP3    H233192   3.316   2.585   9.597  1.3974 -1.7505 -1.0752
 3853TIP3   OH233193   4.081   0.955   2.457  0.1817 -0.3307 -0.2522
 3853TIP3    H133194   4.137   0.897   2.508 -3.1706 -1.1683  2.9362
 3853TIP3    H233195   4.062   1.029   2.515 -2.6303 -0.5659 -0.6990
 3854TIP3   OH233196   2.449   5.230   2.747  0.6153 -0.3830 -0.3074
 3854TIP3    H133197   2.503   5.184   2.683 -0.1617  0.6639 -1.7894
 3854TIP3    H233198   2.497   5.223   2.829  2.6072 -0.1648 -1.3968
 3855TIP3   OH233199   3.878   4.076   1.041 -0.0176 -0.2807  0.2608
 3855TIP3    H133200   3.972   4.077   1.059 -0.5445 -0.2042  3.9132
 3855TIP3    H233201   3.871   4.080   0.946  3.6570 -1.3298 -0.1993
 3856TIP3   OH233202   0.507   4.618   1.273  0.2803  0.9145  0.0403
 3856TIP3    H133203   0.559   4.540   1.253  1.1541  0.9440  2.0276
 3856TIP3    H233204   0.478   4.606   1.363 -1.1915  2.0281 -0.2442
 3857TIP3   OH233205   1.474   3.988   8.710 -0.3621  0.1795  0.4933
 3857TIP3    H133206   1.545   3.965   8.649  1.0936 -1.2674  2.5660
 3857TIP3    H233207   1.481   4.083   8.720 -0.6520  0.4642 -1.5341
 3858TIP3   OH233208   0.325   4.685   8.982 -0.1162  0.6083  0.5065
 3858TIP3    H133209   0.270   4.704   9.058  0.6192  0.1444  1.1733
 3858TIP3    H233210   0.318   4.763   8.927 -3.0500 -0.2176 -0.4484
 3859TIP3   OH233211   3.408   0.336   8.858 -0.0344  0.3186  0.1668
 3859TIP3    H133212   3.468   0.264   8.876 -2.7122 -1.8157  1.3519
 3859TIP3    H233213   3.401   0.382   8.942  0.0269  0.6110  0.0102
 3860TIP3   OH233214   2.890   2.325   1.227  0.3895  0.2246  0.1740
 3860TIP3    H133215   2.875   2.320   1.321 -2.5470  0.6191 -0.1499
 3860TIP3    H233216   2.891   2.418   1.207 -1.0473  0.1645 -0.3584
 3861TIP3   OH233217   1.540   1.763   2.550 -0.2012  0.3620  0.2537
 3861TIP3    H133218   1.568   1.695   2.612  0.5660 -0.7615 -1.2456
 3861TIP3    H233219   1.548   1.722   2.464 -0.3382  2.1586 -0.6737
 3862TIP3   OH233220   5.015   4.836   3.205 -0.3138  0.2861 -0.6627
 3862TIP3    H133221   4.955   4.813   3.275 -0.2123 -0.5444 -0.8462
 3862TIP3    H233222   5.077   4.763   3.200 -0.6215  0.0829 -1.9561
 3863TIP3   OH233223   4.284   0.454   0.012  0.8067  0.0145 -0.7953
 3863TIP3    H133224   4.312   0.364  -0.004 -1.6535 -1.7943  3.4569
 3863TIP3    H233225   4.189   0.451   0.001  0.3689  1.3418  1.8733
 3864TIP3   OH233226   1.999   4.780   9.441 -0.0492  0.0178 -0.2025
 3864TIP3    H133227   2.004   4.845   9.370  0.0830 -1.1673 -1.3166
 3864TIP3    H233228   1.969   4.700   9.397  1.1876 -1.0599  0.8759
 3865TIP3   OH233229   2.728   1.224   0.354 -0.0548 -0.2555  0.3267
 3865TIP3    H133230   2.707   1.154   0.416 -1.6463  0.3878  0.5776
 3865TIP3    H233231   2.650   1.232   0.300  0.1772  1.1544  0.1577
 3866TIP3   OH233232   5.113   0.711   8.850  0.1516 -0.1599  0.1959
 3866TIP3    H133233   5.130   0.622   8.819 -0.9476 -0.4116  0.2648
 3866TIP3    H233234   5.022   0.708   8.882  0.3141  0.8203  0.7916
 3867TIP3   OH233235   0.821   2.930   0.927  0.2572 -0.3365  0.2755
 3867TIP3    H133236   0.737   2.927   0.881 -0.7159  0.7475  1.8973
 3867TIP3    H233237   0.881   2.883   0.869 -1.6613 -2.0105 -0.4726
 3868TIP3   OH233238   1.549   3.119   3.465 -0.2563 -0.5567  0.2073
 3868TIP3    H133239   1.521   3.063   3.393  1.7000 -0.3452 -0.7708
 3868TIP3    H233240   1.579   3.200   3.423 -0.8646  0.3439  1.4236
 3869TIP3   OH233241   0.403   2.816   1.501 -0.2414 -0.4690  0.3485
 3869TIP3    H133242   0.464   2.879   1.540  0.5707 -0.2459 -1.1984
 3869TIP3    H233243   0.454   2.736   1.492  0.2185  0.0170 -1.9242
 3870TIP3   OH233244   2.752   3.901   1.388 -0.2582  0.2482  0.1599
 3870TIP3    H133245   2.756   3.921   1.481  0.9141  0.0917  0.1602
 3870TIP3    H233246   2.801   3.971   1.345 -1.0637  0.4973 -0.3821
 3871TIP3   OH233247   0.987   6.301   1.633  0.1070  0.0330  0.2227
 3871TIP3    H133248   1.027   6.273   1.551 -0.4442  1.2165 -0.4815
 3871TIP3    H233249   0.916   6.240   1.649  0.4911 -0.4594  0.0534
 3872TIP3   OH233250   3.658   2.233   0.725  0.1812  0.2277  0.3349
 3872TIP3    H133251   3.753   2.242   0.732  0.0522  0.4468  2.2836
 3872TIP3    H233252   3.646   2.175   0.650  1.8390  0.3714 -0.0901
 3873TIP3   OH233253   0.035   4.766   1.029  0.2462 -0.2003 -0.2067
 3873TIP3    H133254   0.080   4.758   1.113 -0.4716 -0.9070  0.1206
 3873TIP3    H233255   0.105   4.757   0.964  0.7060 -0.3450  0.3017
 3874TIP3   OH233256   3.410   4.978   0.196  0.4163 -0.6019 -0.4658
 3874TIP3    H133257   3.327   4.976   0.149  0.2971 -0.0085 -0.2856
 3874TIP3    H233258   3.423   4.888   0.226 -0.7203 -0.4752  0.4659
 3875TIP3   OH233259   3.234   2.959   8.659  0.5843 -0.3512 -0.0603
 3875TIP3    H133260   3.246   2.939   8.566  1.1146 -1.0780  0.1545
 3875TIP3    H233261   3.240   3.054   8.664  1.8798 -0.3781 -0.6048
 3876TIP3   OH233262   2.269   5.694   2.006 -0.1485 -0.0828  0.0223
 3876TIP3    H133263   2.249   5.764   1.944 -1.7891 -0.3568  0.1829
 3876TIP3    H233264   2.294   5.740   2.086  1.0354  0.2766 -0.5280
 3877TIP3   OH233265   3.823   2.908   2.737  0.4711 -1.2403 -0.1986
 3877TIP3    H133266   3.775   2.962   2.801  0.8457  0.9061 -1.6398
 3877TIP3    H233267   3.757   2.881   2.674  0.4070 -1.9743  0.1674
 3878TIP3   OH233268   2.918   3.039   2.924  0.0655 -0.7334  0.4179
 3878TIP3    H133269   2.910   3.075   3.013 -0.4656 -0.6955  0.3609
 3878TIP3    H233270   2.869   2.957   2.928 -0.9246 -0.1933 -0.1254
 3879TIP3   OH233271   5.695   5.640   1.619 -0.5138  0.2137 -0.1213
 3879TIP3    H133272   5.744   5.562   1.596 -0.0629 -0.0587  1.6898
 3879TIP3    H233273   5.742   5.679   1.692 -2.0445  0.8816  0.5626
 3880TIP3   OH233274   0.037   4.442   0.775 -0.3247  0.3943  0.5627
 3880TIP3    H133275   0.112   4.391   0.746 -0.7751  0.1793 -0.2706
 3880TIP3    H233276   0.045   4.525   0.727 -1.7334 -0.4187 -1.1989
 3881TIP3   OH233277   5.338   1.045   9.483 -0.1487 -0.2748 -0.7073
 3881TIP3    H133278   5.291   1.030   9.565  0.0831  0.0783 -0.5061
 3881TIP3    H233279   5.270   1.050   9.416 -0.5136  1.4538 -0.2569
 3882TIP3   OH233280   0.171   2.742   1.215 -0.0549 -0.4199 -0.2555
 3882TIP3    H133281   0.133   2.655   1.224  2.0383 -1.3381  0.1727
 3882TIP3    H233282   0.187   2.771   1.304 -1.1224  0.6304 -0.3735
 3883TIP3   OH233283   2.366   5.879   9.296  0.0548  0.2026  0.5697
 3883TIP3    H133284   2.353   5.858   9.388  1.7850 -0.4313  0.7042
 3883TIP3    H233285   2.451   5.924   9.293 -1.0300  2.3307 -0.4239
 3884TIP3   OH233286   2.290   3.600   2.471 -0.1913  0.1968 -0.1972
 3884TIP3    H133287   2.332   3.514   2.463  0.8119  0.7919 -1.6292
 3884TIP3    H233288   2.235   3.607   2.393 -0.7085  0.6444  0.1982
 3885TIP3   OH233289   5.036   2.947   0.913 -0.3064  0.5583 -0.0907
 3885TIP3    H133290   5.119   2.946   0.865 -0.7468  0.4403 -0.8567
 3885TIP3    H233291   4.995   3.030   0.890  0.1585  1.2134  1.2962
 3886TIP3   OH233292   4.076   0.374   1.390 -0.0240  0.5137 -0.7102
 3886TIP3    H133293   4.102   0.307   1.327  1.1611  1.0019 -0.7731
 3886TIP3    H233294   4.149   0.378   1.452 -2.1555 -1.6983  2.2424
 3887TIP3   OH233295   0.679   4.029   2.963  0.5734 -0.3166  0.1560
 3887TIP3    H133296   0.680   3.942   3.004  1.3350 -0.4301 -0.0949
 3887TIP3    H233297   0.707   4.088   3.033  2.8526 -0.6276 -0.4188
 3888TIP3   OH233298   1.258   3.085   8.541  0.1036 -0.4054 -0.1950
 3888TIP3    H133299   1.330   3.046   8.491  0.0573  0.8921 -1.3159
 3888TIP3    H233300   1.301   3.124   8.617  0.7054  0.9359 -1.1924
 3889TIP3   OH233301   3.878   1.046   0.633 -0.5289 -0.4854 -0.4040
 3889TIP3    H133302   3.822   1.031   0.709  0.0120  0.6256  0.2311
 3889TIP3    H233303   3.966   1.028   0.664 -0.2616  0.3725 -0.6462
 3890TIP3   OH233304   2.389   4.410   9.844 -0.3972  0.4049 -0.1027
 3890TIP3    H133305   2.432   4.355   9.778 -1.9248 -0.1278 -0.7070
 3890TIP3    H233306   2.296   4.390   9.835 -0.7066  0.6878  1.8968
 3891TIP3   OH233307   4.289   4.688   1.009  0.0442 -0.1535  0.4957
 3891TIP3    H133308   4.299   4.772   0.964  0.9952  0.9000  2.5505
 3891TIP3    H233309   4.349   4.629   0.963  1.3649  1.0090  0.6508
 3892TIP3   OH233310   5.269   2.773   9.923 -0.0266  0.5004  0.0953
 3892TIP3    H133311   5.189   2.767   9.870 -0.0098 -1.0731  0.2072
 3892TIP3    H233312   5.246   2.831   9.995 -0.5002  1.5126 -0.8531
 3893TIP3   OH233313   1.176   0.028   0.773  0.3651  0.4257  0.3604
 3893TIP3    H133314   1.115   0.064   0.708  3.0899  1.2215 -1.9253
 3893TIP3    H233315   1.217   0.104   0.813  1.5795 -0.0987  0.1370
 3894TIP3   OH233316   1.113   5.835   1.034  0.1742 -0.0542  0.0623
 3894TIP3    H133317   1.025   5.850   1.066 -0.5046 -1.9842 -0.7318
 3894TIP3    H233318   1.123   5.739   1.034  1.8924  0.0744 -0.8119
 3895TIP3   OH233319   4.476   1.724   9.741  0.0279  0.1359 -0.0890
 3895TIP3    H133320   4.435   1.719   9.827  3.1752 -2.5678  1.5019
 3895TIP3    H233321   4.454   1.641   9.699  1.0230  0.1042 -0.5886
 3896TIP3   OH233322   3.858   4.921   2.541 -0.7770 -0.4268 -0.2280
 3896TIP3    H133323   3.859   4.964   2.627  2.4331 -0.0703 -0.3136
 3896TIP3    H233324   3.892   4.833   2.558 -0.2979 -0.4186 -1.0804
 3897TIP3   OH233325   3.015   3.040   9.006  0.0406 -0.3397 -0.0245
 3897TIP3    H133326   3.048   3.086   9.083  0.5960  0.9471 -0.9996
 3897TIP3    H233327   3.080   2.971   8.990  0.8187  0.4409 -0.3109
 3898TIP3   OH233328   1.018   1.389   1.312  0.3476  0.1232  0.3197
 3898TIP3    H133329   1.090   1.377   1.375  0.7385  2.5175  0.4594
 3898TIP3    H233330   1.059   1.436   1.239 -0.6205 -0.4754 -0.6259
 3899TIP3   OH233331   2.692   2.838   9.205 -0.2058  0.1828 -0.3890
 3899TIP3    H133332   2.708   2.766   9.145 -0.9599  0.6472 -1.1691
 3899TIP3    H233333   2.597   2.838   9.219 -0.2110  0.9650 -0.3467
 3900TIP3   OH233334   2.083   3.748   3.587  0.1478  0.1714  0.0263
 3900TIP3    H133335   2.093   3.720   3.678 -1.5781  0.5317  0.3595
 3900TIP3    H233336   2.042   3.673   3.543 -0.3361  0.5213 -0.1214
 3901TIP3   OH233337   5.446   0.996   8.364 -0.6495 -0.9271  0.2639
 3901TIP3    H133338   5.490   0.973   8.446 -0.1785 -0.6814  0.0858
 3901TIP3    H233339   5.452   0.917   8.310 -0.2857 -0.8474  0.1840
 3902TIP3   OH233340   2.233   3.045   1.161 -0.2721  0.1479 -0.1784
 3902TIP3    H133341   2.249   3.124   1.111  0.2771 -0.2553 -0.6605
 3902TIP3    H233342   2.260   2.974   1.103 -1.7899 -0.4685 -0.1770
 3903TIP3   OH233343   1.340   4.481   8.356 -0.4339  0.2085 -0.3774
 3903TIP3    H133344   1.355   4.573   8.376  0.0574  0.8537 -3.2490
 3903TIP3    H233345   1.428   4.444   8.347 -0.6247 -0.2187 -0.5164
 3904TIP3   OH233346   2.631   0.414   9.043 -0.4720 -0.0560 -0.0427
 3904TIP3    H133347   2.658   0.397   9.133  0.8619  1.5185 -0.0845
 3904TIP3    H233348   2.712   0.439   8.998 -1.4424  1.4326 -1.0879
 3905TIP3   OH233349   0.899   5.441   8.447 -0.2701 -0.1307 -0.2854
 3905TIP3    H133350   0.900   5.536   8.449 -0.9998 -0.1360  1.0952
 3905TIP3    H233351   0.981   5.415   8.489 -0.7924 -0.0955  0.7943
 3906TIP3   OH233352   4.941   2.622   9.249  0.0080  0.0697 -0.3118
 3906TIP3    H133353   4.915   2.621   9.341  1.0196 -1.5857 -0.0029
 3906TIP3    H233354   4.960   2.530   9.229  2.2399  0.7271 -1.4539
 3907TIP3   OH233355   1.188   4.649   1.168 -0.1138  0.0531 -0.3305
 3907TIP3    H133356   1.170   4.620   1.258  0.1292  0.5899 -0.1026
 3907TIP3    H233357   1.264   4.707   1.176 -1.3361  1.7738 -0.5744
 3908TIP3   OH233358   1.251   3.452   9.604  0.0245 -0.0613 -0.4394
 3908TIP3    H133359   1.188   3.385   9.631 -0.4320 -0.9011 -3.2995
 3908TIP3    H233360   1.226   3.530   9.653 -0.1522 -1.6213  2.1188
 3909TIP3   OH233361   5.254   2.013   8.536  0.2454  0.1018  0.4392
 3909TIP3    H133362   5.314   2.033   8.464  2.6887 -1.9775  1.7401
 3909TIP3    H233363   5.180   2.073   8.524  1.7023  1.4906 -2.3366
 3910TIP3   OH233364   1.233   2.578   8.819 -0.0151 -0.8075  0.0503
 3910TIP3    H133365   1.210   2.568   8.912 -0.4857 -0.2376  0.0072
 3910TIP3    H233366   1.149   2.575   8.773  0.1391 -0.3140 -0.2779
 3911TIP3   OH233367   3.295   2.056   0.068  0.2213  0.6306 -0.0723
 3911TIP3    H133368   3.349   2.108   0.009 -2.0020  1.3991 -1.5130
 3911TIP3    H233369   3.264   2.118   0.134 -0.6441  0.6733 -0.5113
 3912TIP3   OH233370   5.544   0.858   9.517  0.3942  0.0169 -0.0130
 3912TIP3    H133371   5.489   0.937   9.519 -0.9919 -0.8971 -0.3179
 3912TIP3    H233372   5.579   0.851   9.606  1.3365  1.4856 -0.2359
 3913TIP3   OH233373   1.673   3.911   2.298  0.1047  0.1188 -0.1772
 3913TIP3    H133374   1.585   3.943   2.278 -0.1164  0.6679  1.5380
 3913TIP3    H233375   1.696   3.857   2.223 -1.3107  0.7344 -1.0928
 3914TIP3   OH233376   1.054   1.467   8.650 -0.3626 -0.1493 -0.1274
 3914TIP3    H133377   1.124   1.531   8.650 -0.0965 -0.4353  0.1038
 3914TIP3    H233378   0.978   1.514   8.684 -0.3949  0.2798 -0.7957
 3915TIP3   OH233379   6.302   2.303   0.541 -0.0164 -0.1498  0.3227
 3915TIP3    H133380   6.332   2.392   0.524  3.7193 -1.2956 -0.2242
 3915TIP3    H233381   6.264   2.274   0.457 -0.6114  0.6736  0.2988
 3916TIP3   OH233382   0.205   5.926   1.801  1.0318  0.2093  0.2533
 3916TIP3    H133383   0.124   5.885   1.770  0.2907  1.2734  0.6962
 3916TIP3    H233384   0.234   5.981   1.728  1.5829 -0.4890 -0.0534
 3917TIP3   OH233385   1.708   4.078   2.801  0.0065  0.2333 -0.2301
 3917TIP3    H133386   1.719   4.144   2.870  0.8639 -1.4116  1.2652
 3917TIP3    H233387   1.797   4.066   2.766  0.5608 -2.4939  1.8322
 3918TIP3   OH233388   1.832   5.065   3.067  0.0720  0.6561 -0.3493
 3918TIP3    H133389   1.757   5.114   3.098 -0.2125  0.5608 -0.8703
 3918TIP3    H233390   1.853   5.004   3.138 -1.2524 -0.3320 -0.7614
 3919TIP3   OH233391   5.081   5.155   2.486  0.3537 -0.9733  0.4721
 3919TIP3    H133392   5.121   5.241   2.474 -1.5379  0.0462  1.0148
 3919TIP3    H233393   5.088   5.113   2.400  1.8013 -0.5318  0.3491
 3920TIP3   OH233394   5.063   5.224   9.562  0.1878  0.1240 -0.9274
 3920TIP3    H133395   5.105   5.197   9.644 -1.0854  2.5690  0.6488
 3920TIP3    H233396   5.136   5.237   9.502  1.1752 -1.4718 -0.1525
 3921TIP3   OH233397   1.375   1.435   8.369  0.0478  0.1835  0.4806
 3921TIP3    H133398   1.366   1.347   8.406  0.9146  0.0758  0.4616
 3921TIP3    H233399   1.470   1.449   8.364  0.0048  0.0975 -1.8833
 3922TIP3   OH233400   2.060   2.387   9.722 -0.1703 -0.4248 -0.8682
 3922TIP3    H133401   2.040   2.458   9.660  0.3661  1.1390  0.6659
 3922TIP3    H233402   2.149   2.406   9.750 -0.5783 -0.8003  0.7396
 3923TIP3   OH233403   4.733   4.573   8.797 -0.2940  0.1865  0.3994
 3923TIP3    H133404   4.765   4.507   8.736 -1.0757  0.4069 -0.2571
 3923TIP3    H233405   4.754   4.537   8.883  0.7635 -0.1579  0.0232
 3924TIP3   OH233406   5.269   5.263   9.357  0.6814 -0.5460 -0.0036
 3924TIP3    H133407   5.187   5.219   9.334  2.3186 -3.0439 -1.5837
 3924TIP3    H233408   5.336   5.197   9.342  3.1700  1.9080 -0.4610
 3925TIP3   OH233409   1.652   2.895   2.572 -0.1160 -0.5688 -0.1034
 3925TIP3    H133410   1.726   2.956   2.576 -1.3520  0.9133  2.1921
 3925TIP3    H233411   1.575   2.951   2.560 -1.0762 -1.8954 -0.4195
 3926TIP3   OH233412   1.628   0.881   0.139  0.3554 -0.0593 -0.1600
 3926TIP3    H133413   1.606   0.963   0.183 -0.2346  0.2121 -0.9372
 3926TIP3    H233414   1.684   0.835   0.202  0.2847  0.7103  0.4931
 3927TIP3   OH233415   0.437   0.556   7.858  0.1955 -0.5759 -0.2489
 3927TIP3    H133416   0.390   0.499   7.797  0.8718 -0.7205 -0.6505
 3927TIP3    H233417   0.528   0.550   7.830  0.9045 -2.3095  2.0596
 3928TIP3   OH233418   1.259   3.428   8.468 -0.5301  0.8814 -0.4174
 3928TIP3    H133419   1.172   3.391   8.479  0.7774 -1.8804  1.9287
 3928TIP3    H233420   1.282   3.463   8.554 -0.2266  4.0310 -1.6449
 3929TIP3   OH233421   4.992   1.145   1.333  0.5754 -0.0316 -1.0615
 3929TIP3    H133422   5.085   1.163   1.343  0.3896  0.4020 -0.0108
 3929TIP3    H233423   4.951   1.183   1.411 -0.4707 -0.2924 -1.4619
 3930TIP3   OH233424   0.465   3.288   0.300  0.2354 -0.4049  0.7242
 3930TIP3    H133425   0.455   3.383   0.308 -2.3362 -0.6363  1.0345
 3930TIP3    H233426   0.397   3.252   0.358  0.5810 -2.4242 -0.0560
 3931TIP3   OH233427   3.627   1.164   1.741  0.2497  0.0905 -0.3606
 3931TIP3    H133428   3.631   1.071   1.767  1.5235 -0.0640 -1.0097
 3931TIP3    H233429   3.604   1.210   1.822  0.4121 -0.7232  0.1679
 3932TIP3   OH233430   5.355   2.726   8.768  0.0401  0.0628 -0.1960
 3932TIP3    H133431   5.348   2.806   8.820 -0.7985  0.7154 -1.2677
 3932TIP3    H233432   5.423   2.675   8.812 -0.3371  0.7653  1.2679
 3933TIP3   OH233433   1.531   3.821   0.273  0.2440  0.4791 -0.4541
 3933TIP3    H133434   1.528   3.917   0.268  1.0838  0.6923  2.0765
 3933TIP3    H233435   1.609   3.797   0.224  0.9511  1.2392  0.2746
 3934TIP3   OH233436   1.146   3.388   9.206 -0.0728  0.0755  0.7993
 3934TIP3    H133437   1.101   3.439   9.273 -0.9359 -1.2533  1.2931
 3934TIP3    H233438   1.091   3.395   9.128  0.2586  0.5919  0.6136
 3935TIP3   OH233439   3.229   0.299   1.714  0.0385 -0.1647 -0.0222
 3935TIP3    H133440   3.188   0.367   1.769  1.9942  1.2552 -0.2208
 3935TIP3    H233441   3.283   0.348   1.652  1.7518 -1.9072  0.0067
 3936TIP3   OH233442   0.398   4.913   2.525  0.0968  0.3310 -0.2251
 3936TIP3    H133443   0.488   4.887   2.538  0.7473  1.7741 -1.4624
 3936TIP3    H233444   0.400   5.009   2.529 -1.2831  0.4088 -0.7287
 3937TIP3   OH233445   0.835   3.933   1.914 -0.0515  0.7995 -1.0605
 3937TIP3    H133446   0.752   3.929   1.962 -0.3117 -0.1862 -1.5576
 3937TIP3    H233447   0.809   3.942   1.823  0.2183 -2.4556 -1.6028
 3938TIP3   OH233448   3.781   3.002   3.427 -0.0847  0.2531 -0.1396
 3938TIP3    H133449   3.782   2.906   3.434  2.5661  0.0940 -1.2509
 3938TIP3    H233450   3.842   3.031   3.494  0.1824  1.0442 -0.7146
 3939TIP3   OH233451   4.345   4.225   2.158 -0.1244 -0.0311  0.4518
 3939TIP3    H133452   4.359   4.242   2.065  2.5008 -1.6184  0.4781
 3939TIP3    H233453   4.404   4.286   2.202  1.0222 -1.4711  0.9374
 3940TIP3   OH233454   2.146   3.665   8.919  0.0915  0.0879  0.2378
 3940TIP3    H133455   2.150   3.752   8.958  2.0496  0.6636 -1.0565
 3940TIP3    H233456   2.104   3.679   8.834  1.7616  0.1078 -0.6309
 3941TIP3   OH233457   3.430   1.054   1.544 -0.3734  0.0426 -0.1601
 3941TIP3    H133458   3.464   0.965   1.543 -1.6499 -0.4650  0.0607
 3941TIP3    H233459   3.487   1.101   1.605  1.8767  0.0571 -2.1276
 3942TIP3   OH233460   5.701   2.978   2.232 -0.0136  0.0971 -0.2105
 3942TIP3    H133461   5.650   2.981   2.313 -1.1402 -2.3234 -0.7523
 3942TIP3    H233462   5.636   2.968   2.163  1.0640 -1.9675 -1.0174
 3943TIP3   OH233463   4.758   2.977   0.330  0.0046  0.2163  0.1013
 3943TIP3    H133464   4.787   3.000   0.242  0.6639 -1.3398 -0.1225
 3943TIP3    H233465   4.837   2.980   0.383 -0.5722  2.3474  0.9785
 3944TIP3   OH233466   2.299   3.747   4.228 -0.0158 -0.1125 -0.2899
 3944TIP3    H133467   2.277   3.668   4.179 -0.0868  0.4291 -1.1652
 3944TIP3    H233468   2.276   3.819   4.169 -1.8396  0.6383  1.2260
 3945TIP3   OH233469   4.232   1.688   2.693 -0.2230  0.0939 -0.3181
 3945TIP3    H133470   4.318   1.725   2.714 -0.7079  0.5973  0.8571
 3945TIP3    H233471   4.175   1.765   2.683 -0.2818 -0.1466 -2.5090
 3946TIP3   OH233472   3.256   5.844   8.089 -0.3741  0.0759 -0.6172
 3946TIP3    H133473   3.274   5.792   8.010 -1.2690 -0.9490 -0.1783
 3946TIP3    H233474   3.324   5.817   8.151  2.1567  2.9620 -1.8429
 3947TIP3   OH233475   1.290   1.080   9.667  0.7409 -1.0011 -0.3776
 3947TIP3    H133476   1.240   1.144   9.718 -0.3332  0.3853 -2.9243
 3947TIP3    H233477   1.243   0.997   9.680 -0.1096 -0.4665  0.0590
 3948TIP3   OH233478   1.355   1.875   2.003 -0.1559  0.0387 -0.1978
 3948TIP3    H133479   1.418   1.947   1.994 -0.2184  0.2957  1.1653
 3948TIP3    H233480   1.273   1.917   2.028 -0.4122 -0.4415 -0.2147
 3949TIP3   OH233481   2.166   2.136   0.659  0.3160 -0.2937 -0.1279
 3949TIP3    H133482   2.128   2.180   0.734  1.4968 -1.5725  1.2842
 3949TIP3    H233483   2.260   2.139   0.673  0.5586 -0.7063 -1.4694
 3950TIP3   OH233484   0.679   5.898   0.243  0.2123  0.0975  0.1006
 3950TIP3    H133485   0.751   5.871   0.300 -0.3603  1.5381  1.6112
 3950TIP3    H233486   0.616   5.826   0.248 -0.9715  1.1655  3.4421
 3951TIP3   OH233487   3.132   1.055   9.717  0.0247 -0.5139 -0.0634
 3951TIP3    H133488   3.132   1.099   9.802 -0.2781 -0.6465  0.0061
 3951TIP3    H233489   3.159   0.965   9.737  2.7276  0.1275 -0.4715
 3952TIP3   OH233490   1.481   2.139   2.912 -0.6194 -0.1217  0.2421
 3952TIP3    H133491   1.424   2.191   2.968 -0.8486  0.6870 -0.7155
 3952TIP3    H233492   1.492   2.056   2.959 -0.8329  0.5206  1.4440
 3953TIP3   OH233493   3.178   3.642   0.008  0.9974 -0.2637  0.5206
 3953TIP3    H133494   3.208   3.670  -0.079  0.2248 -1.7065 -0.2447
 3953TIP3    H233495   3.150   3.723   0.050  0.4470  0.3560 -0.9576
 3954TIP3   OH233496   5.060   2.462   1.737 -0.2834  0.0757 -0.3731
 3954TIP3    H133497   4.991   2.522   1.765  1.2644  1.9310 -0.3325
 3954TIP3    H233498   5.069   2.400   1.810 -0.0378  1.5067  0.8438
 3955TIP3   OH233499   1.039   1.933   8.859 -0.3016  0.0343 -0.1991
 3955TIP3    H133500   1.100   1.937   8.785  0.6975 -0.2808  0.5775
 3955TIP3    H233501   0.967   1.990   8.834 -0.8603 -1.4552 -2.1810
 3956TIP3   OH233502   0.804   2.537   7.503 -0.3143 -0.4374 -0.1687
 3956TIP3    H133503   0.718   2.565   7.536  0.4991  0.7261  1.0357
 3956TIP3    H233504   0.866   2.600   7.539  0.9189 -0.4505 -2.1082
 3957TIP3   OH233505   2.010   4.985   1.023 -0.0198  0.3368 -0.2807
 3957TIP3    H133506   1.997   5.066   1.072 -1.6063  0.0144 -0.1219
 3957TIP3    H233507   2.004   5.011   0.931 -0.6712  0.3974 -0.2279
 3958TIP3   OH233508   2.596   2.466   1.328 -0.5069 -0.7371 -0.1612
 3958TIP3    H133509   2.612   2.471   1.422 -2.7425  1.2155  0.2295
 3958TIP3    H233510   2.667   2.412   1.294  0.9377 -0.6855  2.4941
 3959TIP3   OH233511   2.118   2.838   3.153 -0.2564 -0.1270  0.1582
 3959TIP3    H133512   2.188   2.815   3.092  0.2963  2.1323 -0.1216
 3959TIP3    H233513   2.163   2.858   3.235 -0.5611  1.1555  0.0333
 3960TIP3   OH233514   5.007   6.329   7.854  0.1753  0.4502 -0.0342
 3960TIP3    H133515   4.946   6.284   7.912  0.2798 -1.6182 -1.4182
 3960TIP3    H233516   4.966   6.413   7.836 -0.9071  0.2301  1.2660
 3961TIP3   OH233517   1.790   0.692   9.318  0.1475  0.0790  0.1104
 3961TIP3    H133518   1.749   0.676   9.233  0.5573  0.6482 -0.2033
 3961TIP3    H233519   1.718   0.723   9.373 -0.4280 -1.6871  0.4200
 3962TIP3   OH233520   0.620   1.449   8.113  0.1433  0.1864  0.4757
 3962TIP3    H133521   0.640   1.542   8.124  0.9104  0.4214 -2.2444
 3962TIP3    H233522   0.534   1.447   8.071  0.9342 -0.1893 -1.2149
 3963TIP3   OH233523   4.581   4.765   9.828 -0.8317 -0.6745 -0.7487
 3963TIP3    H133524   4.667   4.762   9.869 -0.0589  1.2592 -2.0771
 3963TIP3    H233525   4.555   4.674   9.819 -0.2896 -1.2370  2.3775
 3964TIP3   OH233526   1.821   5.563   2.015  0.1566 -0.2563 -0.3640
 3964TIP3    H133527   1.838   5.469   2.018  0.9338 -0.1702 -1.4398
 3964TIP3    H233528   1.797   5.586   2.105  1.9309 -1.1364  0.3842
 3965TIP3   OH233529   1.645   5.781   9.516  0.2771  0.1886  0.1273
 3965TIP3    H133530   1.724   5.728   9.522 -2.1256 -3.5807  2.0326
 3965TIP3    H233531   1.595   5.742   9.444 -0.4438  1.6615 -0.2120
 3966TIP3   OH233532   0.242   4.386   9.236 -0.5859  0.4829  0.7134
 3966TIP3    H133533   0.291   4.443   9.296  1.6042 -1.7690  1.2032
 3966TIP3    H233534   0.227   4.306   9.286 -1.2952 -0.3540 -0.7903
 3967TIP3   OH233535   5.585   1.689   1.538 -0.1869 -0.1830 -0.4849
 3967TIP3    H133536   5.579   1.599   1.505  0.8136 -0.7027  0.6519
 3967TIP3    H233537   5.513   1.697   1.600 -0.6991  0.0453 -1.0979
 3968TIP3   OH233538   0.983   0.685   2.194  0.1975  0.1954 -0.4356
 3968TIP3    H133539   1.032   0.665   2.114 -0.8273 -0.3709 -0.9538
 3968TIP3    H233540   1.049   0.713   2.257  0.7760  4.0611 -2.4576
 3969TIP3   OH233541   1.408   5.085   8.164 -0.0308  0.1150  0.1829
 3969TIP3    H133542   1.448   5.001   8.143  1.1773  0.7225 -0.0979
 3969TIP3    H233543   1.463   5.149   8.119 -0.4277  1.1061  1.0583
 3970TIP3   OH233544   2.610   5.653   8.484  0.4645  0.1817 -0.2579
 3970TIP3    H133545   2.531   5.599   8.484  0.4061  0.1113 -3.1571
 3970TIP3    H233546   2.669   5.608   8.424  1.6248  1.7224 -0.3229
 3971TIP3   OH233547   3.977   1.773   3.686  0.6012  0.6217 -0.5332
 3971TIP3    H133548   4.038   1.841   3.715 -0.6862  2.0776 -1.0620
 3971TIP3    H233549   4.019   1.734   3.609  1.5767  0.4677  0.0651
 3972TIP3   OH233550   0.579   0.673   8.757  0.2224 -1.0544 -0.5240
 3972TIP3    H133551   0.508   0.657   8.819  0.5719 -1.7640 -0.2968
 3972TIP3    H233552   0.552   0.752   8.709  0.9803  0.8720  2.0205
 3973TIP3   OH233553   0.340   1.236   0.185 -0.1641  0.1543  0.5914
 3973TIP3    H133554   0.293   1.162   0.224  0.1879  0.4341  1.5891
 3973TIP3    H233555   0.313   1.312   0.237 -1.2163  0.9188 -0.9782
 3974TIP3   OH233556   1.256   3.578   1.777 -0.0033 -0.0622 -0.0268
 3974TIP3    H133557   1.313   3.549   1.848 -0.2969 -2.1286 -0.5519
 3974TIP3    H233558   1.316   3.612   1.710  0.4241  0.0083  0.3888
 3975TIP3   OH233559   3.197   2.617   9.851  0.4880  0.0175 -0.0371
 3975TIP3    H133560   3.176   2.530   9.816  2.1530  0.2127 -1.6478
 3975TIP3    H233561   3.137   2.676   9.804 -0.0983 -0.1591  0.4772
 3976TIP3   OH233562   5.885   0.515   9.032  0.1259 -0.3515  0.3850
 3976TIP3    H133563   5.864   0.535   9.123 -0.1568  3.0495 -0.2901
 3976TIP3    H233564   5.979   0.528   9.025  0.2369 -1.1714  0.3018
 3977TIP3   OH233565   1.793   5.204   9.388 -0.0440  0.7236 -0.0498
 3977TIP3    H133566   1.776   5.110   9.377 -2.9929  1.1208  0.1399
 3977TIP3    H233567   1.860   5.208   9.456  1.2339 -1.2398 -1.1055
 3978TIP3   OH233568   1.632   1.035   7.457  0.0898  0.1051  0.0538
 3978TIP3    H133569   1.716   0.991   7.457  0.2257  0.3327  1.4422
 3978TIP3    H233570   1.621   1.068   7.546 -1.1194  0.7456 -0.2993
 3979TIP3   OH233571   5.940   5.566  10.028  0.2418  0.1040 -0.1391
 3979TIP3    H133572   6.003   5.598  10.092  0.2389  0.3301 -0.2479
 3979TIP3    H233573   5.865   5.625  10.036  0.1511 -0.0038 -0.1933
 3980TIP3   OH233574   1.882   2.617   2.325 -0.2710 -0.1407 -0.5030
 3980TIP3    H133575   1.843   2.581   2.404 -0.4258 -1.4457 -1.1520
 3980TIP3    H233576   1.852   2.708   2.322 -1.4982 -0.5098  0.1409
 3981TIP3   OH233577   0.272   0.060   1.669 -0.1599  0.2709  0.1873
 3981TIP3    H133578   0.177   0.066   1.668 -0.1710  0.3641 -1.7288
 3981TIP3    H233579   0.302   0.136   1.619  0.8975 -0.0933  0.2326
 3982TIP3   OH233580   1.877   2.404   0.505 -0.6158  0.2690  0.2515
 3982TIP3    H133581   1.797   2.391   0.556 -1.0253 -0.1573 -0.4792
 3982TIP3    H233582   1.847   2.409   0.414  0.2590 -0.8541 -0.1237
 3983TIP3   OH233583   2.007   3.504   2.279 -0.1060 -0.2077 -0.1604
 3983TIP3    H133584   1.960   3.587   2.279 -0.0494 -0.1735 -0.5622
 3983TIP3    H233585   2.007   3.476   2.187  0.0615 -0.5435 -0.0604
 3984TIP3   OH233586   2.557   4.525   1.740 -0.3294  0.5730 -0.1386
 3984TIP3    H133587   2.638   4.545   1.787  0.4214  2.0830 -1.9239
 3984TIP3    H233588   2.513   4.610   1.730 -1.7464 -0.1061  0.0963
 3985TIP3   OH233589   4.576   3.588   0.517 -0.2695 -0.3214  0.5496
 3985TIP3    H133590   4.503   3.649   0.528  0.5128  0.6999  0.1634
 3985TIP3    H233591   4.541   3.504   0.549 -1.1280  0.4603  1.7864
 3986TIP3   OH233592   2.891   0.403   8.437 -0.1257 -0.2813  0.1873
 3986TIP3    H133593   2.900   0.382   8.530  1.2570 -0.0530  0.1282
 3986TIP3    H233594   2.849   0.326   8.399  1.5621 -1.4797  0.6000
 3987TIP3   OH233595   0.449   3.192   1.707  0.2090 -0.4188  0.0996
 3987TIP3    H133596   0.417   3.282   1.699  1.6275 -0.0176 -2.0153
 3987TIP3    H233597   0.372   3.141   1.732 -0.7187  1.2976  0.9364
 3988TIP3   OH233598   5.510   5.088   3.209  0.9588 -0.1424  0.2620
 3988TIP3    H133599   5.544   5.119   3.293 -0.3200  0.4503  0.5848
 3988TIP3    H233600   5.564   5.012   3.188  2.5147  0.7951  0.7000
 3989TIP3   OH233601   1.300   4.291   0.418 -0.3287 -0.8249  0.0439
 3989TIP3    H133602   1.234   4.348   0.457 -0.5438 -0.3608 -0.9608
 3989TIP3    H233603   1.254   4.246   0.347  0.2094 -1.1533 -0.1019
 3990TIP3   OH233604   2.553   0.363   9.920  0.6389 -0.0369  0.5325
 3990TIP3    H133605   2.510   0.296   9.867  0.2829 -2.9467  4.1024
 3990TIP3    H233606   2.482   0.415   9.957  0.8482  1.4653 -1.0476
 3991TIP3   OH233607   3.809   5.951   9.471 -0.5873  0.0038 -0.0640
 3991TIP3    H133608   3.757   5.891   9.418  0.2956  0.6793 -1.7607
 3991TIP3    H233609   3.900   5.930   9.451 -0.2157  0.2377  1.2590
 3992TIP3   OH233610   3.784   2.259   1.409 -0.3555  0.0760 -0.0194
 3992TIP3    H133611   3.800   2.353   1.404  1.4610 -0.2351 -0.9506
 3992TIP3    H233612   3.836   2.229   1.484 -0.4545 -0.2678 -0.0824
 3993TIP3   OH233613   5.922   1.713   9.172  0.2700  0.3059 -0.0944
 3993TIP3    H133614   5.956   1.790   9.217  2.0272  1.0617 -2.5049
 3993TIP3    H233615   5.968   1.712   9.088 -0.1931 -3.0001 -0.4500
 3994TIP3   OH233616   3.214   1.254   0.547 -0.0017 -0.0963  0.8996
 3994TIP3    H133617   3.160   1.311   0.602 -1.3754  1.8837 -2.2404
 3994TIP3    H233618   3.155   1.185   0.519  0.5034 -0.6968  1.2697
 3995TIP3   OH233619   1.247   3.173   8.972 -0.1948 -0.0016 -0.7246
 3995TIP3    H133620   1.274   3.082   8.963  0.9008  0.2442 -0.0693
 3995TIP3    H233621   1.153   3.172   8.953 -0.6110 -1.5769  1.0406
 3996TIP3   OH233622   4.083   6.067   1.175 -0.3139  0.3454 -0.2812
 3996TIP3    H133623   4.146   6.011   1.220  1.9451  1.0836 -2.3342
 3996TIP3    H233624   4.072   6.143   1.233 -0.3445 -0.4005  0.6987
 3997TIP3   OH233625   4.868   3.096   2.849 -0.1504 -0.0472 -0.4166
 3997TIP3    H133626   4.941   3.112   2.909  1.7328  1.4506 -2.9196
 3997TIP3    H233627   4.889   3.013   2.806  0.4610  0.7148 -1.6194
 3998TIP3   OH233628   0.106   4.062   0.564 -0.4111  0.6350  0.3289
 3998TIP3    H133629   0.063   3.978   0.578  0.7811 -0.2693 -1.1407
 3998TIP3    H233630   0.035   4.123   0.544 -1.0884 -1.0031 -2.9920
 3999TIP3   OH233631   2.494   3.830   9.855  0.0622  0.2913  0.0614
 3999TIP3    H133632   2.586   3.829   9.882  0.1777 -0.3840 -0.3410
 3999TIP3    H233633   2.457   3.906   9.899  1.0493  1.1498 -0.5507
 4000TIP3   OH233634   5.051   3.487   3.568 -0.1679  0.4784 -0.1136
 4000TIP3    H133635   5.121   3.546   3.596 -1.2513  0.6265  2.6395
 4000TIP3    H233636   5.093   3.426   3.507  2.1161  1.1123  0.7280
 4001TIP3   OH233637   4.579   0.841   1.239  0.4266  0.0124 -0.6793
 4001TIP3    H133638   4.583   0.937   1.244  0.2594  0.0442 -1.0942
 4001TIP3    H233639   4.598   0.811   1.328 -1.1274  0.4743 -0.1700
 4002TIP3   OH233640   3.706   6.028   3.048 -0.5065 -0.7557 -0.6472
 4002TIP3    H133641   3.639   5.961   3.060 -2.4368  0.8346 -1.7578
 4002TIP3    H233642   3.737   6.015   2.959  0.3033 -1.1535 -0.3141
 4003TIP3   OH233643   0.227   4.744   0.824 -0.2402 -0.0251  0.0238
 4003TIP3    H133644   0.288   4.672   0.841 -0.2790  0.2322  1.4496
 4003TIP3    H233645   0.172   4.714   0.752  0.3937 -1.0065 -0.0666
 4004TIP3   OH233646   2.795   1.155   8.573 -0.3031  0.0503 -0.0893
 4004TIP3    H133647   2.873   1.183   8.527 -0.6048  1.5112  0.2456
 4004TIP3    H233648   2.818   1.069   8.609  1.0257  0.3040 -0.2821
 4005TIP3   OH233649   3.894   2.598   2.325  0.4783 -0.0976 -0.1470
 4005TIP3    H133650   3.855   2.548   2.253  2.8238 -0.3392 -1.3492
 4005TIP3    H233651   3.919   2.682   2.285  1.9295 -0.2858  0.3194
 4006TIP3   OH233652   2.995   3.800   3.021  0.6335  0.0083  0.5634
 4006TIP3    H133653   2.998   3.881   2.970  0.8427  0.4553  1.2639
 4006TIP3    H233654   3.047   3.738   2.971 -0.5565 -0.0746 -0.6177
 4007TIP3   OH233655   0.881   3.675   8.528 -0.3496  0.1359  0.2747
 4007TIP3    H133656   0.917   3.732   8.596 -1.4389  1.2872 -0.0860
 4007TIP3    H233657   0.874   3.731   8.451  0.3496 -1.0032 -0.6530
 4008TIP3   OH233658   2.418   0.942   1.642  0.2984 -0.2046 -0.1432
 4008TIP3    H133659   2.492   0.896   1.605  1.2258  0.3685  0.9398
 4008TIP3    H233660   2.346   0.924   1.582  1.4766 -0.1780 -1.6109
 4009TIP3   OH233661   4.825   1.204   0.464  0.2579  0.0912 -0.3546
 4009TIP3    H133662   4.784   1.119   0.482 -0.7792  0.6169 -0.1169
 4009TIP3    H233663   4.763   1.268   0.501  0.5747  0.9873 -1.3377
 4010TIP3   OH233664   2.155   5.993   7.865 -0.0430  0.4002 -0.5403
 4010TIP3    H133665   2.062   6.014   7.859 -0.0329  0.0379 -2.1822
 4010TIP3    H233666   2.200   6.063   7.817  0.5359  0.5037  0.1246
 4011TIP3   OH233667   2.598   5.881   8.104 -0.3890 -0.0800  0.1291
 4011TIP3    H133668   2.635   5.920   8.024  1.3114 -0.0415  0.8867
 4011TIP3    H233669   2.516   5.840   8.075  0.7862 -1.1652 -1.9153
 4012TIP3   OH233670   3.603   1.564   8.912 -0.1760 -0.3365  0.1218
 4012TIP3    H133671   3.641   1.603   8.833 -1.5558 -0.3750 -0.5981
 4012TIP3    H233672   3.512   1.594   8.912 -0.4478 -1.1043  1.2039
 4013TIP3   OH233673   3.511   3.002   9.358 -0.5576  0.7396 -0.4083
 4013TIP3    H133674   3.472   3.044   9.435 -1.4189 -0.8839  0.0883
 4013TIP3    H233675   3.490   3.061   9.286  1.8038  3.2217  0.7574
 4014TIP3   OH233676   5.685   0.582   7.414 -0.7216 -0.4145 -0.2220
 4014TIP3    H133677   5.694   0.531   7.495  0.7080  0.2774  0.0884
 4014TIP3    H233678   5.594   0.569   7.388 -0.8060 -1.8764  0.6732
 4015TIP3   OH233679   4.773   3.215   9.303 -0.7584  0.0279  0.0372
 4015TIP3    H133680   4.847   3.205   9.363  0.4796  0.4367 -1.3595
 4015TIP3    H233681   4.763   3.310   9.294  1.0315  0.0468 -2.6482
 4016TIP3   OH233682   2.605   4.021   9.259 -0.2905  0.6238 -0.1602
 4016TIP3    H133683   2.594   3.926   9.251 -0.2556  0.3718  2.1183
 4016TIP3    H233684   2.695   4.037   9.230  1.0108 -0.6403  2.7092
 4017TIP3   OH233685   4.646   6.011   9.698 -0.5207  0.0894  0.3898
 4017TIP3    H133686   4.555   6.038   9.698 -0.4020  0.6514 -1.8732
 4017TIP3    H233687   4.642   5.915   9.691 -1.0927  0.2398 -4.1707
 4018TIP3   OH233688   1.291   2.771   2.585  0.0413 -0.4760  0.0840
 4018TIP3    H133689   1.318   2.837   2.521 -1.6875 -1.3176 -1.6075
 4018TIP3    H233690   1.372   2.750   2.632  0.9292  1.7740 -0.2822
 4019TIP3   OH233691   4.496   3.340   0.625  0.7822 -0.1128 -0.7785
 4019TIP3    H133692   4.446   3.277   0.573  2.1063 -2.8230  0.9638
 4019TIP3    H233693   4.455   3.337   0.712  3.5430 -2.1928  0.6159
 4020TIP3   OH233694   5.421   0.258   8.184 -0.5979 -0.5576  0.0307
 4020TIP3    H133695   5.379   0.319   8.245 -2.6672 -1.1657 -0.7086
 4020TIP3    H233696   5.461   0.314   8.118 -1.0944  0.0320  0.2241
 4021TIP3   OH233697   5.896   1.995   2.136 -0.1148  0.0305 -0.2939
 4021TIP3    H133698   5.832   1.967   2.201  0.7268  1.0877  1.0308
 4021TIP3    H233699   5.965   1.928   2.139  0.0779  0.2482  0.1360
 4022TIP3   OH233700   6.159   5.175   2.601  0.3305  0.2618 -0.4887
 4022TIP3    H133701   6.112   5.091   2.598 -0.4472  0.4295  3.0915
 4022TIP3    H233702   6.246   5.153   2.636  0.3340  0.8548 -0.1058
 4023TIP3   OH233703   0.304   1.679   9.085  0.2089 -0.0621 -0.0344
 4023TIP3    H133704   0.363   1.612   9.120  2.4044  1.2918 -0.9660
 4023TIP3    H233705   0.254   1.709   9.160  1.0512 -0.9177  0.8969
 4024TIP3   OH233706   3.801   4.980   2.282 -0.1033 -0.0044 -0.1515
 4024TIP3    H133707   3.862   4.971   2.355  0.6148 -2.8144 -0.9663
 4024TIP3    H233708   3.840   5.047   2.226 -0.9262  2.6063  2.1521
 4025TIP3   OH233709   5.254   3.396   1.120  1.0503 -0.2489 -0.4495
 4025TIP3    H133710   5.239   3.353   1.205  0.0694  0.1411 -0.4019
 4025TIP3    H233711   5.247   3.326   1.056 -0.6670 -0.1760 -0.3831
 4026TIP3   OH233712   0.494   4.457   1.763 -0.1454  0.1901  0.7242
 4026TIP3    H133713   0.561   4.525   1.756 -0.9904  1.1627  1.7191
 4026TIP3    H233714   0.542   4.379   1.792  0.7773  0.4458 -0.0703
 4027TIP3   OH233715   1.272   4.902   1.686 -0.4045  0.2987  0.3709
 4027TIP3    H133716   1.216   4.835   1.725  0.7968 -0.5100  0.7375
 4027TIP3    H233717   1.212   4.954   1.632 -1.3167 -1.2145 -0.1455
 4028TIP3   OH233718   4.184   0.693   0.134 -0.1632 -0.6041 -0.4967
 4028TIP3    H133719   4.180   0.624   0.201  0.6395 -0.1898 -0.0168
 4028TIP3    H233720   4.232   0.653   0.062 -0.3939 -0.8065 -0.5425
 4029TIP3   OH233721   5.486   6.002   2.617  0.8965  0.4917  0.1924
 4029TIP3    H133722   5.439   5.920   2.634  2.2531 -0.3606  0.0091
 4029TIP3    H233723   5.453   6.063   2.682  0.0812 -0.2940  0.5339
 4030TIP3   OH233724   6.250   3.727   2.483 -0.3744 -0.3888 -0.6602
 4030TIP3    H133725   6.182   3.663   2.503 -0.5877 -0.3722 -1.2950
 4030TIP3    H233726   6.213   3.812   2.507  0.3928 -0.5858  1.4242
 4031TIP3   OH233727   4.237   6.365   0.251 -0.0088 -0.1979  0.2443
 4031TIP3    H133728   4.277   6.397   0.332 -1.4798 -0.0110  0.9310
 4031TIP3    H233729   4.164   6.424   0.236 -0.3867 -0.8792 -0.6500
 4032TIP3   OH233730   4.214   0.438   2.049 -0.0462  0.7162 -0.1296
 4032TIP3    H133731   4.270   0.371   2.008 -0.6286  0.1666 -0.0457
 4032TIP3    H233732   4.135   0.390   2.075 -0.0233  1.2210  0.9143
 4033TIP3   OH233733   5.482   2.492   1.755  0.5827 -0.2255  0.2796
 4033TIP3    H133734   5.442   2.568   1.797  1.0427  0.7937 -1.0519
 4033TIP3    H233735   5.495   2.519   1.664  2.6876 -1.1220  0.2513
 4034TIP3   OH233736   4.222   0.148   2.985  0.1116 -0.3182  0.0882
 4034TIP3    H133737   4.260   0.202   3.054 -1.0887  0.9468 -0.1841
 4034TIP3    H233738   4.260   0.181   2.904 -1.1757  0.6685 -0.1470
 4035TIP3   OH233739   0.495   4.164   8.664 -0.5380  0.2380 -0.0886
 4035TIP3    H133740   0.543   4.216   8.600 -0.3433 -0.6469 -0.6760
 4035TIP3    H233741   0.407   4.201   8.664 -0.3000  0.8157 -0.2093
 4036TIP3   OH233742   2.364   6.198   1.770  0.0133  0.4985 -0.3473
 4036TIP3    H133743   2.296   6.264   1.779 -0.1587  0.2805 -0.0398
 4036TIP3    H233744   2.442   6.248   1.744 -0.2411  0.7543 -0.6236
 4037TIP3   OH233745   2.532   4.425   1.076  0.5026 -0.1433  0.1727
 4037TIP3    H133746   2.536   4.416   0.981 -3.1993  1.5679 -0.3336
 4037TIP3    H233747   2.614   4.468   1.100  1.2088  0.0841 -2.3398
 4038TIP3   OH233748   1.644   1.232   9.351 -0.1665 -0.0945  0.3421
 4038TIP3    H133749   1.636   1.144   9.315 -2.8677  0.4360 -0.5600
 4038TIP3    H233750   1.611   1.290   9.282  1.3683  1.6481  0.9721
 4039TIP3   OH233751   1.728   2.582   0.831 -0.3187  0.0792 -0.0802
 4039TIP3    H133752   1.799   2.642   0.807 -0.4208 -0.0098 -0.6082
 4039TIP3    H233753   1.652   2.639   0.844 -0.1104  0.1930  0.6606
 4040TIP3   OH233754   5.456   1.079   0.078 -0.2655  0.0150 -0.2462
 4040TIP3    H133755   5.398   1.092   0.153  0.2612  0.8505  0.0349
 4040TIP3    H233756   5.522   1.148   0.087 -2.0289  2.3204 -3.2896
 4041TIP3   OH233757   2.586   3.376   1.813 -0.0659  0.2950  0.5339
 4041TIP3    H133758   2.542   3.420   1.886  1.3133  1.5435  0.6547
 4041TIP3    H233759   2.635   3.305   1.854 -2.3562 -1.5380  0.3309
 4042TIP3   OH233760   1.238   0.407   7.937  0.2637 -0.4192 -0.4576
 4042TIP3    H133761   1.305   0.466   7.902 -0.9226  0.4905 -1.3230
 4042TIP3    H233762   1.258   0.399   8.030  1.1072  0.4610 -0.5502
 4043TIP3   OH233763   4.054   2.848   2.269 -0.5718  0.2810 -0.2660
 4043TIP3    H133764   4.104   2.841   2.350 -0.9551 -1.2391 -0.1411
 4043TIP3    H233765   4.020   2.938   2.270 -2.4654 -0.3590  2.4123
 4044TIP3   OH233766   6.272   1.904   8.358 -0.2696  0.1716  0.1559
 4044TIP3    H133767   6.336   1.896   8.429  0.0050  0.0356 -0.1082
 4044TIP3    H233768   6.314   1.865   8.282 -1.1007 -0.9898  0.2497
 4045TIP3   OH233769   0.327   0.850   0.461  0.0511  0.2020  0.2980
 4045TIP3    H133770   0.287   0.764   0.447  0.6333 -0.1025  0.4714
 4045TIP3    H233771   0.412   0.831   0.500  0.6359  0.7964 -0.6290
 4046TIP3   OH233772   4.479   1.142   2.528  0.0533  0.5512  0.0583
 4046TIP3    H133773   4.539   1.211   2.499  1.3402 -0.3687  0.3981
 4046TIP3    H233774   4.444   1.175   2.611  0.9510  0.6572  0.4125
 4047TIP3   OH233775   2.198   0.019   1.802 -0.4817  0.0447  0.3287
 4047TIP3    H133776   2.216   0.075   1.727 -1.1948  1.3710  1.0982
 4047TIP3    H233777   2.192   0.080   1.876 -1.5037 -1.0200  1.1630
 4048TIP3   OH233778   3.439   2.286   9.926 -0.2366  0.0986  0.6930
 4048TIP3    H133779   3.492   2.275   9.848 -1.1838 -2.3602  0.2978
 4048TIP3    H233780   3.352   2.307   9.893 -0.7900 -1.5467  0.9652
 4049TIP3   OH233781   2.240   3.713   2.945 -0.4240 -0.2807 -0.1489
 4049TIP3    H133782   2.264   3.724   2.853 -1.7129 -2.3529 -0.8068
 4049TIP3    H233783   2.274   3.626   2.969 -1.6155 -0.5209  0.7731
 4050TIP3   OH233784   5.675   5.353   1.776 -0.2156  0.0057  0.0540
 4050TIP3    H133785   5.602   5.386   1.723 -0.8838  1.0915  1.5699
 4050TIP3    H233786   5.649   5.263   1.799  1.1305 -1.3774 -3.2328
 4051TIP3   OH233787   0.387   3.485   2.247  0.2408 -0.1755 -0.3391
 4051TIP3    H133788   0.344   3.441   2.320  2.0767  1.1352  1.6460
 4051TIP3    H233789   0.462   3.429   2.226  0.7376  0.3455  0.0175
 4052TIP3   OH233790   1.221   2.705   0.095 -0.6627 -0.5676  0.1032
 4052TIP3    H133791   1.194   2.782   0.145  0.2835  0.1689 -0.4714
 4052TIP3    H233792   1.291   2.666   0.148 -0.4671 -0.4562 -0.0682
 4053TIP3   OH233793   1.554   0.597   7.606  0.2170 -0.4210  0.0629
 4053TIP3    H133794   1.628   0.656   7.620  0.2165 -0.4983  0.4114
 4053TIP3    H233795   1.568   0.562   7.518  0.6359 -0.4901  0.1519
 4054TIP3   OH233796   2.037   4.292   7.821 -0.2080  0.2861 -0.2927
 4054TIP3    H133797   1.955   4.338   7.841 -0.2452  0.5205 -0.9697
 4054TIP3    H233798   2.066   4.329   7.738  0.5003  0.0816 -0.1436
 4055TIP3   OH233799   6.154   5.533   1.823  0.0692 -0.0207  0.8247
 4055TIP3    H133800   6.153   5.555   1.730  2.7517 -0.3968  0.6459
 4055TIP3    H233801   6.164   5.438   1.826 -0.3677 -0.0532  1.5098
 4056TIP3   OH233802   4.709   0.015   3.533 -0.3323  0.0034  0.0233
 4056TIP3    H133803   4.778   0.081   3.520 -0.7032  0.1246 -1.5240
 4056TIP3    H233804   4.627   0.066   3.529 -0.5613 -0.2910  0.7835
 4057TIP3   OH233805   5.261   2.668   9.537 -0.0709  0.0085  0.0941
 4057TIP3    H133806   5.264   2.573   9.527 -0.5014 -0.3265  2.5593
 4057TIP3    H233807   5.211   2.682   9.617  0.4846  2.3060  0.1057
 4058TIP3   OH233808   0.885   4.972   0.239  0.2821  0.3841 -0.5578
 4058TIP3    H133809   0.829   4.924   0.300 -0.1899 -0.3685 -1.5421
 4058TIP3    H233810   0.887   4.917   0.160  1.9798  0.6573 -0.7414
 4059TIP3   OH233811   4.571   2.222   3.361  0.4863  0.3768  0.1617
 4059TIP3    H133812   4.500   2.286   3.372 -0.7612 -1.0339  0.6186
 4059TIP3    H233813   4.639   2.270   3.314 -1.7725  1.0765 -2.6696
 4060TIP3   OH233814   2.274   4.677   8.190  0.1300 -0.3769  0.1468
 4060TIP3    H133815   2.248   4.755   8.239 -2.0479 -0.4305 -0.8188
 4060TIP3    H233816   2.355   4.649   8.232  0.1712  1.5259  1.4877
 4061TIP3   OH233817   0.632   5.761   8.516 -0.2378 -0.4953 -0.5304
 4061TIP3    H133818   0.563   5.794   8.458 -0.5802 -1.5386 -0.7391
 4061TIP3    H233819   0.588   5.746   8.599 -0.5936 -2.3686 -1.0154
 4062TIP3   OH233820   0.112   3.027   1.139  0.1716  0.1049 -0.0896
 4062TIP3    H133821   0.139   3.010   1.229  0.5842 -1.4119 -0.4729
 4062TIP3    H233822   0.131   2.946   1.092 -2.8715 -0.2652 -0.9027
 4063TIP3   OH233823   6.084   2.415   9.731 -0.0525  1.0571  0.3812
 4063TIP3    H133824   6.020   2.395   9.799 -0.3496 -0.0356 -0.1867
 4063TIP3    H233825   6.156   2.353   9.747  0.9540  2.3671  1.0981
 4064TIP3   OH233826   5.995   4.036   0.657  0.1993  0.1120  0.1823
 4064TIP3    H133827   5.917   4.015   0.708 -0.1574  0.5685 -0.1621
 4064TIP3    H233828   6.041   4.101   0.710 -0.8435  1.5955 -0.6315
 4065TIP3   OH233829   4.758   5.537   3.006  0.1545 -0.3184 -0.2066
 4065TIP3    H133830   4.822   5.607   2.995 -0.4376  0.1894 -0.5267
 4065TIP3    H233831   4.781   5.472   2.939  1.4858 -1.0526  0.9276
 4066TIP3   OH233832   2.210   3.158   1.576 -0.6286  0.4020 -0.0003
 4066TIP3    H133833   2.163   3.207   1.508  0.8669  1.1266 -0.5662
 4066TIP3    H233834   2.261   3.093   1.528  0.0700  0.6042  0.4477
 4067TIP3   OH233835   6.346   5.391   9.065  0.3010  0.1109 -0.4698
 4067TIP3    H133836   6.368   5.481   9.043 -1.8508  1.0595  0.9208
 4067TIP3    H233837   6.283   5.365   8.998 -0.2461  0.2043  0.0009
 4068TIP3   OH233838   5.133   3.086   2.719  0.7867 -0.5455 -0.1175
 4068TIP3    H133839   5.089   3.008   2.753  1.2915 -0.9896 -0.4714
 4068TIP3    H233840   5.127   3.078   2.624 -0.9899  0.9010 -0.1921
 4069TIP3   OH233841   0.019   3.567   9.878 -0.0258  0.2037 -0.1978
 4069TIP3    H133842  -0.063   3.608   9.850 -0.1968  0.6869  0.9588
 4069TIP3    H233843   0.075   3.572   9.801 -0.6150  1.1269 -0.5900
 4070TIP3   OH233844   1.642   0.845   2.510 -0.7146  0.0868 -0.2787
 4070TIP3    H133845   1.632   0.816   2.600 -0.0396  0.5247 -0.0511
 4070TIP3    H233846   1.554   0.840   2.473 -0.8803 -0.7279  0.2034
 4071TIP3   OH233847   5.171   0.460   9.114 -0.1686 -0.0431  0.4570
 4071TIP3    H133848   5.113   0.469   9.039  1.2824  1.6035 -0.5180
 4071TIP3    H233849   5.166   0.544   9.159 -0.1492 -0.6205  1.5916
 4072TIP3   OH233850   6.090   3.118   2.914  0.3624 -0.4634 -0.2451
 4072TIP3    H133851   6.023   3.119   2.845  0.0775  0.9205  0.0173
 4072TIP3    H233852   6.050   3.071   2.986  0.6298 -1.8534 -0.9734
 4073TIP3   OH233853   3.836   2.150   9.423  0.8492 -0.0279 -0.1956
 4073TIP3    H133854   3.760   2.104   9.459  1.6826 -0.1521  1.5030
 4073TIP3    H233855   3.886   2.082   9.378 -0.3693  0.1883 -1.9744
 4074TIP3   OH233856   0.082   0.643   9.129 -0.0510 -0.4095 -0.1534
 4074TIP3    H133857  -0.001   0.688   9.115 -0.4126 -1.0332 -0.0665
 4074TIP3    H233858   0.147   0.698   9.085 -0.0733  1.5231  2.0764
 4075TIP3   OH233859   5.530   2.296   3.524  0.1023 -0.9437  0.1137
 4075TIP3    H133860   5.435   2.302   3.533  0.1302 -0.2845  0.0405
 4075TIP3    H233861   5.563   2.311   3.613  0.2247  1.5476 -0.2803
 4076TIP3   OH233862   3.740   1.468   0.470 -0.6688  0.0820 -0.1691
 4076TIP3    H133863   3.668   1.405   0.464 -1.5443  1.0612 -0.1573
 4076TIP3    H233864   3.698   1.554   0.470  0.4188  0.6586  0.9774
 4077TIP3   OH233865   2.892   4.743   2.228 -0.0941 -0.6413 -0.1531
 4077TIP3    H133866   2.970   4.781   2.186 -1.4739  0.0870 -2.2258
 4077TIP3    H233867   2.846   4.818   2.265 -0.6453 -0.8396 -0.4269
 4078TIP3   OH233868   3.200   5.945   1.674 -0.4024 -0.2050 -0.3380
 4078TIP3    H133869   3.180   6.017   1.614 -1.4181 -0.6901 -0.6034
 4078TIP3    H233870   3.270   5.896   1.630 -0.7303 -0.2164 -0.8615
 4079TIP3   OH233871   3.452   3.862   3.564  0.0958 -0.4663  0.0108
 4079TIP3    H133872   3.405   3.902   3.637  0.9067  0.7662 -0.1307
 4079TIP3    H233873   3.542   3.854   3.594  0.3045 -0.5305 -0.6186
 4080TIP3   OH233874   0.455   0.500   1.516 -0.5624  0.1192  0.0974
 4080TIP3    H133875   0.433   0.508   1.423 -0.9660 -0.5568  0.1252
 4080TIP3    H233876   0.523   0.566   1.530 -0.9067  0.6355 -0.5417
 4081TIP3   OH233877   0.717   0.265   1.189 -0.3107 -0.1923 -0.2721
 4081TIP3    H133878   0.777   0.219   1.247 -1.5315 -0.3962  0.8911
 4081TIP3    H233879   0.709   0.353   1.227 -0.3926 -0.0188 -0.6852
 4082TIP3   OH233880   5.885   1.319   9.109  0.0810  0.0984  0.2978
 4082TIP3    H133881   5.861   1.239   9.062  1.3639  0.0408 -0.3243
 4082TIP3    H233882   5.931   1.287   9.187  0.0774  0.2208  0.3496
 4083TIP3   OH233883   3.153   2.894   9.481  0.4841 -0.0560  0.4017
 4083TIP3    H133884   3.234   2.862   9.441  0.2011 -0.9113  0.4884
 4083TIP3    H233885   3.090   2.894   9.409  0.8022  1.6069  0.0858
 4084TIP3   OH233886   1.631   2.600   3.052  0.2116  0.1130 -0.4996
 4084TIP3    H133887   1.553   2.585   2.999  0.0486 -2.4319  0.3423
 4084TIP3    H233888   1.704   2.588   2.991 -0.0040 -1.4525 -0.4857
 4085TIP3   OH233889   4.418   5.312   2.198 -0.5687 -0.9189  0.2092
 4085TIP3    H133890   4.352   5.260   2.153 -0.6901  1.0489 -2.1311
 4085TIP3    H233891   4.499   5.260   2.193 -1.7798 -3.4324  3.2572
 4086TIP3   OH233892   4.016   3.889   1.258  0.6886  0.7787 -0.1278
 4086TIP3    H133893   3.995   3.884   1.351 -1.4807 -1.7716 -0.6271
 4086TIP3    H233894   3.966   3.963   1.226 -0.2774  0.3525  0.3654
 4087TIP3   OH233895   0.671   2.667   1.223  0.0904  0.4983  0.2471
 4087TIP3    H133896   0.752   2.705   1.257 -1.1016  1.8315  1.7322
 4087TIP3    H233897   0.625   2.634   1.300 -1.3333  0.8648 -0.4065
 4088TIP3   OH233898   2.073   5.496   7.746  0.4395 -0.2220 -0.3193
 4088TIP3    H133899   2.167   5.498   7.727  0.8270  0.4517  1.4704
 4088TIP3    H233900   2.054   5.585   7.776  0.1777 -1.3540  3.3535
 4089TIP3   OH233901   6.084   1.271   9.295 -0.4902  0.1028  0.1771
 4089TIP3    H133902   6.080   1.221   9.377  0.0519 -0.4240 -0.1183
 4089TIP3    H233903   6.143   1.222   9.239 -1.6219 -0.0645 -0.9051
 4090TIP3   OH233904   1.978   4.885   2.332 -0.0769 -0.6582 -0.3919
 4090TIP3    H133905   2.044   4.906   2.398 -2.1778  1.9092  1.0926
 4090TIP3    H233906   2.024   4.893   2.249  1.1883  2.8657  0.4805
 4091TIP3   OH233907   2.283   4.001   9.907 -0.3619  0.2111 -0.3301
 4091TIP3    H133908   2.223   3.935   9.871  0.2239  0.6218 -2.1699
 4091TIP3    H233909   2.251   4.084   9.873 -2.2327  1.2824  3.4604
 4092TIP3   OH233910   4.904   2.330   9.679 -0.4763  0.0747  0.1367
 4092TIP3    H133911   4.813   2.306   9.698 -0.8030 -0.4341 -1.8942
 4092TIP3    H233912   4.904   2.426   9.680 -0.5211  0.1103  2.2096
 4093TIP3   OH233913   3.997   0.623   1.847 -0.3119  0.3370  0.5477
 4093TIP3    H133914   4.018   0.716   1.840 -1.2439  0.7741  2.7064
 4093TIP3    H233915   4.082   0.579   1.841 -0.0541  1.0607 -2.8137
 4094TIP3   OH233916   5.763   4.485   1.784  0.2607  0.2721 -0.0225
 4094TIP3    H133917   5.702   4.529   1.724  1.4464  1.8468 -0.1505
 4094TIP3    H233918   5.822   4.435   1.726  0.1534  0.1447 -0.0218
 4095TIP3   OH233919   0.879   4.301   9.525  0.2715 -0.0794  0.2654
 4095TIP3    H133920   0.792   4.267   9.546 -0.9121  2.3704 -0.2852
 4095TIP3    H233921   0.863   4.369   9.460  2.5721  0.6497  0.3788
 4096TIP3   OH233922   1.831   2.630   1.518  0.6224 -0.1574  0.1280
 4096TIP3    H133923   1.795   2.555   1.565 -3.3346  1.7014  0.4805
 4096TIP3    H233924   1.814   2.612   1.426  3.5827 -1.4392 -0.2776
 4097TIP3   OH233925   3.232   2.891   0.643 -0.1120 -0.1822 -0.0312
 4097TIP3    H133926   3.321   2.871   0.669  0.0218  0.0378 -0.3166
 4097TIP3    H233927   3.224   2.986   0.652 -0.1399 -0.1310 -0.5352
 4098TIP3   OH233928   3.101   5.411   9.097  0.1559  0.4443  1.0946
 4098TIP3    H133929   3.096   5.505   9.117 -0.6661  0.6348  0.0568
 4098TIP3    H233930   3.046   5.370   9.164 -0.2409  0.7971  0.9883
 4099TIP3   OH233931   3.456   2.706   8.644 -0.3762  0.0911 -0.0987
 4099TIP3    H133932   3.447   2.747   8.731  0.8500 -0.1882  0.1843
 4099TIP3    H233933   3.546   2.726   8.618 -0.2131 -1.2063 -0.5862
 4100TIP3   OH233934   3.707   2.841   1.779  0.5917  0.3799  0.2650
 4100TIP3    H133935   3.741   2.832   1.868  0.3175 -0.9614  0.2600
 4100TIP3    H233936   3.769   2.898   1.734  1.4260  0.0373  0.9722
 4101TIP3   OH233937   0.329   2.690   8.965 -0.1441  0.4045  0.2171
 4101TIP3    H133938   0.306   2.778   8.996 -0.1862  0.4199  0.1402
 4101TIP3    H233939   0.419   2.699   8.933 -0.5149  0.6629 -0.7784
 4102TIP3   OH233940   3.188   3.873   1.387  0.7491  0.1899  0.4990
 4102TIP3    H133941   3.217   3.784   1.366  0.9161  0.1572  0.8599
 4102TIP3    H233942   3.247   3.930   1.336  0.7765  0.1013  0.4312
 4103TIP3   OH233943   4.049   3.846   1.539 -0.4258 -0.3914 -0.6988
 4103TIP3    H133944   4.055   3.769   1.597 -0.1366 -0.1824 -0.4468
 4103TIP3    H233945   3.955   3.866   1.536 -0.4158 -0.1831  0.0005
 4104TIP3   OH233946   4.617   2.101   0.010 -0.0873 -0.4102 -0.6210
 4104TIP3    H133947   4.526   2.122  -0.011  0.0424 -0.4823 -1.2530
 4104TIP3    H233948   4.611   2.026   0.070 -0.4013 -1.7786 -2.2829
 4105TIP3   OH233949   4.932   6.201   1.994  0.2650  0.6145  0.0363
 4105TIP3    H133950   4.966   6.151   2.068 -1.0160  2.2529  1.8474
 4105TIP3    H233951   4.944   6.292   2.019 -0.0014  1.2308 -1.9085
 4106TIP3   OH233952   3.907   5.090   2.759  0.0604  0.2702  0.0062
 4106TIP3    H133953   3.931   5.161   2.819 -3.2716  1.2606  0.4152
 4106TIP3    H233954   3.860   5.133   2.688  0.6614 -1.2755 -1.3913
 4107TIP3   OH233955   1.564   1.372   8.745 -0.0333 -0.1066  0.1067
 4107TIP3    H133956   1.626   1.407   8.682  1.1576 -0.5946  0.9566
 4107TIP3    H233957   1.557   1.279   8.722  0.0805 -0.1932  0.4066
 4108TIP3   OH233958   4.406   2.200   9.123 -0.2015 -0.0146  0.6516
 4108TIP3    H133959   4.429   2.280   9.076 -2.9959  0.3923 -0.2031
 4108TIP3    H233960   4.417   2.130   9.058  0.6032 -0.1105  0.8853
 4109TIP3   OH233961   2.382   3.385   1.354 -0.1988  0.3670 -0.2687
 4109TIP3    H133962   2.393   3.377   1.449  0.2392  0.1804 -0.3322
 4109TIP3    H233963   2.471   3.373   1.319 -0.4896 -0.4709 -0.7544
 4110TIP3   OH233964   1.532   5.606   2.260  0.1941  0.1314  0.2367
 4110TIP3    H133965   1.539   5.560   2.344 -0.7571  1.2309  0.9583
 4110TIP3    H233966   1.617   5.591   2.217  0.5936 -0.6857  1.2651
 4111TIP3   OH233967   5.208   5.507   2.687  0.4987  0.1484  0.1802
 4111TIP3    H133968   5.240   5.531   2.774 -0.0582 -1.9280  1.0375
 4111TIP3    H233969   5.148   5.577   2.663  1.4339  1.2653  1.0094
 4112TIP3   OH233970   2.044   4.663   2.550  0.0793 -0.2551 -0.0446
 4112TIP3    H133971   2.118   4.723   2.561 -0.3427  0.0640  1.2535
 4112TIP3    H233972   2.010   4.684   2.463  0.8657  0.3229 -0.2338
 4113TIP3   OH233973   1.186   0.519   8.395 -0.4667 -0.5819 -0.2608
 4113TIP3    H133974   1.139   0.601   8.410  0.4510 -0.2232  0.7943
 4113TIP3    H233975   1.255   0.518   8.461 -0.1358 -1.9699 -0.5819
 4114TIP3   OH233976   5.127   5.551   9.738 -0.0626  0.2744  0.1656
 4114TIP3    H133977   5.222   5.564   9.736  0.3253 -1.5459  2.5085
 4114TIP3    H233978   5.106   5.515   9.652  1.5107 -0.0381 -0.1106
 4115TIP3   OH233979   4.890   3.298   1.480 -0.3754  0.1867 -0.0923
 4115TIP3    H133980   4.886   3.355   1.403 -0.7513  0.9957  0.5115
 4115TIP3    H233981   4.914   3.357   1.552 -0.6563 -0.4376  0.5260
 4116TIP3   OH233982   1.956   2.422   1.781 -0.6065  0.6324  0.6054
 4116TIP3    H133983   1.976   2.360   1.851 -0.8087  1.2748  1.2452
 4116TIP3    H233984   1.909   2.370   1.715  1.6364 -0.5219 -0.1710
 4117TIP3   OH233985   2.378   1.168   0.363 -0.0663 -0.4194  0.3874
 4117TIP3    H133986   2.422   1.084   0.358  0.0800 -0.2637 -1.8415
 4117TIP3    H233987   2.443   1.232   0.333 -0.7433  0.2393  0.2727
 4118TIP3   OH233988   0.057   6.415   1.100  0.1219 -0.3243  0.0774
 4118TIP3    H133989   0.027   6.486   1.044 -0.6781 -0.7216 -0.0128
 4118TIP3    H233990   0.100   6.354   1.039  3.0740  1.1817  0.4409
 4119TIP3   OH233991   3.633   1.416   8.618 -0.2249 -0.1003  0.7090
 4119TIP3    H133992   3.668   1.497   8.655  0.4820  0.2711 -0.6723
 4119TIP3    H233993   3.549   1.441   8.580  0.7849  0.4841 -1.3182
 4120TIP3   OH233994   3.189   3.819   2.309  0.2798 -0.2473  0.2136
 4120TIP3    H133995   3.143   3.745   2.347  0.3420  1.2931  3.6535
 4120TIP3    H233996   3.120   3.884   2.292  0.3494 -0.6446 -1.7884
 4121TIP3   OH233997   6.157   5.843   2.207  0.1679 -0.0349  0.1320
 4121TIP3    H133998   6.195   5.796   2.133 -1.6887 -0.0434 -0.8560
 4121TIP3    H233999   6.226   5.902   2.236  1.8782 -1.9255  0.1535
 4122TIP3   OH234000   1.681   3.143   2.293  0.0339  0.2349 -0.8743
 4122TIP3    H134001   1.750   3.145   2.359 -0.8028 -3.3010  0.3404
 4122TIP3    H234002   1.707   3.074   2.232 -2.3983 -1.3289 -0.2898
 4123TIP3   OH234003   3.382   2.876   3.006 -0.5348 -0.2982  0.0227
 4123TIP3    H134004   3.294   2.880   3.044 -0.5557  0.0739 -0.0670
 4123TIP3    H234005   3.384   2.793   2.958 -0.1953 -1.2670  1.6189
 4124TIP3   OH234006   0.743   2.913   2.239  0.3084 -0.1623  0.4812
 4124TIP3    H134007   0.651   2.908   2.265  0.5899 -1.4182  1.3280
 4124TIP3    H234008   0.784   2.841   2.285  1.0707 -1.9032 -2.6794
 4125TIP3   OH234009   1.547   5.875   7.125  0.5903  0.2551  0.0205
 4125TIP3    H134010   1.538   5.951   7.067  0.8394 -1.3123 -2.2129
 4125TIP3    H234011   1.639   5.850   7.117  0.6303  0.0079  1.1383
 4126TIP3   OH234012   5.850   5.847   0.631  0.5516 -0.0745 -0.3215
 4126TIP3    H134013   5.847   5.888   0.718  0.6490  1.3378 -0.9694
 4126TIP3    H234014   5.920   5.893   0.585 -0.3448  0.0820 -1.5838
 4127TIP3   OH234015   3.264   0.807   8.448  0.8942 -0.1357 -0.0173
 4127TIP3    H134016   3.350   0.769   8.435  0.2822 -1.1227 -1.4477
 4127TIP3    H234017   3.203   0.735   8.431 -0.2266  0.8172 -0.1640
 4128TIP3   OH234018   1.838   0.435   0.290 -1.0948 -0.0444  0.3901
 4128TIP3    H134019   1.821   0.382   0.367 -0.6501 -1.1035 -0.2144
 4128TIP3    H234020   1.847   0.372   0.219 -0.0914  0.8064 -0.2757
 4129TIP3   OH234021   3.237   1.025   8.252 -0.2598 -0.0579 -0.2975
 4129TIP3    H134022   3.208   0.934   8.238  0.6012 -0.4885  0.6134
 4129TIP3    H234023   3.235   1.037   8.347  0.7819  0.4874 -0.3328
 4130TIP3   OH234024   6.246   0.791   7.899  0.2939  0.4679  0.2829
 4130TIP3    H134025   6.295   0.826   7.825  0.6990 -0.4793  0.0840
 4130TIP3    H234026   6.244   0.863   7.962  1.8668  0.5734  0.2617
 4131TIP3   OH234027   1.674   2.797   8.447 -0.7760  0.2733  0.4131
 4131TIP3    H134028   1.735   2.834   8.383 -0.9384  1.0988  0.7364
 4131TIP3    H234029   1.627   2.729   8.398  0.6958 -0.6873  0.2717
 4132TIP3   OH234030   2.473   1.322   8.289 -0.3113 -0.4093  0.1679
 4132TIP3    H134031   2.386   1.295   8.259 -1.7625  2.8783  0.9713
 4132TIP3    H234032   2.503   1.384   8.223  0.6826 -0.2571  0.7407
 4133TIP3   OH234033   4.901   4.267   2.803 -0.3111 -0.2712  0.4610
 4133TIP3    H134034   4.920   4.323   2.728 -0.5276  0.2829  0.8117
 4133TIP3    H234035   4.806   4.262   2.806 -0.3248  0.1953  1.0412
 4134TIP3   OH234036   3.216   1.378   2.409 -0.1254  0.0526 -0.0846
 4134TIP3    H134037   3.167   1.325   2.347 -1.1149  0.5335  0.2670
 4134TIP3    H234038   3.193   1.342   2.495  1.1981 -0.5814  0.0403
 4135TIP3   OH234039   6.100   3.772   0.862 -0.1472  0.3286  0.6447
 4135TIP3    H134040   6.063   3.766   0.950 -0.0529 -0.2383  0.6523
 4135TIP3    H234041   6.195   3.762   0.876 -0.2798 -1.9984  0.3003
 4136TIP3   OH234042   1.935   4.033   2.123  0.1219 -0.1830 -0.6087
 4136TIP3    H134043   1.849   4.075   2.120 -0.4757 -1.3770 -0.8209
 4136TIP3    H234044   1.991   4.096   2.168 -0.8873  0.5772 -0.3805
 4137TIP3   OH234045   3.484   2.889   1.470  0.1436  0.3463  0.0930
 4137TIP3    H134046   3.444   2.938   1.542  1.9387  2.3510 -0.1651
 4137TIP3    H234047   3.520   2.810   1.512  1.7221  1.7709  1.5845
 4138TIP3   OH234048   0.393   4.616   1.534  0.3855  0.0556  0.4937
 4138TIP3    H134049   0.407   4.565   1.614  0.7160  0.1703  0.5086
 4138TIP3    H234050   0.430   4.702   1.553  0.8535 -0.0476  0.0702
 4139TIP3   OH234051   0.223   5.348   8.663  0.8015 -0.6268 -0.0450
 4139TIP3    H134052   0.250   5.290   8.592 -0.3979  0.3883 -1.3823
 4139TIP3    H234053   0.254   5.435   8.636 -0.5339 -0.0587  0.1702
 4140TIP3   OH234054   1.443   3.572   9.909  0.1231  0.6108  0.0131
 4140TIP3    H134055   1.448   3.584  10.004  1.9219 -1.4347  0.2465
 4140TIP3    H234056   1.454   3.478   9.896 -2.6189  0.4576 -2.1374
 4141TIP3   OH234057   1.539   4.748   1.919  0.1446 -0.5925 -0.0989
 4141TIP3    H134058   1.606   4.815   1.935 -1.1936  0.7469  0.1308
 4141TIP3    H234059   1.566   4.706   1.838  1.3125 -0.1455  0.0344
 4142TIP3   OH234060   4.697   0.441   2.091  0.0246  0.3999  0.1486
 4142TIP3    H134061   4.674   0.387   2.167 -1.6771  2.5539  1.2864
 4142TIP3    H234062   4.766   0.499   2.124 -1.7705  2.3855  0.6426
 4143TIP3   OH234063   2.449   1.449   0.294  0.0062  0.2185 -0.1067
 4143TIP3    H134064   2.364   1.489   0.313 -0.4883  0.1089 -1.8869
 4143TIP3    H234065   2.477   1.488   0.212  1.7177  0.2582  0.4534
 4144TIP3   OH234066   1.599   1.901   2.815  0.2269  0.0688 -0.3431
 4144TIP3    H134067   1.668   1.965   2.833  0.4910 -0.1989 -0.3892
 4144TIP3    H234068   1.595   1.896   2.720 -0.9347  1.2337 -0.3860
 4145TIP3   OH234069   6.272   0.590   2.195 -0.8149 -0.5955  0.2945
 4145TIP3    H134070   6.355   0.638   2.190 -0.3870 -1.0948  1.9769
 4145TIP3    H234071   6.282   0.519   2.133  0.1740 -0.8490  0.7190
 4146TIP3   OH234072   5.812   0.048   1.046  0.1333 -0.2963 -0.2085
 4146TIP3    H134073   5.756  -0.028   1.064  0.2241 -0.1388  0.8324
 4146TIP3    H234074   5.751   0.119   1.025 -0.0809 -0.1344  0.8870
 4147TIP3   OH234075   0.023   1.589   8.682 -0.3721 -0.2906 -0.2282
 4147TIP3    H134076   0.067   1.511   8.715 -0.7304 -0.6906 -0.6792
 4147TIP3    H234077   0.056   1.599   8.592 -0.1211  0.2389 -0.0818
 4148TIP3   OH234078   0.167   3.243   9.038  0.3550 -0.5689  0.1159
 4148TIP3    H134079   0.181   3.334   9.014 -0.0728 -0.5342 -0.0007
 4148TIP3    H234080   0.217   3.232   9.119  0.2978 -0.1949  0.2049
 4149TIP3   OH234081   1.996   0.436   8.821  0.1903  0.1414 -1.2826
 4149TIP3    H134082   1.905   0.452   8.848  0.1585 -0.7417 -0.8243
 4149TIP3    H234083   2.048   0.486   8.884  0.0848 -1.2114 -0.0703
 4150TIP3   OH234084   4.852   4.755   8.430 -0.1375  0.2440  0.4350
 4150TIP3    H134085   4.927   4.809   8.405 -0.1356 -0.5344 -1.3995
 4150TIP3    H234086   4.832   4.703   8.351 -1.0916 -1.3140  1.6375
 4151TIP3   OH234087   5.069   3.949   2.989  0.8398 -0.2268  0.0505
 4151TIP3    H134088   5.001   3.989   3.044 -0.1252 -0.0348 -1.2455
 4151TIP3    H234089   5.149   3.960   3.040  0.0850  0.5168  1.1383
 4152TIP3   OH234090   4.070   3.530   1.543 -0.1118 -0.0114 -0.1850
 4152TIP3    H134091   3.998   3.480   1.583  0.7101 -1.8996 -0.9284
 4152TIP3    H234092   4.026   3.588   1.481 -1.0849 -0.1490  0.3467
 4153TIP3   OH234093   2.701   0.007   0.037  0.0941  0.0000  0.0051
 4153TIP3    H134094   2.687  -0.052  -0.037  0.2173 -0.9055  0.6800
 4153TIP3    H234095   2.665   0.091   0.009 -1.2289 -0.7162 -0.5228
 4154TIP3   OH234096   4.278   2.500   9.079 -0.4512  0.4396  0.8253
 4154TIP3    H134097   4.261   2.591   9.055  0.2302  0.3834  0.0720
 4154TIP3    H234098   4.367   2.484   9.048  0.0212 -0.0195  2.3599
 4155TIP3   OH234099   3.911   5.869   1.662  0.7697  0.3012  0.4459
 4155TIP3    H134100   3.954   5.794   1.620 -1.1506 -0.7574  0.2652
 4155TIP3    H234101   3.912   5.848   1.755 -2.4851 -1.6096  0.2154
 4156TIP3   OH234102   4.957   2.476   2.384 -0.0860  0.0929  0.3465
 4156TIP3    H134103   4.878   2.463   2.332  1.2757 -0.7368 -1.6781
 4156TIP3    H234104   4.972   2.392   2.427 -0.1400  0.1558  0.4890
 4157TIP3   OH234105   2.885   2.574   0.069  0.3035 -0.1611 -0.0710
 4157TIP3    H134106   2.920   2.643   0.012 -0.9156 -0.3018 -1.0211
 4157TIP3    H234107   2.953   2.562   0.136  0.6032  1.8916  0.0747
 4158TIP3   OH234108   1.054   4.316   8.815  0.3660  0.2312  0.3009
 4158TIP3    H134109   1.148   4.305   8.796  0.1933  0.3476 -0.6774
 4158TIP3    H234110   1.029   4.393   8.764 -0.2683  0.1751  0.5320
 4159TIP3   OH234111   5.473   6.190   0.663 -0.7193 -0.0964 -0.1086
 4159TIP3    H134112   5.511   6.237   0.737 -1.1583 -0.8010  0.5800
 4159TIP3    H234113   5.464   6.099   0.693 -2.7670 -0.0138 -0.2682
 4160TIP3   OH234114   3.978   4.236   9.919  0.2956  0.3002  0.3924
 4160TIP3    H134115   3.919   4.285   9.977 -1.6135 -0.8365 -0.4917
 4160TIP3    H234116   3.920   4.193   9.856  2.2367  0.8283 -1.9072
 4161TIP3   OH234117   3.616   1.181   2.121  0.1519 -0.1953  0.0173
 4161TIP3    H134118   3.710   1.199   2.120  0.2326 -0.5854 -0.9090
 4161TIP3    H234119   3.583   1.224   2.200  0.8012  1.5054 -0.6046
 4162TIP3   OH234120   4.577   0.520   0.468  0.8304  0.5230  0.6001
 4162TIP3    H134121   4.650   0.549   0.414  0.8590  1.0933  0.9310
 4162TIP3    H234122   4.515   0.481   0.407  1.7315 -0.6466  0.3986
 4163TIP3   OH234123   5.913   3.068   8.395 -0.3506 -0.0567 -0.2365
 4163TIP3    H134124   5.898   3.032   8.307 -0.5772 -0.8097  0.1002
 4163TIP3    H234125   5.953   3.154   8.379 -0.8446  0.0303 -1.0811
 4164TIP3   OH234126   6.394   4.617   2.845  0.5702 -0.3983  0.0010
 4164TIP3    H134127   6.456   4.566   2.792  1.0687  1.3897 -1.2432
 4164TIP3    H234128   6.397   4.576   2.931  1.2556 -2.1808 -0.8130
 4165TIP3   OH234129   3.488   3.768   0.047  0.0769 -0.7118  0.1132
 4165TIP3    H134130   3.500   3.861   0.027  2.2137 -1.2603 -1.5311
 4165TIP3    H234131   3.442   3.733  -0.030  2.5875 -1.6515 -1.0465
 4166TIP3   OH234132   4.284   2.601   8.542  0.3724 -0.3782  0.7048
 4166TIP3    H134133   4.221   2.662   8.579 -0.4837  0.6437 -2.1715
 4166TIP3    H234134   4.243   2.515   8.553  0.5440 -0.2444  2.7451
 4167TIP3   OH234135   0.121   4.007   3.243  0.3186 -0.3928  0.4882
 4167TIP3    H134136   0.045   3.958   3.275  1.1671 -0.7100  2.1779
 4167TIP3    H234137   0.092   4.098   3.241  0.0511 -0.4267  1.7557
 4168TIP3   OH234138   2.042   0.828   9.998 -0.1373 -0.5919  0.1688
 4168TIP3    H134139   2.097   0.799  10.071 -0.1504 -0.9709  0.0291
 4168TIP3    H234140   2.087   0.797   9.920  0.1039  0.1858 -0.0157
 4169TIP3   OH234141   3.512   0.953   0.611  0.1093  0.3749  0.3376
 4169TIP3    H134142   3.428   0.970   0.654 -0.9176 -0.8675 -1.0771
 4169TIP3    H234143   3.577   0.974   0.677 -1.3678 -1.8366  2.6635
 4170TIP3   OH234144   6.054   5.074   0.648  0.4518  0.2436  0.0023
 4170TIP3    H134145   6.101   5.156   0.632  2.9646 -1.0250  0.3517
 4170TIP3    H234146   6.036   5.039   0.561 -1.4856  1.5315 -0.1799
 4171TIP3   OH234147   1.123   2.332   7.937 -0.3265  0.1557 -0.0718
 4171TIP3    H134148   1.028   2.325   7.949 -0.4413  0.7490 -0.5911
 4171TIP3    H234149   1.133   2.377   7.853  0.4152 -1.0675 -0.6706
 4172TIP3   OH234150   1.440   2.480   0.194 -0.5488  0.6231 -0.5679
 4172TIP3    H134151   1.423   2.393   0.230 -1.3079  0.3247 -1.6094
 4172TIP3    H234152   1.424   2.540   0.267 -0.4429 -0.0691  0.0369
 4173TIP3   OH234153   3.467   1.481   0.164  0.2715 -0.3293 -0.9843
 4173TIP3    H134154   3.395   1.433   0.205  1.3851 -1.9118 -0.7994
 4173TIP3    H234155   3.545   1.428   0.182  1.7539  2.0374  0.1075
 4174TIP3   OH234156   1.103   2.269   1.524  0.0716  0.5575  0.1159
 4174TIP3    H134157   1.020   2.297   1.486  0.0230  1.5460  0.9111
 4174TIP3    H234158   1.085   2.260   1.618  1.1906  2.2569  0.5509
 4175TIP3   OH234159   4.660   1.378   2.848  0.1634  0.1968 -0.1534
 4175TIP3    H134160   4.570   1.347   2.843 -0.0149  0.8042 -0.7211
 4175TIP3    H234161   4.713   1.298   2.837 -0.2884 -0.2994  1.0934
 4176TIP3   OH234162   2.908   3.972   3.298  0.2510  0.4678 -0.7289
 4176TIP3    H134163   2.960   3.892   3.297  0.3866  0.5509 -1.5786
 4176TIP3    H234164   2.897   3.993   3.390 -0.0445 -0.6941 -0.4892
 4177TIP3   OH234165   1.293   2.684   3.218 -0.0592 -0.1214  0.2920
 4177TIP3    H134166   1.335   2.628   3.283 -1.4886 -0.0850  1.2892
 4177TIP3    H234167   1.251   2.753   3.270  0.2094  0.8893 -0.7970
 4178TIP3   OH234168   3.346   6.365   0.634 -0.3995 -0.2196  0.3248
 4178TIP3    H134169   3.433   6.330   0.649 -1.0141 -1.5720  0.9120
 4178TIP3    H234170   3.329   6.349   0.541 -0.0324  0.0178  0.2175
 4179TIP3   OH234171   6.086   1.113   8.636 -0.3266 -0.4332  0.5723
 4179TIP3    H134172   6.040   1.169   8.573  0.3543  1.7619  1.9032
 4179TIP3    H234173   6.154   1.070   8.584 -1.3649 -0.6479 -0.6578
 4180TIP3   OH234174   4.147   5.646   0.316 -0.3590  0.2269 -0.7905
 4180TIP3    H134175   4.165   5.689   0.233  1.6242  0.6183 -0.2284
 4180TIP3    H234176   4.145   5.717   0.380  0.8867 -0.2808 -0.1471
 4181TIP3   OH234177   2.247   2.179   1.103 -0.2006 -0.0897  0.5701
 4181TIP3    H134178   2.342   2.184   1.109 -0.2622 -0.5083  2.4315
 4181TIP3    H234179   2.223   2.251   1.044  1.3133 -0.5541 -0.6721
 4182TIP3   OH234180   5.528   0.471   1.826 -0.0181  0.1048 -0.2523
 4182TIP3    H134181   5.451   0.455   1.881  0.2881  0.8746  0.4372
 4182TIP3    H234182   5.599   0.424   1.870 -0.1019 -0.6688 -0.9303
 4183TIP3   OH234183   3.605   6.379   9.552 -0.1370 -0.2716  0.1458
 4183TIP3    H134184   3.673   6.320   9.519  0.9796  1.7129 -1.3038
 4183TIP3    H234185   3.539   6.320   9.589  0.6891 -2.4452 -1.5796
 4184TIP3   OH234186   1.686   4.433   2.038  0.3396 -0.5001  0.7686
 4184TIP3    H134187   1.779   4.454   2.037  0.3345 -0.3363  2.1228
 4184TIP3    H234188   1.644   4.509   2.078 -0.3286 -0.7511  0.5711
 4185TIP3   OH234189   1.596   5.521   0.687 -0.2273  0.2937 -0.6766
 4185TIP3    H134190   1.671   5.575   0.712  0.5345 -0.9049 -0.2781
 4185TIP3    H234191   1.574   5.472   0.766 -0.9745  0.1052 -0.9951
 4186TIP3   OH234192   1.010   4.836   9.347 -0.1859  0.0954 -0.0808
 4186TIP3    H134193   0.930   4.873   9.311  0.6360  0.7230 -1.3651
 4186TIP3    H234194   1.080   4.884   9.303  0.9170 -1.7037 -0.3831
 4187TIP3   OH234195   5.177   5.961   2.874  0.3457  0.9819 -0.2032
 4187TIP3    H134196   5.094   5.913   2.871  1.0017 -0.3341  1.0832
 4187TIP3    H234197   5.151   6.053   2.886 -0.9183  0.7342 -0.8094
 4188TIP3   OH234198   5.320   0.631   1.621 -0.7956  0.1406 -0.3837
 4188TIP3    H134199   5.365   0.549   1.643  0.3820  1.1610  1.2028
 4188TIP3    H234200   5.243   0.631   1.678  0.0427  0.8274  0.8027
 4189TIP3   OH234201   3.760   4.906   3.219 -0.8797 -0.6906  0.2674
 4189TIP3    H134202   3.733   4.850   3.147  1.3211 -1.7256  0.1857
 4189TIP3    H234203   3.786   4.846   3.289  1.8556  0.1276  0.0574
 4190TIP3   OH234204   4.504   2.448   9.966  0.4371 -0.2409  0.2841
 4190TIP3    H134205   4.526   2.534  10.000 -0.4911  0.4501 -0.7859
 4190TIP3    H234206   4.479   2.397  10.043 -0.5403  0.9425  0.7859
 4191TIP3   OH234207   4.466   1.591   0.525  0.2478  0.7935  0.4509
 4191TIP3    H134208   4.551   1.615   0.489  0.5389 -1.5908 -0.6371
 4191TIP3    H234209   4.456   1.498   0.505 -1.8909  0.5854  2.0415
 4192TIP3   OH234210   5.288   3.749   2.836  0.9577  0.1253 -0.1479
 4192TIP3    H134211   5.332   3.795   2.765 -2.4404  2.9429 -0.7503
 4192TIP3    H234212   5.215   3.703   2.794  0.8957 -1.0328  1.1528
 4193TIP3   OH234213   3.257   0.269   9.571 -0.2172 -0.0754 -0.6151
 4193TIP3    H134214   3.248   0.245   9.663  0.2179  0.6335 -0.3857
 4193TIP3    H234215   3.167   0.274   9.539 -0.3492 -1.3749 -0.5108
 4194TIP3   OH234216   6.285   0.373   1.255  0.1568  0.3972 -0.0080
 4194TIP3    H134217   6.334   0.293   1.272  0.3753  0.0917 -1.8742
 4194TIP3    H234218   6.241   0.357   1.172  0.0730  2.1562 -0.3366
 4195TIP3   OH234219   4.454   3.871   1.738 -0.5949  0.0844 -0.0233
 4195TIP3    H134220   4.368   3.866   1.780 -2.2889 -0.9567 -3.2958
 4195TIP3    H234221   4.503   3.797   1.775 -2.0859 -0.9549 -0.0514
 4196TIP3   OH234222   1.992   3.577   9.128  0.1111  0.2406 -0.1768
 4196TIP3    H134223   2.050   3.604   9.056  0.6293 -0.6258 -0.1024
 4196TIP3    H234224   1.964   3.659   9.168  0.9007  0.6934 -0.5216
 4197TIP3   OH234225   2.675   2.422   0.143  0.5442 -0.7085 -0.3900
 4197TIP3    H134226   2.642   2.408   0.055 -0.5299  0.6871 -0.2383
 4197TIP3    H234227   2.738   2.493   0.134  0.3538 -0.4898 -0.0203
 4198TIP3   OH234228   2.952   1.818   9.226 -0.6143 -0.9396  0.0843
 4198TIP3    H134229   2.971   1.859   9.142 -0.0389 -2.6958 -0.6651
 4198TIP3    H234230   2.951   1.724   9.209 -1.1372 -1.3211  1.9109
 4199TIP3   OH234231   0.627   4.210   2.185  0.2940 -0.0021  0.0563
 4199TIP3    H134232   0.622   4.303   2.164 -1.2011  0.0686  0.5768
 4199TIP3    H234233   0.544   4.191   2.229  0.0236 -1.8490 -1.1249
 4200TIP3   OH234234   4.388   1.334   0.434 -0.4156 -0.6511 -0.2287
 4200TIP3    H134235   4.447   1.260   0.450 -0.0151 -0.1694  0.5852
 4200TIP3    H234236   4.300   1.296   0.438 -0.1756 -1.4423 -1.8196
 4201TIP3   OH234237   1.580   1.024   0.859 -0.1187 -0.0922  0.1217
 4201TIP3    H134238   1.656   1.079   0.877 -0.2177 -0.2031  0.9458
 4201TIP3    H234239   1.507   1.085   0.852  0.0017 -0.0081 -0.3723
 4202TIP3   OH234240   2.232   4.741   1.284  0.1847 -0.7642 -0.1527
 4202TIP3    H134241   2.144   4.780   1.280  0.2494 -0.4720  1.0162
 4202TIP3    H234242   2.288   4.806   1.241  0.2298  0.3130  1.4297
 4203TIP3   OH234243   4.808   0.907   9.694 -0.6332  0.0978 -0.4524
 4203TIP3    H134244   4.845   0.995   9.696  0.2340 -0.1745 -2.3478
 4203TIP3    H234245   4.884   0.848   9.688 -1.1837 -0.8246  1.0184
 4204TIP3   OH234246   0.516   4.281   0.646  0.2588 -0.0552  0.0618
 4204TIP3    H134247   0.574   4.320   0.580  1.5260  0.5162  1.4499
 4204TIP3    H234248   0.496   4.194   0.611  1.0222  0.1642 -0.9963
 4205TIP3   OH234249   0.091   0.614   8.288 -0.0714  0.4681  0.1902
 4205TIP3    H134250   0.161   0.615   8.222  0.3309  2.7519  0.5497
 4205TIP3    H234251   0.029   0.680   8.257 -1.9665 -1.2878  0.0444
 4206TIP3   OH234252   2.551   5.841   9.934  0.0603 -0.6007 -0.4383
 4206TIP3    H134253   2.589   5.783  10.000 -0.1673 -0.0587  0.1749
 4206TIP3    H234254   2.466   5.866   9.970  0.2104  0.2069 -0.6385
 4207TIP3   OH234255   5.770   3.440   0.633  0.7441 -0.4864  0.1294
 4207TIP3    H134256   5.757   3.353   0.594  0.9745 -0.6101  0.3321
 4207TIP3    H234257   5.857   3.466   0.605  0.7127 -0.3602  0.1494
 4208TIP3   OH234258   0.844   5.695   8.913 -0.6053  0.4256  0.1435
 4208TIP3    H134259   0.859   5.790   8.912  2.0171  0.0869  0.3845
 4208TIP3    H234260   0.932   5.657   8.912 -1.5945 -2.0320 -0.7086
 4209TIP3   OH234261   4.987   4.345   1.879 -0.4922  0.0852 -0.1696
 4209TIP3    H134262   4.918   4.306   1.827 -0.2401  0.4621 -0.8040
 4209TIP3    H234263   5.004   4.282   1.949 -0.6892 -0.5240 -0.6665
 4210TIP3   OH234264   1.341   5.761   0.699 -0.5973 -0.3831  0.2481
 4210TIP3    H134265   1.394   5.749   0.620 -1.2589 -0.4488 -0.1951
 4210TIP3    H234266   1.390   5.715   0.768  0.3681  0.3195  0.0561
 4211TIP3   OH234267   3.234   4.355   0.803  0.0745 -0.0657  0.5381
 4211TIP3    H134268   3.238   4.413   0.727  2.2366  0.9981  1.3751
 4211TIP3    H234269   3.155   4.302   0.789  0.7917 -0.4821 -2.8411
 4212TIP3   OH234270   1.621   6.350   7.131 -0.1038  0.0746  0.2461
 4212TIP3    H134271   1.531   6.332   7.103 -0.2233 -0.2977  0.8340
 4212TIP3    H234272   1.675   6.306   7.066 -0.3954 -2.7283  1.7396
 4213TIP3   OH234273   0.940   2.908   0.608  0.1902 -0.2425 -0.5164
 4213TIP3    H134274   1.034   2.892   0.608 -0.0791 -2.1444 -1.4953
 4213TIP3    H234275   0.905   2.845   0.545 -1.6926  0.7753 -0.5545
 4214TIP3   OH234276   3.779   3.620   9.692  0.1928  0.6187 -0.2201
 4214TIP3    H134277   3.732   3.582   9.619 -1.2699  0.9775  0.4992
 4214TIP3    H234278   3.865   3.578   9.691 -0.5787 -0.9893 -0.8142
 4215TIP3   OH234279   4.285   2.946   2.095 -0.2382  0.2134  0.1979
 4215TIP3    H134280   4.280   3.003   2.171 -0.2670 -0.7936  0.9716
 4215TIP3    H234281   4.249   2.862   2.125  2.1553 -1.0177 -0.0903
 4216TIP3   OH234282   6.010   0.327   8.731  0.0518 -0.3077  0.1877
 4216TIP3    H134283   6.025   0.368   8.816  0.7091  2.1937 -1.0550
 4216TIP3    H234284   5.915   0.313   8.727 -0.1887  1.0739  0.6917
 4217TIP3   OH234285   3.290   1.749   1.253  0.4859  0.1089 -0.0073
 4217TIP3    H134286   3.369   1.799   1.231  0.5903  0.4654  1.1198
 4217TIP3    H234287   3.226   1.816   1.278 -0.1121 -0.1903 -0.6951
 4218TIP3   OH234288   0.712   1.823   1.395  0.2730  0.7376  0.0305
 4218TIP3    H134289   0.627   1.842   1.433 -1.4143 -1.7271 -2.1998
 4218TIP3    H234290   0.765   1.901   1.414 -2.0248  1.8133  2.5833
 4219TIP3   OH234291   5.870   2.987   1.443 -0.2420 -0.2043  0.2028
 4219TIP3    H134292   5.959   3.017   1.424 -0.1127 -0.3201  0.6273
 4219TIP3    H234293   5.878   2.893   1.456 -0.0785  0.0494  2.2319
 4220TIP3   OH234294   5.980   4.705   1.163 -0.3402  0.0795  0.6101
 4220TIP3    H134295   6.051   4.644   1.141  0.2106  1.0114 -0.2909
 4220TIP3    H234296   5.953   4.741   1.078 -2.3195 -0.6976  0.8568
 4221TIP3   OH234297   0.781   5.404   8.972  0.1552 -0.2959 -0.2616
 4221TIP3    H134298   0.686   5.400   8.978  0.2737 -1.7473  2.0077
 4221TIP3    H234299   0.800   5.495   8.949 -1.7329  0.3106  0.4057
 4222TIP3   OH234300   5.153   3.262   1.339  0.3802 -0.0644 -0.7502
 4222TIP3    H134301   5.061   3.242   1.355 -0.2292  1.5376 -2.0079
 4222TIP3    H234302   5.185   3.297   1.423 -0.1960 -0.4203 -0.3742
 4223TIP3   OH234303   2.446   4.079   3.064 -0.5939 -0.4204 -0.3087
 4223TIP3    H134304   2.488   4.143   3.006 -0.4081  0.7323  1.0447
 4223TIP3    H234305   2.353   4.082   3.041 -0.5559  0.2047 -0.3904
 4224TIP3   OH234306   4.410   6.340  10.012 -0.0313  0.9741  0.3985
 4224TIP3    H134307   4.396   6.349  10.107 -0.2630  1.3792  0.3304
 4224TIP3    H234308   4.498   6.304  10.004 -0.4862 -0.2683  0.7976
 4225TIP3   OH234309   5.441   1.184   2.405  0.3849 -0.8028 -0.8708
 4225TIP3    H134310   5.464   1.164   2.496  1.1347 -1.7175 -1.2498
 4225TIP3    H234311   5.348   1.207   2.408  0.4379 -0.6745  0.1427
 4226TIP3   OH234312   0.041   2.289   1.527  0.4527 -0.3096  0.0131
 4226TIP3    H134313   0.129   2.324   1.512  0.5035 -0.8551 -1.1299
 4226TIP3    H234314   0.043   2.252   1.615  1.1748  0.2193  0.2240
 4227TIP3   OH234315   2.130   3.954   9.025  0.2022 -0.3475 -0.3102
 4227TIP3    H134316   2.077   4.033   9.028  0.0518 -0.3077 -2.6250
 4227TIP3    H234317   2.208   3.976   9.076 -0.7059  0.5736  0.7337
 4228TIP3   OH234318   3.491   1.333   9.807 -0.1832  0.6061  0.3778
 4228TIP3    H134319   3.529   1.371   9.886 -1.2167  0.2345  1.0818
 4228TIP3    H234320   3.501   1.238   9.819  1.0825  0.5765 -0.6960
 4229TIP3   OH234321   1.343   5.418   2.680  0.3167  0.1917 -0.1710
 4229TIP3    H134322   1.423   5.443   2.635 -0.3957  0.7660 -1.1676
 4229TIP3    H234323   1.372   5.365   2.754  1.5293 -0.8271 -1.3274
 4230TIP3   OH234324   6.181   5.398   2.443  0.3672 -0.3231 -0.0851
 4230TIP3    H134325   6.248   5.362   2.385 -1.3240 -1.3985 -1.4809
 4230TIP3    H234326   6.153   5.323   2.496 -0.3776 -0.1289 -0.1888
 4231TIP3   OH234327   4.139   3.792   2.262  0.9325 -0.3653 -0.3534
 4231TIP3    H134328   4.058   3.760   2.223 -0.1784 -1.3286  2.4396
 4231TIP3    H234329   4.195   3.715   2.268  0.4040 -0.6665  1.3830
 4232TIP3   OH234330   5.897   2.942   9.229  0.5348 -0.1194 -0.3227
 4232TIP3    H134331   5.902   2.862   9.282  0.9879  0.6651  0.8712
 4232TIP3    H234332   5.843   3.002   9.281  1.6499  0.9512 -0.3458
 4233TIP3   OH234333   2.358   2.770   2.759  0.2705  0.4075 -0.0342
 4233TIP3    H134334   2.288   2.707   2.776  0.6999  0.5776  2.9005
 4233TIP3    H234335   2.414   2.727   2.695 -1.4301 -0.5654 -0.9411
 4234TIP3   OH234336   5.652   5.556   9.952  0.9674  0.3122  0.4320
 4234TIP3    H134337   5.669   5.478  10.004 -0.5242 -1.3083 -1.3503
 4234TIP3    H234338   5.593   5.609  10.006 -3.1845 -2.7837 -0.5533
 4235TIP3   OH234339   3.736   1.681   8.682  0.3283 -0.0777  0.8533
 4235TIP3    H134340   3.820   1.649   8.647  1.0762  0.7688  1.8043
 4235TIP3    H234341   3.760   1.760   8.731 -0.8562 -0.5227  2.1983
 4236TIP3   OH234342   0.644   4.302   8.474 -0.1247  0.4013  0.5503
 4236TIP3    H134343   0.584   4.332   8.406 -1.2887 -1.5292  0.6672
 4236TIP3    H234344   0.729   4.298   8.431 -0.8808 -1.0136 -0.8975
 4237TIP3   OH234345   2.724   2.460   9.741 -0.0554 -0.5055 -0.0376
 4237TIP3    H134346   2.719   2.530   9.806  0.0541  0.3574 -0.9457
 4237TIP3    H234347   2.688   2.383   9.786  1.0699 -0.2307  1.4411
 4238TIP3   OH234348   1.989   1.278   8.183  0.1833 -0.3914 -0.2113
 4238TIP3    H134349   1.896   1.281   8.204  0.2348 -1.3626  0.1797
 4238TIP3    H234350   2.010   1.367   8.155 -0.6622  0.0559  0.5399
 4239TIP3   OH234351   1.179   6.122   9.305 -0.1443 -0.1729  0.1460
 4239TIP3    H134352   1.270   6.105   9.281 -0.0050 -0.2447  0.7126
 4239TIP3    H234353   1.184   6.153   9.395 -0.6282  0.3884 -0.0098
 4240TIP3   OH234354   3.619   2.755   3.713 -0.3159 -0.0763  0.7531
 4240TIP3    H134355   3.656   2.703   3.642 -1.6969  2.1626 -1.8148
 4240TIP3    H234356   3.559   2.696   3.758 -0.2714 -1.2831 -0.6975
 4241TIP3   OH234357   3.687   1.041   0.850  0.0556 -0.2334  0.8566
 4241TIP3    H134358   3.638   1.118   0.878  0.1947 -0.0202  0.5160
 4241TIP3    H234359   3.752   1.027   0.920 -0.1735 -0.2318  1.0705
 4242TIP3   OH234360   2.344   1.232   9.650  0.2360 -0.0873 -0.4024
 4242TIP3    H134361   2.305   1.239   9.563  3.4409 -0.8340 -2.0630
 4242TIP3    H234362   2.407   1.304   9.653 -0.7517  0.7795  1.9375
 4243TIP3   OH234363   2.378   2.451   2.855 -0.2142 -0.2197  0.1428
 4243TIP3    H134364   2.453   2.445   2.914  0.9438 -0.7350 -1.3261
 4243TIP3    H234365   2.371   2.363   2.816 -0.7482  0.1961 -0.7216
 4244TIP3   OH234366   3.102   0.762   9.684  0.0030  0.3721 -0.1405
 4244TIP3    H134367   3.035   0.772   9.751 -1.0569 -0.6224 -1.0304
 4244TIP3    H234368   3.136   0.673   9.696 -0.9268 -0.2045 -1.5534
 4245TIP3   OH234369   0.609   5.419   0.223  0.1259  0.3500  0.0381
 4245TIP3    H134370   0.604   5.396   0.131  1.2689  2.1935 -0.5418
 4245TIP3    H234371   0.677   5.361   0.258  2.5554  2.2505 -1.2480
 4246TIP3   OH234372   4.585   2.138   0.358 -0.8206 -0.1267 -0.1143
 4246TIP3    H134373   4.557   2.072   0.422  0.0428 -0.2667  0.1253
 4246TIP3    H234374   4.663   2.101   0.318 -0.1884  0.8397  0.1785
 4247TIP3   OH234375   6.170   0.047   9.235  0.3306  0.5622 -0.2096
 4247TIP3    H134376   6.150   0.137   9.209  0.2423  0.5797 -0.0828
 4247TIP3    H234377   6.118  -0.007   9.175 -1.1010  0.6212  0.9012
 4248TIP3   OH234378   5.037   5.758   0.593 -0.1391  0.4049  0.0022
 4248TIP3    H134379   5.077   5.750   0.679  2.1254  0.8192 -0.9399
 4248TIP3    H234380   4.988   5.676   0.582 -1.0881  0.6588  1.9315
 4249TIP3   OH234381   0.073   4.285   8.338  0.0127 -0.3834 -0.0099
 4249TIP3    H134382   0.160   4.246   8.326  1.1050  2.0596 -0.6368
 4249TIP3    H234383   0.037   4.288   8.249 -0.9053 -1.6922  0.2894
 4250TIP3   OH234384   6.065   5.264   7.824 -0.1256  0.1487 -0.4497
 4250TIP3    H134385   6.055   5.257   7.729  1.3384 -0.9525 -0.5530
 4250TIP3    H234386   6.090   5.356   7.838  0.2037  0.1823 -1.1895
 4251TIP3   OH234387   3.132   6.260   0.782  0.1462  0.0373 -0.2567
 4251TIP3    H134388   3.147   6.169   0.756  0.5711  0.5779 -2.0587
 4251TIP3    H234389   3.207   6.308   0.746 -0.6991  1.2812 -0.4269
 4252TIP3   OH234390   6.307   4.357   8.524  0.2071  0.1095 -0.0333
 4252TIP3    H134391   6.269   4.436   8.486 -1.1479 -0.3332  0.3746
 4252TIP3    H234392   6.366   4.324   8.456  0.2010  1.0319 -0.5025
 4253TIP3   OH234393   3.853   5.598   9.937 -0.4149 -0.5039 -0.6371
 4253TIP3    H134394   3.897   5.671   9.892 -0.2761 -0.3305 -0.2219
 4253TIP3    H234395   3.877   5.521   9.885  0.3850 -0.4122 -0.4252
 4254TIP3   OH234396   1.813   3.034   3.547 -0.6565  0.0099 -0.5486
 4254TIP3    H134397   1.734   3.059   3.595 -1.3037 -0.6198 -1.2542
 4254TIP3    H234398   1.867   3.113   3.545 -0.8825  0.2169  0.6726
 4255TIP3   OH234399   3.439   3.182   8.127  0.1979 -0.7779  0.4644
 4255TIP3    H134400   3.447   3.278   8.120  0.2644 -0.7244  1.1911
 4255TIP3    H234401   3.390   3.157   8.049 -0.2150 -0.0983  0.4921
 4256TIP3   OH234402   3.902   1.512   0.067 -0.2990  0.2520 -0.0616
 4256TIP3    H134403   3.994   1.507   0.042 -0.3717  1.7153 -0.7330
 4256TIP3    H234404   3.865   1.579   0.010 -2.2025 -1.4509 -0.9593
 4257TIP3   OH234405   4.440   3.027   3.549  0.8487  0.1302  0.0346
 4257TIP3    H134406   4.409   3.101   3.601  1.3596  0.3520  0.0198
 4257TIP3    H234407   4.393   2.952   3.587  1.5425  0.2184  1.1280
 4258TIP3   OH234408   0.848   1.429   8.906 -0.2923  0.5256 -0.0897
 4258TIP3    H134409   0.938   1.427   8.938 -0.3032  0.2677 -0.0723
 4258TIP3    H234410   0.817   1.517   8.928 -0.6831 -0.0158  1.6535
 4259TIP3   OH234411   6.132   1.945   2.798 -0.0418 -0.6693  0.4425
 4259TIP3    H134412   6.043   1.913   2.810 -0.5218 -1.0108 -3.0330
 4259TIP3    H234413   6.123   2.040   2.789  0.3467 -0.3804  2.5573
 4260TIP3   OH234414   0.365   2.065   2.459 -0.1962  1.2992  0.5016
 4260TIP3    H134415   0.443   2.115   2.485  0.5727  1.3966 -1.7096
 4260TIP3    H234416   0.374   2.056   2.364 -1.0699 -1.7511  0.5869
 4261TIP3   OH234417   2.734   3.493   1.104 -0.0946 -0.1873  0.1691
 4261TIP3    H134418   2.658   3.487   1.046  0.0700 -0.8379  0.0109
 4261TIP3    H234419   2.708   3.555   1.172 -1.0487 -0.9751  0.5504
 4262TIP3   OH234420   5.785   0.109   7.918 -0.2902 -0.3243  0.0182
 4262TIP3    H134421   5.745   0.022   7.911 -2.4561  0.4609  1.3333
 4262TIP3    H234422   5.766   0.150   7.834  2.0555 -1.5434 -1.1983
 4263TIP3   OH234423   5.896   3.103   2.716  0.2367  0.2155  0.4371
 4263TIP3    H134424   5.813   3.150   2.722 -0.0224 -0.2150  0.3102
 4263TIP3    H234425   5.897   3.067   2.627  0.5567  0.2153  0.4405
 4264TIP3   OH234426   2.825   1.139   0.917  0.8151  0.3724  0.4422
 4264TIP3    H134427   2.808   1.047   0.939  0.1339  0.0260 -1.3344
 4264TIP3    H234428   2.865   1.135   0.830 -0.9729  1.8204 -0.5050
 4265TIP3   OH234429   3.370   0.704   2.463  0.3545 -0.5544 -0.3848
 4265TIP3    H134430   3.344   0.733   2.376 -1.2916  1.0653  0.5819
 4265TIP3    H234431   3.376   0.608   2.455  0.1853 -0.4544 -2.2322
 4266TIP3   OH234432   6.272   1.474   9.359 -0.2433  0.2311  0.1151
 4266TIP3    H134433   6.296   1.524   9.282  0.5084 -2.2561 -1.3935
 4266TIP3    H234434   6.193   1.426   9.334 -1.0060  0.6824  1.5268
 4267TIP3   OH234435   2.694   5.913   8.404  0.0939  0.3496  0.2167
 4267TIP3    H134436   2.695   5.916   8.309  2.1048  0.7165  0.2049
 4267TIP3    H234437   2.654   5.829   8.426 -1.9901  0.9939 -0.8715
 4268TIP3   OH234438   3.372   3.391   0.833 -0.3139 -0.1364 -0.0780
 4268TIP3    H134439   3.338   3.421   0.749 -3.5929 -1.2370  0.6867
 4268TIP3    H234440   3.349   3.462   0.894 -0.0690 -0.3447  0.2540
 4269TIP3   OH234441   2.756   0.409   7.806  0.0857 -0.0133 -0.1417
 4269TIP3    H134442   2.847   0.416   7.834  0.5086 -0.3865 -1.3635
 4269TIP3    H234443   2.756   0.441   7.716 -1.1615  0.8065  0.1208
 4270TIP3   OH234444   5.707   1.206  10.029 -0.0668  0.8801 -0.0716
 4270TIP3    H134445   5.754   1.278  10.071  2.7267  0.2819 -1.8824
 4270TIP3    H234446   5.759   1.128  10.051 -0.7893  0.0126 -1.3300
 4271TIP3   OH234447   0.429   1.940   9.011  0.3056  0.4455 -0.5107
 4271TIP3    H134448   0.432   1.869   9.076  0.9572 -0.5740 -1.6104
 4271TIP3    H234449   0.373   1.905   8.941 -0.5027  1.5836 -0.4500
 4272TIP3   OH234450   3.423   3.471   1.470  0.1066  0.6500  0.3704
 4272TIP3    H134451   3.484   3.521   1.415  0.7668  0.3301  0.7992
 4272TIP3    H234452   3.414   3.387   1.425 -1.4066  1.2949 -0.6279
 4273TIP3   OH234453   3.056   0.837   7.679  0.5166  0.2539  0.6165
 4273TIP3    H134454   3.041   0.748   7.646  0.7097  0.2327  0.5879
 4273TIP3    H234455   2.999   0.892   7.626 -0.9535 -0.0650  1.7958
 4274TIP3   OH234456   1.497   2.673   1.457  0.2163  0.3947  0.3483
 4274TIP3    H134457   1.512   2.665   1.551 -3.1228 -1.3945  0.8774
 4274TIP3    H234458   1.442   2.751   1.447 -0.2808  0.0067  0.0090
 4275TIP3   OH234459   0.238   5.149   9.480  0.1252 -0.0168  0.0802
 4275TIP3    H134460   0.242   5.118   9.390  0.4081 -0.3084  0.1884
 4275TIP3    H234461   0.329   5.146   9.510 -0.1542 -1.4304  0.8687
 4276TIP3   OH234462   5.135   6.046   2.170 -0.3835  0.2439 -0.2216
 4276TIP3    H134463   5.080   5.968   2.179 -1.4350  0.5238 -3.0881
 4276TIP3    H234464   5.220   6.012   2.143 -1.2162  0.0368 -2.8530
 4277TIP3   OH234465   2.092   5.651   8.788  0.0179 -0.3247 -0.1093
 4277TIP3    H134466   2.002   5.652   8.757  0.1091 -0.7824 -0.4000
 4277TIP3    H234467   2.099   5.728   8.845 -1.5006 -2.0019  2.6094
 4278TIP3   OH234468   4.866   1.171   1.933 -0.1301 -0.3378 -1.0580
 4278TIP3    H134469   4.824   1.160   1.847  0.3516 -0.2031 -1.3121
 4278TIP3    H234470   4.927   1.244   1.921  0.3437 -0.6795 -0.7500
 4279TIP3   OH234471   3.284   2.579   0.448 -0.2711 -0.1320 -0.0340
 4279TIP3    H134472   3.361   2.523   0.445  0.6618  1.1196 -1.5644
 4279TIP3    H234473   3.319   2.666   0.470 -1.3144  0.3437 -0.1821
 4280TIP3   OH234474   2.101   4.439   8.173  0.7782  0.0683 -0.3531
 4280TIP3    H134475   2.120   4.380   8.099  1.3585  0.8320 -0.8242
 4280TIP3    H234476   2.171   4.504   8.171  1.6809 -0.7618  1.8234
 4281TIP3   OH234477   0.127   4.827   9.704 -0.3380 -0.1730 -0.5909
 4281TIP3    H134478   0.114   4.743   9.749  1.2464  0.3520  1.0064
 4281TIP3    H234479   0.061   4.829   9.635 -1.4118 -2.0504  0.3139
 4282TIP3   OH234480   0.739   0.094   9.025 -0.5697 -0.3461  0.1534
 4282TIP3    H134481   0.744   0.189   9.020 -2.1226 -0.1078  2.1000
 4282TIP3    H234482   0.779   0.071   9.109  0.2221 -1.4961 -0.4930
 4283TIP3   OH234483   5.558   0.446   8.022 -0.2607  0.1818 -0.2149
 4283TIP3    H134484   5.502   0.523   8.012 -1.3207 -0.6191 -0.5827
 4283TIP3    H234485   5.567   0.411   7.933 -1.0368 -0.9746  0.1455
 4284TIP3   OH234486   5.775   2.826   1.943 -0.0734  0.5129 -0.4030
 4284TIP3    H134487   5.712   2.881   1.990 -0.4208  1.0171 -1.4121
 4284TIP3    H234488   5.756   2.842   1.850  2.1833  1.4904 -0.7931
 4285TIP3   OH234489   4.442   5.369   0.024 -0.1079  0.2717 -0.2306
 4285TIP3    H134490   4.495   5.447   0.009 -0.5158  0.7606  0.8058
 4285TIP3    H234491   4.352   5.398   0.014 -0.2683 -0.0429  0.2581
 4286TIP3   OH234492   1.822   5.381   7.819 -0.2003  0.1932 -0.2282
 4286TIP3    H134493   1.793   5.444   7.885 -0.7471 -0.7364  0.4510
 4286TIP3    H234494   1.918   5.388   7.820 -0.2157  0.4354  0.4326
 4287TIP3   OH234495   0.211   1.830   2.225  0.5440 -0.2504 -0.1889
 4287TIP3    H134496   0.197   1.803   2.316  1.9301 -0.3422  0.0059
 4287TIP3    H234497   0.163   1.913   2.217  3.4334  1.7954  1.7425
 4288TIP3   OH234498   3.738   4.639   0.589  0.2086  0.4358  0.1125
 4288TIP3    H134499   3.663   4.590   0.624 -0.3969  0.0612 -1.5720
 4288TIP3    H234500   3.732   4.725   0.631 -0.9637  0.2951  0.2865
 4289TIP3   OH234501   5.263   0.418   2.001 -0.7025  0.2632  0.0508
 4289TIP3    H134502   5.220   0.335   1.978 -0.1542 -0.1633  0.5468
 4289TIP3    H234503   5.261   0.419   2.097  1.0460 -0.1171  0.1145
 4290TIP3   OH234504   0.130   0.474   9.611 -0.7416 -0.4926  0.2265
 4290TIP3    H134505   0.064   0.504   9.549 -0.4088 -0.2463 -0.0136
 4290TIP3    H234506   0.109   0.382   9.625 -0.7993 -0.5609 -0.2794
 4291TIP3   OH234507   4.417   1.744   2.349 -0.1567  0.3290 -0.2361
 4291TIP3    H134508   4.506   1.760   2.381 -1.3336  0.3664  3.4883
 4291TIP3    H234509   4.423   1.661   2.300  2.1208  1.0964 -1.3868
 4292TIP3   OH234510   1.651   0.143   1.579 -0.2582  0.7014  0.0561
 4292TIP3    H134511   1.606   0.127   1.661 -1.5811  1.6926 -0.4494
 4292TIP3    H234512   1.644   0.060   1.531 -0.8562  0.6133  0.2966
 4293TIP3   OH234513   0.885   1.870   9.454 -0.0007  0.2270 -1.0371
 4293TIP3    H134514   0.926   1.816   9.521 -0.5885 -0.9991 -1.6289
 4293TIP3    H234515   0.958   1.908   9.406  0.4277  0.7019 -0.0455
 4294TIP3   OH234516   5.606   6.415   1.740  0.9702 -0.2679  0.6501
 4294TIP3    H134517   5.582   6.433   1.649  1.1432 -3.4128 -0.1409
 4294TIP3    H234518   5.551   6.341   1.765  1.3927  0.0989  2.9302
 4295TIP3   OH234519   5.834   2.224   8.024  0.4664  0.1621  0.0411
 4295TIP3    H134520   5.810   2.233   7.931  3.0912  0.5662 -0.6773
 4295TIP3    H234521   5.866   2.134   8.032  1.9451  0.6667  0.0738
 4296TIP3   OH234522   1.345   4.515   7.942  0.7486 -0.3616 -0.1769
 4296TIP3    H134523   1.368   4.422   7.932  2.3715 -0.1687  1.2007
 4296TIP3    H234524   1.250   4.516   7.943  0.6818 -1.8691 -1.3865
 4297TIP3   OH234525   2.396   3.348   3.636  0.0626  0.1763  0.0397
 4297TIP3    H134526   2.392   3.392   3.720  1.2379 -0.3738  0.4017
 4297TIP3    H234527   2.485   3.314   3.630 -0.2370 -0.4870 -1.0736
 4298TIP3   OH234528   6.160   2.902   8.550 -0.2309  0.5284 -0.5026
 4298TIP3    H134529   6.229   2.839   8.570 -0.0292  0.3850 -1.6079
 4298TIP3    H234530   6.157   2.905   8.455 -2.0960  0.1485 -0.4956
 4299TIP3   OH234531   3.185   1.016   1.664  0.0567 -0.3517  0.4141
 4299TIP3    H134532   3.138   0.991   1.584  1.0459  0.5658 -0.4828
 4299TIP3    H234533   3.270   1.048   1.634  0.1557  0.7858  1.7621
 4300TIP3   OH234534   2.871   5.657   2.262  0.2383  0.1376 -0.6597
 4300TIP3    H134535   2.783   5.693   2.270 -0.3020 -0.4611 -3.1445
 4300TIP3    H234536   2.902   5.649   2.352 -2.7857 -0.9791  0.4152
 4301TIP3   OH234537   1.036   3.793   3.359 -0.2221  0.2832 -0.5340
 4301TIP3    H134538   1.044   3.844   3.279  0.1148  1.2590  0.1018
 4301TIP3    H234539   1.123   3.797   3.399 -0.0066 -1.3149 -0.7512
 4302TIP3   OH234540   5.930   0.242   8.123  0.2702  0.6838 -0.2153
 4302TIP3    H134541   5.884   0.189   8.057 -1.3473 -0.3742  1.6344
 4302TIP3    H234542   6.007   0.190   8.146 -1.2566 -0.9697  1.5193
 4303TIP3   OH234543   2.170   1.466   9.122 -0.3626  0.3083  0.0012
 4303TIP3    H134544   2.116   1.544   9.116  0.3710  0.7719 -0.8759
 4303TIP3    H234545   2.117   1.403   9.171 -1.5272  0.8657 -0.5102
 4304TIP3   OH234546   3.664   1.779   1.345 -0.5540 -0.0520  0.3155
 4304TIP3    H134547   3.746   1.792   1.392  0.3883 -1.0119 -0.9813
 4304TIP3    H234548   3.657   1.857   1.289 -0.3682 -0.1194  0.1985
 4305TIP3   OH234549   4.434   2.616   8.827  0.6115 -0.6196 -0.0845
 4305TIP3    H134550   4.339   2.613   8.813  0.5177  0.7676  0.1367
 4305TIP3    H234551   4.471   2.573   8.750 -0.1098  1.1506 -1.4926
 4306TIP3   OH234552   4.563   3.474   2.338 -0.6515  0.4074  0.3851
 4306TIP3    H134553   4.487   3.473   2.280  0.3055 -2.1249 -0.9751
 4306TIP3    H234554   4.527   3.459   2.425 -2.0445  3.5900  0.4779
 4307TIP3   OH234555   0.154   1.486   7.885  0.1000 -0.2284  0.7412
 4307TIP3    H134556   0.096   1.431   7.833  0.8860 -0.3179 -0.0795
 4307TIP3    H234557   0.129   1.576   7.863 -1.6953 -0.1796  2.6553
 4308TIP3   OH234558   5.398   1.733   9.517  0.4532  0.0955 -0.5392
 4308TIP3    H134559   5.456   1.663   9.486 -0.4264 -0.3519 -1.2218
 4308TIP3    H234560   5.363   1.773   9.438 -0.6004 -0.0129 -0.1504
 4309TIP3   OH234561   1.354   6.068   9.594 -0.0779  0.2298  0.3784
 4309TIP3    H134562   1.387   6.002   9.655 -0.2906 -0.3088 -0.0887
 4309TIP3    H234563   1.371   6.031   9.508 -1.4699  0.1579  0.1239
 4310TIP3   OH234564   1.183   2.531   2.155  0.1747  0.6502  0.1193
 4310TIP3    H134565   1.143   2.579   2.227 -1.3770 -0.2954 -0.0638
 4310TIP3    H234566   1.128   2.453   2.145 -0.0821  1.0722 -2.5267
 4311TIP3   OH234567   0.542   4.653   7.551  0.1447 -0.0054 -0.0313
 4311TIP3    H134568   0.466   4.711   7.551 -0.8521 -1.2475 -1.4203
 4311TIP3    H234569   0.542   4.613   7.464  1.1074 -1.6754  0.6918
 4312TIP3   OH234570   1.348   1.758   9.218 -0.7534 -0.0182  0.1151
 4312TIP3    H134571   1.264   1.753   9.264 -0.8547 -0.2260 -0.0921
 4312TIP3    H234572   1.325   1.759   9.125 -0.6280  1.8662  0.0740
 4313TIP3   OH234573   1.554   3.439   8.776 -0.4082  0.1163  0.7874
 4313TIP3    H134574   1.604   3.505   8.728  0.1628 -1.9392 -1.6429
 4313TIP3    H234575   1.463   3.470   8.771 -0.1011  0.9666  0.2150
 4314TIP3   OH234576   3.805   5.863   1.259  0.0955 -0.1159  0.1289
 4314TIP3    H134577   3.766   5.800   1.197 -3.8391  1.4076  0.7250
 4314TIP3    H234578   3.809   5.945   1.210 -0.7261  0.5422  1.1254
 4315TIP3   OH234579   2.005   1.858   0.002 -0.3595  0.7046 -0.7178
 4315TIP3    H134580   2.007   1.868  -0.093 -2.1487  3.0949 -0.5927
 4315TIP3    H234581   1.996   1.947   0.035  0.7520 -0.0092  1.7647
 4316TIP3   OH234582   3.209   4.103   2.208  0.0683 -0.0020  0.2164
 4316TIP3    H134583   3.273   4.134   2.272 -1.4519 -0.0289  1.8204
 4316TIP3    H234584   3.132   4.159   2.221 -0.9588 -1.2442 -0.2559
 4317TIP3   OH234585   2.492   3.990   8.874  0.0920  0.4774  0.2336
 4317TIP3    H134586   2.579   4.014   8.906  0.1768  0.1895  0.2176
 4317TIP3    H234587   2.466   4.063   8.818  0.2097  0.6905  0.4549
 4318TIP3   OH234588   5.459   2.735   9.713  0.1059 -0.4643  0.6257
 4318TIP3    H134589   5.399   2.697   9.649  0.2771 -0.9548  0.7470
 4318TIP3    H234590   5.404   2.757   9.788  0.0634 -0.8489  0.7103
 4319TIP3   OH234591   2.743   4.047   8.933  0.0965 -0.5343 -0.0121
 4319TIP3    H134592   2.799   4.119   8.904  0.1341  0.1076  1.5773
 4319TIP3    H234593   2.793   4.004   9.002  0.5660 -2.8434 -1.6712
 4320TIP3   OH234594   5.956   4.561   3.488  0.2312  0.4028 -0.3047
 4320TIP3    H134595   5.943   4.639   3.434  0.0134  0.6586  0.1103
 4320TIP3    H234596   5.905   4.578   3.567  0.1565 -0.1762 -0.2247
 4321TIP3   OH234597   5.406   0.334   8.881  0.3719  0.0651  0.2618
 4321TIP3    H134598   5.388   0.283   8.960  0.7552 -0.1155  0.2314
 4321TIP3    H234599   5.499   0.324   8.866  0.3997  0.5465  0.0901
 4322TIP3   OH234600   4.750   2.625   9.748  0.2642  0.0375  0.6602
 4322TIP3    H134601   4.789   2.555   9.801  0.6851  0.4044  0.8426
 4322TIP3    H234602   4.754   2.702   9.804 -2.1045 -0.2196  1.2736
 4323TIP3   OH234603   6.352   5.983   2.323 -0.6743 -0.3357 -0.1357
 4323TIP3    H134604   6.408   5.912   2.354 -2.0214 -1.4138 -0.0886
 4323TIP3    H234605   6.360   6.051   2.390  0.4123 -0.5348 -0.0443
 4324TIP3   OH234606   0.430   2.797   0.394  0.1285 -0.2749  0.3058
 4324TIP3    H134607   0.509   2.827   0.349 -1.5416 -0.2467 -2.9026
 4324TIP3    H234608   0.459   2.721   0.445  2.1349 -0.5913 -1.1995
 4325TIP3   OH234609   0.984   4.706   0.998 -0.5700  0.2298  0.6459
 4325TIP3    H134610   1.070   4.704   1.040 -0.0554 -0.8573 -0.3855
 4325TIP3    H234611   1.002   4.687   0.906 -2.0254 -1.1955  0.6131
 4326TIP3   OH234612   0.631   5.859   1.984  0.1785  0.2685  0.2295
 4326TIP3    H134613   0.641   5.892   1.895 -0.6228  1.2470  0.4875
 4326TIP3    H234614   0.540   5.878   2.007 -0.1159 -1.4788  0.6697
 4327TIP3   OH234615   0.011   0.976   9.393  0.4256 -0.2020  1.0585
 4327TIP3    H134616  -0.071   0.953   9.349  0.6794 -0.2044  0.5710
 4327TIP3    H234617   0.027   1.067   9.369  0.7194 -0.2934  0.8957
 4328TIP3   OH234618   1.231   4.788   0.280 -0.0535  0.4178 -0.6291
 4328TIP3    H134619   1.194   4.871   0.252  1.1621  1.3970  0.5142
 4328TIP3    H234620   1.253   4.743   0.199  0.8934  1.9926 -1.2913
 4329TIP3   OH234621   5.144   4.464   9.915 -0.0078  0.6082  0.5330
 4329TIP3    H134622   5.157   4.420   9.999 -0.3196  1.3950  1.0014
 4329TIP3    H234623   5.225   4.450   9.867  0.6707  1.2345  1.4674
 4330TIP3   OH234624   4.077   2.787   2.828 -0.6334  1.1182 -0.2101
 4330TIP3    H134625   4.023   2.852   2.784 -1.4863 -0.4690 -1.6467
 4330TIP3    H234626   4.023   2.707   2.827  2.1828 -1.0065 -3.0883
 4331TIP3   OH234627   2.124   4.406   3.622  0.0606 -0.0235  0.5836
 4331TIP3    H134628   2.083   4.460   3.555 -1.1359  1.4426  2.3761
 4331TIP3    H234629   2.217   4.424   3.613 -0.0096 -0.2939 -0.9932
 4332TIP3   OH234630   4.883   3.081   0.101 -0.2626 -0.1621  0.2440
 4332TIP3    H134631   4.919   3.164   0.133 -2.1116  0.5966  0.4741
 4332TIP3    H234632   4.858   3.099   0.010 -2.2851  0.1312  0.8052
 4333TIP3   OH234633   2.627   3.541   0.694  0.4056 -0.7471 -0.0247
 4333TIP3    H134634   2.591   3.530   0.782 -1.0959  0.2645 -0.4554
 4333TIP3    H234635   2.634   3.636   0.683 -0.0926 -0.8303 -1.2305
 4334TIP3   OH234636   4.522   5.378   2.483 -0.1095 -0.4655 -0.0440
 4334TIP3    H134637   4.449   5.370   2.421 -1.3791 -1.1517  1.4781
 4334TIP3    H234638   4.596   5.407   2.429 -1.9394  2.1936 -1.3626
 4335TIP3   OH234639   3.102   2.195   1.515 -0.6217  0.1689  0.7059
 4335TIP3    H134640   3.153   2.254   1.459  0.6354 -1.6650 -0.1828
 4335TIP3    H234641   3.157   2.181   1.592 -0.8987  0.1246  0.8953
 4336TIP3   OH234642   4.375   0.529   9.484  0.2413  0.0065  0.3690
 4336TIP3    H134643   4.405   0.573   9.563  1.8479 -1.1423  0.4698
 4336TIP3    H234644   4.413   0.580   9.412  0.7689 -0.2822  0.4354
 4337TIP3   OH234645   5.609   0.330   0.035  0.0395 -0.5346 -0.1343
 4337TIP3    H134646   5.630   0.392  -0.035 -0.4098 -1.7502 -1.3671
 4337TIP3    H234647   5.514   0.320   0.030  0.0850 -1.1488  0.2058
 4338TIP3   OH234648   1.256   5.896   9.919 -0.0541 -0.2462  0.0020
 4338TIP3    H134649   1.336   5.866   9.876 -0.1693  0.3892 -0.6767
 4338TIP3    H234650   1.205   5.817   9.933  0.7816 -0.6974  0.6561
 4339TIP3   OH234651   1.113   5.565   2.584 -0.1146  0.5038  0.5793
 4339TIP3    H134652   1.108   5.621   2.507  0.8653  0.3424  0.3907
 4339TIP3    H234653   1.203   5.533   2.586  0.0169  0.8734  2.0510
 4340TIP3   OH234654   3.513   5.139   3.495  0.1042 -0.4047  0.2354
 4340TIP3    H134655   3.423   5.172   3.502  0.4638  0.4988  0.8455
 4340TIP3    H234656   3.558   5.176   3.571  1.4593  0.7000 -1.0269
 4341TIP3   OH234657   3.975   3.487   2.596 -0.0271 -0.0999 -0.0080
 4341TIP3    H134658   4.014   3.415   2.645 -0.7787  1.4932  3.2503
 4341TIP3    H234659   4.041   3.556   2.599 -0.2346  0.1576 -1.0027
 4342TIP3   OH234660   4.151   4.092   1.122  0.1139 -0.6698  0.9511
 4342TIP3    H134661   4.172   4.105   1.214  1.1760 -1.2183  0.8081
 4342TIP3    H234662   4.233   4.061   1.083  0.4265  1.9390 -0.7058
 4343TIP3   OH234663   3.133   0.571   0.788 -0.4658  0.7610  0.0350
 4343TIP3    H134664   3.083   0.535   0.715  0.9087 -1.9375  0.3074
 4343TIP3    H234665   3.104   0.521   0.864  2.1694 -0.5592  0.2822
 4344TIP3   OH234666   2.504   0.058   9.816 -0.5606 -0.1662 -0.0480
 4344TIP3    H134667   2.501   0.010   9.733 -2.8444  1.3767 -0.9645
 4344TIP3    H234668   2.449   0.007   9.875  1.7088 -1.7002  0.8669
 4345TIP3   OH234669   2.903   1.751   8.672  0.3035 -0.2224  0.0191
 4345TIP3    H134670   2.925   1.782   8.584  0.4613 -0.1575  0.0818
 4345TIP3    H234671   2.817   1.790   8.690 -0.0573 -0.8053 -0.3872
 4346TIP3   OH234672   1.977   0.492   9.416  0.4995 -0.1783  0.2511
 4346TIP3    H134673   1.924   0.570   9.398 -0.1911 -0.9191 -1.0397
 4346TIP3    H234674   2.063   0.527   9.438  0.2811  0.9538 -0.5924
 4347TIP3   OH234675   3.872   3.124   1.060 -0.0626 -0.0959 -0.2875
 4347TIP3    H134676   3.862   3.090   1.149  2.2331 -1.2343 -0.4175
 4347TIP3    H234677   3.860   3.219   1.070  0.2663 -0.1887  1.2455
 4348TIP3   OH234678   1.896   3.210   2.029 -0.0801  0.0514 -0.0715
 4348TIP3    H134679   1.973   3.257   2.000  0.3317 -0.3711  0.3258
 4348TIP3    H234680   1.913   3.187   2.120  0.0208 -1.4143 -0.4240
 4349TIP3   OH234681   1.694   3.896   3.061  0.4466  0.3296  0.3469
 4349TIP3    H134682   1.680   3.939   2.976  1.7976  1.3430  0.6133
 4349TIP3    H234683   1.666   3.961   3.125 -0.8243 -0.5370  0.6992
 4350TIP3   OH234684   1.740   3.415   0.042 -0.1836  0.2826  0.0053
 4350TIP3    H134685   1.685   3.453   0.110  2.0775 -0.7341  2.5970
 4350TIP3    H234686   1.704   3.327   0.028 -0.9862  0.6896 -0.5770
 4351TIP3   OH234687   5.858   4.969   9.767  0.3233 -0.5776 -0.3176
 4351TIP3    H134688   5.899   5.016   9.694  3.6334 -0.3293  1.5270
 4351TIP3    H234689   5.896   4.882   9.765  0.0363 -0.7481  0.7860
 4352TIP3   OH234690   5.209   5.433   1.013  0.1160  0.2571 -0.5106
 4352TIP3    H134691   5.209   5.500   0.944 -1.5315  1.8236  0.8742
 4352TIP3    H234692   5.222   5.483   1.094  0.1568 -1.2917  0.4728
 4353TIP3   OH234693   5.826   3.513   8.708  0.4845 -0.3340 -0.4009
 4353TIP3    H134694   5.909   3.466   8.698  0.9379  0.2586  0.4598
 4353TIP3    H234695   5.795   3.489   8.795  0.2294  0.1913 -0.3433
 4354TIP3   OH234696   5.884   0.352   8.448  0.4904  0.0607 -0.2172
 4354TIP3    H134697   5.807   0.364   8.392 -0.4049  2.2570  1.3290
 4354TIP3    H234698   5.861   0.280   8.506 -0.1074  0.2099 -0.2652
 4355TIP3   OH234699   0.908   0.344   9.989 -0.5747  0.2142  0.0166
 4355TIP3    H134700   0.836   0.316   9.932  0.0110 -0.4843 -0.4051
 4355TIP3    H234701   0.926   0.434   9.963  0.7273 -0.5753 -2.0564
 4356TIP3   OH234702   1.020   5.170   9.340  0.2210  0.2481 -0.1430
 4356TIP3    H134703   0.983   5.256   9.356 -2.7121 -0.9530  0.1354
 4356TIP3    H234704   1.061   5.145   9.423 -1.7643  0.1207  0.8440
 4357TIP3   OH234705   3.609   5.283   8.369  0.5476  0.1463  0.3155
 4357TIP3    H134706   3.663   5.346   8.416 -0.1021  0.2561  0.9273
 4357TIP3    H234707   3.538   5.336   8.331 -0.7448 -0.3395  1.9129
 4358TIP3   OH234708   2.963   4.122   3.090 -0.1508 -0.2762  0.1963
 4358TIP3    H134709   2.888   4.107   3.033 -0.1152 -1.0227  0.3339
 4358TIP3    H234710   2.958   4.053   3.156  0.2758  0.0750  0.6076
 4359TIP3   OH234711   1.545   1.477   9.491 -0.1471  0.6620 -0.0778
 4359TIP3    H134712   1.484   1.432   9.549  1.1906  0.6081  1.3676
 4359TIP3    H234713   1.526   1.570   9.503 -0.8530  0.6084 -0.7065
 4360TIP3   OH234714   0.111   2.756   0.695 -0.7590 -1.1321  0.3073
 4360TIP3    H134715   0.191   2.754   0.749 -0.2619  1.2208 -0.2415
 4360TIP3    H234716   0.042   2.783   0.755 -0.1607  1.7267 -0.1722
 4361TIP3   OH234717   5.362   4.719   1.890  0.7375 -0.3845 -0.1306
 4361TIP3    H134718   5.339   4.647   1.949 -0.0219 -1.3733 -1.5812
 4361TIP3    H234719   5.278   4.746   1.851  1.0799  0.9568 -0.0071
 4362TIP3   OH234720   2.209   5.822   8.564  0.1763  0.5160 -0.4007
 4362TIP3    H134721   2.170   5.768   8.496  0.1179  1.0564 -0.8053
 4362TIP3    H234722   2.215   5.765   8.641  0.0736 -0.0389 -0.8071
 4363TIP3   OH234723   2.454   3.636   1.815 -0.7755 -0.5389 -0.2491
 4363TIP3    H134724   2.508   3.562   1.789 -0.7077 -1.1002  1.3865
 4363TIP3    H234725   2.517   3.705   1.836 -0.8532  0.7730 -3.6923
 4364TIP3   OH234726   3.773   5.739   2.749  0.3466 -0.6320  0.4742
 4364TIP3    H134727   3.800   5.690   2.827 -1.3624  0.4808  1.8491
 4364TIP3    H234728   3.778   5.830   2.776 -1.5367 -0.2774 -0.2689
 4365TIP3   OH234729   2.762   1.768   0.938  0.3275 -0.0056  0.3901
 4365TIP3    H134730   2.702   1.832   0.900 -0.9502 -1.8686 -0.8594
 4365TIP3    H234731   2.707   1.711   0.991  1.3809 -0.3510  1.1577
 4366TIP3   OH234732   0.800   5.474   1.072 -0.0145 -0.2056 -0.1310
 4366TIP3    H134733   0.824   5.384   1.051  1.2844 -0.1267  0.9020
 4366TIP3    H234734   0.706   5.470   1.092  0.0492 -1.3387 -0.0115
 4367TIP3   OH234735   2.597   1.495   8.101  0.3509  0.5163  0.1795
 4367TIP3    H134736   2.691   1.500   8.117  0.3660  0.5608  0.0777
 4367TIP3    H234737   2.590   1.476   8.007  0.2277  2.0977 -0.1581
 4368TIP3   OH234738   2.567   3.151   1.247  0.2126 -0.0951 -0.2976
 4368TIP3    H134739   2.621   3.109   1.181  0.6291  1.3661 -0.9372
 4368TIP3    H234740   2.522   3.222   1.200  0.1394  0.6665  0.8625
 4369TIP3   OH234741   2.852   2.896   2.017  0.1892  0.3012 -0.4169
 4369TIP3    H134742   2.901   2.942   2.085  0.6225 -0.0353 -0.4982
 4369TIP3    H234743   2.761   2.920   2.033  0.3974  1.1788 -0.4490
 4370TIP3   OH234744   1.777   0.759   7.656 -0.0856  1.2201  0.3273
 4370TIP3    H134745   1.829   0.681   7.637 -0.3597  1.2030 -0.3802
 4370TIP3    H234746   1.806   0.823   7.592 -0.2560  1.5171  0.5462
 4371TIP3   OH234747   0.276   3.532   9.753  0.2344 -0.1080 -0.5285
 4371TIP3    H134748   0.309   3.499   9.836  0.5784  0.3099 -0.4932
 4371TIP3    H234749   0.304   3.467   9.688  1.8841  0.6383 -0.6205
 4372TIP3   OH234750   6.143   0.556   8.186  0.0406 -0.1624  0.3753
 4372TIP3    H134751   6.199   0.632   8.203  0.0138 -0.1584  0.4425
 4372TIP3    H234752   6.073   0.590   8.130 -1.0256  0.2804  1.9361
 4373TIP3   OH234753   2.791   5.396   3.121 -0.1148 -0.0437  0.2062
 4373TIP3    H134754   2.879   5.359   3.113 -0.6365 -1.1264 -0.8517
 4373TIP3    H234755   2.806   5.491   3.125  1.1237 -0.2356  0.6018
 4374TIP3   OH234756   4.894   5.468   9.847 -0.1241  0.0908 -0.3373
 4374TIP3    H134757   4.902   5.445   9.940  2.5198  1.7522 -0.0403
 4374TIP3    H234758   4.972   5.520   9.829 -1.0920  0.6937 -3.2642
 4375TIP3   OH234759   0.028   1.726   3.096 -0.3799  0.4773 -0.4092
 4375TIP3    H134760   0.061   1.714   3.007  2.1511  0.5053  0.4382
 4375TIP3    H234761   0.092   1.681   3.151 -1.0426  1.7469  1.4913
 4376TIP3   OH234762   2.646   3.543   1.468  0.0853  0.1792  0.2546
 4376TIP3    H134763   2.707   3.571   1.536  0.9591 -0.2379 -0.3386
 4376TIP3    H234764   2.628   3.622   1.417  2.3929 -0.1906 -1.2995
 4377TIP3   OH234765   3.308   5.268   0.193  0.2136  0.0491  0.2787
 4377TIP3    H134766   3.313   5.174   0.180  0.9340 -0.1222  1.6351
 4377TIP3    H234767   3.261   5.301   0.116  0.8898 -1.2825 -0.7257
 4378TIP3   OH234768   3.575   4.968   9.481  0.2371 -0.1442  0.4012
 4378TIP3    H134769   3.642   4.999   9.542  1.8599 -1.7363 -0.4697
 4378TIP3    H234770   3.528   4.900   9.529  0.7321 -0.5710  0.2891
 4379TIP3   OH234771   5.982   2.344   8.922 -0.1832  0.2241  0.2698
 4379TIP3    H134772   6.025   2.400   8.857  0.6675  1.6769  1.9930
 4379TIP3    H234773   5.888   2.356   8.904 -0.0126  1.9350  0.3330
 4380TIP3   OH234774   4.779   4.625   1.977  1.1512  0.5851 -0.4852
 4380TIP3    H134775   4.749   4.712   2.002  0.5887 -0.3477  2.4503
 4380TIP3    H234776   4.736   4.608   1.893 -0.4746  2.2458 -0.0548
 4381TIP3   OH234777   3.647   1.400   1.605  0.2166 -0.5995 -0.7431
 4381TIP3    H134778   3.571   1.405   1.548 -0.1095 -1.4722 -0.4051
 4381TIP3    H234779   3.626   1.331   1.668  0.2369  0.8362  0.9120
 4382TIP3   OH234780   6.070   3.872   2.886 -0.2623  0.0929  0.1352
 4382TIP3    H134781   6.048   3.932   2.815  0.2975  1.1936  0.8685
 4382TIP3    H234782   6.015   3.899   2.959 -1.1593 -1.3140  0.0276
 4383TIP3   OH234783   2.571   2.987   0.469  0.8072 -0.4879  0.7375
 4383TIP3    H134784   2.599   3.056   0.530  0.8920 -1.1577  1.4669
 4383TIP3    H234785   2.545   2.914   0.525 -0.1330 -0.7397 -0.0086
 4384TIP3   OH234786   5.766   1.820   1.358 -0.0821  0.0672 -1.0336
 4384TIP3    H134787   5.693   1.800   1.416  0.5135  0.7749 -0.0121
 4384TIP3    H234788   5.754   1.912   1.335  1.1655  0.5530  0.1674
 4385TIP3   OH234789   0.992   0.108   0.095  0.2546  0.0010  0.4156
 4385TIP3    H134790   0.908   0.065   0.079  0.6619 -0.6397 -0.0535
 4385TIP3    H234791   0.976   0.201   0.077 -0.3355 -0.1254  0.2725
 4386TIP3   OH234792   0.057   2.051   0.542 -0.2992 -0.4463  0.1006
 4386TIP3    H134793   0.121   2.069   0.611  0.8050 -2.3656 -0.3431
 4386TIP3    H234794   0.021   2.137   0.520  1.1305  0.5277  1.3343
 4387TIP3   OH234795   5.658   4.176   0.068  0.3522 -0.0324  0.0953
 4387TIP3    H134796   5.714   4.099   0.078  1.8608  0.9696 -0.4018
 4387TIP3    H234797   5.694   4.240   0.129  0.7442  1.1691 -1.3577
 4388TIP3   OH234798   1.932   1.312   8.825 -0.0413 -0.5616  0.2058
 4388TIP3    H134799   1.898   1.328   8.913  0.5340 -2.2828  0.7780
 4388TIP3    H234800   2.014   1.362   8.821 -1.1992  1.4456 -0.2513
 4389TIP3   OH234801   5.400   1.657   8.885 -0.6195  0.4679 -0.2238
 4389TIP3    H134802   5.350   1.701   8.815  0.3629  1.5628 -0.2621
 4389TIP3    H234803   5.484   1.636   8.844 -0.7998 -0.7954  0.0288
 4390TIP3   OH234804   6.352   6.293   8.875 -0.2145 -0.1236  0.5636
 4390TIP3    H134805   6.399   6.283   8.792 -1.0153 -0.8742  0.1833
 4390TIP3    H234806   6.340   6.203   8.906  1.4990  0.1883  2.3346
 4391TIP3   OH234807   2.135   2.186   8.274  0.2264 -0.4372 -0.2879
 4391TIP3    H134808   2.229   2.203   8.278  0.0508  0.2696  2.1631
 4391TIP3    H234809   2.121   2.111   8.332 -0.9584  0.8723  1.2184
 4392TIP3   OH234810   2.063   2.311   0.837  0.0108 -0.1409  0.2181
 4392TIP3    H134811   2.100   2.372   0.901 -1.0468  2.0560 -1.1316
 4392TIP3    H234812   1.976   2.291   0.871 -0.1961  0.2851 -0.0521
 4393TIP3   OH234813   6.071   0.117   1.840  0.2486  0.2975  0.1654
 4393TIP3    H134814   6.027   0.174   1.903 -0.4271  1.5207 -1.3253
 4393TIP3    H234815   6.000   0.074   1.792  0.7224 -2.8077  1.9887
 4394TIP3   OH234816   1.803   2.700   9.725  0.2274  0.0125 -0.1256
 4394TIP3    H134817   1.707   2.703   9.718  0.2645  1.0154 -0.3990
 4394TIP3    H234818   1.829   2.628   9.667 -0.5672 -2.8957  2.8514
 4395TIP3   OH234819   3.329   3.416   2.877 -0.5984 -0.4573  0.0745
 4395TIP3    H134820   3.338   3.323   2.899  1.3175 -0.2861  0.2145
 4395TIP3    H234821   3.333   3.418   2.781 -0.2223 -0.4991  0.0867
 4396TIP3   OH234822   1.019   0.929   7.957  0.3969  0.9400 -0.1292
 4396TIP3    H134823   1.008   0.960   7.867 -1.3313 -0.1250 -0.3107
 4396TIP3    H234824   1.073   0.997   7.999 -1.5876  3.2120 -1.0476
 4397TIP3   OH234825   0.091   2.103   8.850 -0.7821  0.1332 -0.0034
 4397TIP3    H134826   0.104   2.013   8.883  1.0580  0.7563  1.1494
 4397TIP3    H234827   0.049   2.149   8.922 -0.6643  0.4765 -0.1530
 4398TIP3   OH234828   1.531   2.342   8.104  0.0661 -0.1126 -0.3789
 4398TIP3    H134829   1.616   2.385   8.105 -0.1515  0.3271  0.5270
 4398TIP3    H234830   1.530   2.292   8.023  1.3280 -0.4018 -0.2325
 4399TIP3   OH234831   0.435   6.020   0.196  0.2903 -0.2531  0.5587
 4399TIP3    H134832   0.394   5.974   0.122 -0.5326  0.5403  0.5055
 4399TIP3    H234833   0.521   5.979   0.205  0.7190  0.1650 -1.3416
 4400TIP3   OH234834   1.092   4.743   2.240 -0.3626 -0.1341 -0.1360
 4400TIP3    H134835   1.001   4.747   2.211 -0.0871 -0.6836 -1.1393
 4400TIP3    H234836   1.087   4.735   2.335 -1.2937  1.9478  0.0272
 4401TIP3   OH234837   2.029   2.050   0.987 -0.0018 -0.1391 -0.0960
 4401TIP3    H134838   2.074   1.968   0.967  1.2986  0.3469  0.7041
 4401TIP3    H234839   2.092   2.100   1.039 -0.7896  1.3352 -0.4920
 4402TIP3   OH234840   1.247   2.185   8.763  0.1768  0.5501 -0.2310
 4402TIP3    H134841   1.258   2.280   8.756 -1.5715  0.9750  1.9547
 4402TIP3    H234842   1.176   2.164   8.703 -2.0068  1.2829  1.9495
 4403TIP3   OH234843   4.750   6.007   2.235 -0.1416  0.4565 -0.3589
 4403TIP3    H134844   4.674   5.960   2.269  0.7931 -0.9461 -0.1392
 4403TIP3    H234845   4.734   6.099   2.257 -1.4325  0.0878  0.3003
 4404TIP3   OH234846   0.359   0.996   1.328 -0.2182  0.3417  0.1819
 4404TIP3    H134847   0.290   1.016   1.392 -0.3673  1.4158 -0.2919
 4404TIP3    H234848   0.325   1.027   1.245  0.4051 -0.1010 -0.2503
 4405TIP3   OH234849   2.008   0.105   9.848  0.2959  0.0592  0.9122
 4405TIP3    H134850   2.068   0.077   9.917  1.2919 -2.0863 -0.7097
 4405TIP3    H234851   1.973   0.023   9.813 -1.0148  1.1467 -0.4123
 4406TIP3   OH234852   0.029   2.369   0.219  0.3307  0.2809  0.3829
 4406TIP3    H134853  -0.044   2.307   0.219 -0.4604  1.2035  0.5457
 4406TIP3    H234854   0.081   2.344   0.295  0.4867 -0.7101 -0.0277
 4407TIP3   OH234855   1.797   5.159   9.937 -0.4739 -0.3249  1.0949
 4407TIP3    H134856   1.741   5.220   9.986  0.1659  0.5609  0.7516
 4407TIP3    H234857   1.737   5.092   9.905 -1.8900  2.0482 -1.6375
 4408TIP3   OH234858   0.518   6.352   9.356 -0.5996 -0.2248 -0.3372
 4408TIP3    H134859   0.608   6.353   9.389 -1.1764  0.5705  1.3246
 4408TIP3    H234860   0.483   6.438   9.378 -1.7595 -0.4873 -1.0444
 4409TIP3   OH234861   4.731   3.273   1.139  0.0475 -0.1771  0.3258
 4409TIP3    H134862   4.644   3.313   1.146 -0.5028 -1.6034  3.5338
 4409TIP3    H234863   4.791   3.347   1.133 -1.2619  0.9054  0.0422
 4410TIP3   OH234864   4.834   0.863   2.229 -0.1079  0.1866 -0.5705
 4410TIP3    H134865   4.757   0.904   2.189  0.0071  0.3446 -0.6302
 4410TIP3    H234866   4.900   0.862   2.160 -1.1678 -3.2701 -1.7635
 4411TIP3   OH234867   6.227   0.891   1.178 -0.1505 -0.6150 -0.4553
 4411TIP3    H134868   6.166   0.851   1.240 -0.4063  1.7274  0.9232
 4411TIP3    H234869   6.311   0.890   1.224 -0.0244 -0.1726 -0.6762
 4412TIP3   OH234870   0.048   0.160   1.864  0.2163  0.1951 -0.6254
 4412TIP3    H134871   0.118   0.156   1.930 -0.2883 -1.7090 -0.1334
 4412TIP3    H234872  -0.019   0.100   1.897 -0.6352  0.2089 -2.2315
 4413TIP3   OH234873   4.781   1.703   2.139 -0.5174 -0.3285  0.0329
 4413TIP3    H134874   4.742   1.744   2.216 -0.2948 -1.2203  0.6307
 4413TIP3    H234875   4.752   1.758   2.066  1.2519  2.0090  0.9576
 4414TIP3   OH234876   4.759   0.106   2.055  0.6646  0.6317  0.1011
 4414TIP3    H134877   4.835   0.090   2.000  0.7671  0.5668  0.2597
 4414TIP3    H234878   4.796   0.134   2.139  0.5296 -0.0418  0.3864
 4415TIP3   OH234879   2.739   3.051   9.004  0.1410 -0.9080  0.0109
 4415TIP3    H134880   2.715   2.992   9.076 -1.4803 -0.8643 -0.4460
 4415TIP3    H234881   2.834   3.041   8.995  0.4258 -0.7655  2.2639
 4416TIP3   OH234882   1.703   5.708   0.875 -0.3690 -0.2458  0.2629
 4416TIP3    H134883   1.608   5.704   0.885 -0.2396 -1.2762  1.2849
 4416TIP3    H234884   1.720   5.799   0.850 -1.6420 -0.1358 -0.3001
 4417TIP3   OH234885   2.996   6.320   0.095  0.2899 -0.3183 -0.2720
 4417TIP3    H134886   3.010   6.392   0.157 -0.6639 -0.5349  0.2157
 4417TIP3    H234887   2.904   6.297   0.106 -0.2713  0.5049 -2.7048
 4418TIP3   OH234888   5.783   0.579   2.103  0.0702  0.0423  0.6425
 4418TIP3    H134889   5.761   0.512   2.038  2.1059 -0.5242  0.4705
 4418TIP3    H234890   5.847   0.537   2.160  0.4635  1.4567  1.2959
 4419TIP3   OH234891   2.478   1.020   0.699 -0.1230 -0.8173  0.0047
 4419TIP3    H134892   2.416   1.072   0.749 -0.7579 -0.2175 -1.3570
 4419TIP3    H234893   2.451   0.929   0.713 -0.0395 -0.6893  1.0435
 4420TIP3   OH234894   2.586   3.289   1.553  0.2013  0.4462 -0.0566
 4420TIP3    H134895   2.619   3.370   1.514 -0.0861  0.2363 -0.7462
 4420TIP3    H234896   2.580   3.309   1.647 -0.8256  1.5606 -0.3386
 4421TIP3   OH234897   4.288   1.513   1.972  0.6096  0.4234  0.4585
 4421TIP3    H134898   4.240   1.592   1.996  1.5129  0.9773  0.5160
 4421TIP3    H234899   4.371   1.521   2.019  1.6316  0.5733 -1.2794
 4422TIP3   OH234900   6.169   1.015   8.056 -0.3283  0.1802  0.3169
 4422TIP3    H134901   6.257   1.046   8.076 -0.6225  1.3166 -0.0443
 4422TIP3    H234902   6.111   1.082   8.095 -1.1279 -1.6092  2.4477
 4423TIP3   OH234903   5.832   4.335   3.324 -0.1765  0.3822 -0.1718
 4423TIP3    H134904   5.864   4.385   3.398  0.3371  0.5441 -0.5007
 4423TIP3    H234905   5.737   4.330   3.338 -0.4116  2.3888 -0.6901
 4424TIP3   OH234906   0.501   1.510   0.036 -0.0196 -0.1003 -0.3011
 4424TIP3    H134907   0.470   1.596   0.009 -0.2435 -0.2840 -0.6413
 4424TIP3    H234908   0.473   1.501   0.127  1.4977  0.8856  0.2999
 4425TIP3   OH234909   5.941   5.479   9.147  0.0624  0.1873 -0.0444
 4425TIP3    H134910   5.991   5.485   9.228 -0.6361 -0.1453  0.4136
 4425TIP3    H234911   6.006   5.458   9.080  0.1230 -3.9086  1.0864
 4426TIP3   OH234912   5.109   0.844   0.302  0.1602 -0.3869 -0.0848
 4426TIP3    H134913   5.053   0.881   0.235 -1.1087 -0.5722  0.8494
 4426TIP3    H234914   5.066   0.763   0.328  2.1100 -1.8266 -1.0370
 4427TIP3   OH234915   2.796   0.150   0.238  0.0609  0.1187  0.6283
 4427TIP3    H134916   2.739   0.118   0.167 -1.7703  1.1164  1.5752
 4427TIP3    H234917   2.821   0.071   0.286  0.9200 -0.5166 -0.7931
 4428TIP3   OH234918   4.895   5.670   9.238  0.2911 -0.9234  0.4842
 4428TIP3    H134919   4.949   5.671   9.159 -0.0359 -0.5841  0.2598
 4428TIP3    H234920   4.847   5.587   9.234  0.0509 -0.7732  0.1682
 4429TIP3   OH234921   4.209   2.666   0.668  0.0170  0.1295 -0.6512
 4429TIP3    H134922   4.149   2.741   0.670  0.5907  0.5841  0.4296
 4429TIP3    H234923   4.287   2.697   0.714  0.8313 -0.6691 -1.4659
 4430TIP3   OH234924   0.518   6.387   1.809  0.6745  0.0622 -0.0110
 4430TIP3    H134925   0.550   6.470   1.843  0.0589  0.3598 -0.1318
 4430TIP3    H234926   0.451   6.412   1.744  1.0411 -0.5118 -0.6278
 4431TIP3   OH234927   5.036   3.923   3.427 -0.2623  0.2693  0.0575
 4431TIP3    H134928   5.073   3.914   3.515 -1.0537 -1.5994  0.2533
 4431TIP3    H234929   5.094   3.983   3.382  0.7608  0.4366  1.5368
 4432TIP3   OH234930   1.489   0.651   9.759 -0.2701 -0.1164  0.0365
 4432TIP3    H134931   1.433   0.579   9.731  0.0477 -0.3280 -0.0714
 4432TIP3    H234932   1.434   0.705   9.816 -0.6568 -0.1745 -0.2780
 4433TIP3   OH234933   5.027   2.232   9.924 -0.1282  0.2154 -0.2851
 4433TIP3    H134934   4.985   2.211   9.840 -0.5917 -1.1122  0.2586
 4433TIP3    H234935   4.956   2.268   9.977  0.0807  0.6930 -0.3231
 4434TIP3   OH234936   1.369   1.887   0.482  0.3383 -0.7291 -0.1016
 4434TIP3    H134937   1.459   1.859   0.501  0.7524 -0.0022 -0.9240
 4434TIP3    H234938   1.349   1.847   0.397  1.1792  1.8788 -1.6315
 4435TIP3   OH234939   5.823   5.387   9.794  0.4348  0.4711  0.0246
 4435TIP3    H134940   5.903   5.376   9.845 -0.2066 -0.0629  0.9502
 4435TIP3    H234941   5.765   5.437   9.851 -0.0506  0.4728 -0.4561
 4436TIP3   OH234942   1.457   2.807   3.558  0.1956 -0.1621 -0.4510
 4436TIP3    H134943   1.406   2.862   3.498  1.9665  1.4118 -0.6282
 4436TIP3    H234944   1.492   2.869   3.622 -0.9098 -1.6875  1.7226
 4437TIP3   OH234945   3.418   1.409   1.410 -0.2299  0.2170 -0.2830
 4437TIP3    H134946   3.465   1.452   1.339  1.0826  0.9218  0.9493
 4437TIP3    H234947   3.336   1.458   1.418  1.1838  2.5807  1.0192
 4438TIP3   OH234948   1.846   3.117   9.402 -0.5383 -0.4300  0.0534
 4438TIP3    H134949   1.873   3.205   9.425 -1.1949 -0.2848  0.2859
 4438TIP3    H234950   1.876   3.105   9.312  1.3045 -0.6982  0.6489
 4439TIP3   OH234951   2.712   0.504   2.078 -0.3977 -1.0725  0.0442
 4439TIP3    H134952   2.669   0.587   2.059  0.3982 -1.0842 -1.9921
 4439TIP3    H234953   2.799   0.528   2.109 -0.4532 -1.1450  0.2612
 4440TIP3   OH234954   4.033   1.938   3.007  0.5053 -0.2259  0.3336
 4440TIP3    H134955   4.006   1.943   3.099  1.3648  2.1519  0.5478
 4440TIP3    H234956   3.953   1.917   2.959  0.0158 -1.3415  1.5891
 4441TIP3   OH234957   2.363   3.057   0.291  0.7555  0.2354 -0.0304
 4441TIP3    H134958   2.446   3.029   0.331  0.7160 -1.6745 -1.2011
 4441TIP3    H234959   2.349   3.145   0.326  2.8702  0.2942  0.8227
 4442TIP3   OH234960   4.467   2.574   0.848  0.0967  0.1000 -0.0979
 4442TIP3    H134961   4.558   2.588   0.822 -0.1535  1.4266 -0.3454
 4442TIP3    H234962   4.465   2.485   0.881  1.2211 -0.3838 -1.2375
 4443TIP3   OH234963   2.030   1.985   8.110 -0.6089  0.5615  0.3771
 4443TIP3    H134964   2.064   2.058   8.161  3.8332 -0.2197 -1.0413
 4443TIP3    H234965   2.003   2.025   8.027  2.9461  0.6800 -0.8745
 4444TIP3   OH234966   0.095   4.007   7.906 -0.4041  0.1556  0.8673
 4444TIP3    H134967   0.177   4.026   7.950 -0.1094  1.1594 -0.0599
 4444TIP3    H234968   0.118   3.943   7.838 -0.8072 -1.1908  1.9604
 4445TIP3   OH234969   1.059   0.765   8.456  0.3085 -0.0166 -0.0767
 4445TIP3    H134970   1.085   0.856   8.469  1.8349 -0.3282 -0.6560
 4445TIP3    H234971   0.978   0.755   8.506 -0.7896  2.0640 -1.3172
 4446TIP3   OH234972   0.489   5.179   8.758 -1.0174 -0.0628 -0.0951
 4446TIP3    H134973   0.518   5.250   8.701  0.7315 -0.9781 -0.4176
 4446TIP3    H234974   0.518   5.099   8.712  1.4896 -0.8216  2.5240
 4447TIP3   OH234975   2.244   1.813   1.682  0.6646 -0.0368 -0.4465
 4447TIP3    H134976   2.229   1.785   1.773  1.7277  0.3924 -0.1295
 4447TIP3    H234977   2.191   1.892   1.672  1.2923  0.4638  0.1081
 4448TIP3   OH234978   0.133   3.340   1.104 -0.2784 -0.1993  0.7312
 4448TIP3    H134979   0.157   3.291   1.025  1.0649  1.9065 -0.2563
 4448TIP3    H234980   0.148   3.278   1.176  3.2765 -0.7603 -0.2806
 4449TIP3   OH234981   0.782   6.228   0.625 -0.2967 -0.2623  0.8865
 4449TIP3    H134982   0.829   6.273   0.555  0.3948 -0.6360  1.0987
 4449TIP3    H234983   0.850   6.203   0.687 -0.8606 -0.2371  1.5276
 4450TIP3   OH234984   2.822   5.149   0.590  0.3781  0.0354 -0.0296
 4450TIP3    H134985   2.906   5.193   0.597  1.4702 -1.8755 -0.5251
 4450TIP3    H234986   2.814   5.097   0.670  0.2612 -0.7514 -0.5354
 4451TIP3   OH234987   2.778   2.803   2.907  0.1336  0.0363 -0.2299
 4451TIP3    H134988   2.683   2.805   2.916  0.2718 -1.1158  2.1269
 4451TIP3    H234989   2.803   2.713   2.930  1.8041  0.3247 -0.7448
 4452TIP3   OH234990   6.234   0.593   8.646 -0.1051  0.1483  0.0797
 4452TIP3    H134991   6.289   0.514   8.650 -1.2652 -0.7700 -1.1422
 4452TIP3    H234992   6.146   0.560   8.633 -0.5853  1.6653 -0.7665
 4453TIP3   OH234993   2.887   2.374   2.260  0.4474  0.2881 -0.1433
 4453TIP3    H134994   2.952   2.416   2.317 -0.1543 -0.1671  0.9189
 4453TIP3    H234995   2.864   2.441   2.197 -0.1201  1.4122  1.2066
 4454TIP3   OH234996   1.521   1.070   0.294  0.0438  0.1332  0.2429
 4454TIP3    H134997   1.531   1.073   0.389 -1.0249  2.0243  0.3339
 4454TIP3    H234998   1.555   1.154   0.263 -1.1487  0.2372 -0.8808
 4455TIP3   OH234999   3.359   6.045   8.856  0.2836 -0.2104  0.3789
 4455TIP3    H135000   3.424   5.975   8.863  1.5143  0.7788 -0.7542
 4455TIP3    H235001   3.377   6.102   8.931 -0.1116 -0.5857  0.7683
 4456TIP3   OH235002   5.033   1.396   1.206  0.7217  0.0816  0.7500
 4456TIP3    H135003   5.086   1.401   1.127  1.2430 -0.9528  1.0181
 4456TIP3    H235004   4.944   1.419   1.177  0.2041 -3.2919 -0.8722
 4457TIP3   OH235005   5.491   0.832   1.573  0.7700  0.6099 -0.3026
 4457TIP3    H135006   5.424   0.763   1.572 -1.4765  2.6290  0.3622
 4457TIP3    H235007   5.559   0.799   1.631 -0.7960 -0.5751  0.9574
 4458TIP3   OH235008   2.959   1.478   1.044  0.0175  0.5845  0.4371
 4458TIP3    H135009   2.948   1.438   1.130 -2.2737  1.1146  0.4670
 4458TIP3    H235010   3.051   1.505   1.041  0.3181 -0.0854  2.4164
 4459TIP3   OH235011   3.539   4.072   2.634 -0.2476 -0.4555 -0.2903
 4459TIP3    H135012   3.509   4.012   2.566 -2.6298 -0.0132  0.3092
 4459TIP3    H235013   3.541   4.019   2.714 -2.3244  0.1838  0.2336
 4460TIP3   OH235014   4.322   1.227   2.082  0.5949 -0.8883  0.6410
 4460TIP3    H135015   4.331   1.180   2.165 -0.8163 -0.3497  1.1257
 4460TIP3    H235016   4.230   1.255   2.080  0.7187 -0.4979 -0.8947
 4461TIP3   OH235017   4.812   4.588   2.893 -0.2935  0.2871  0.7396
 4461TIP3    H135018   4.774   4.676   2.890 -0.1307  0.6716  4.6211
 4461TIP3    H235019   4.862   4.580   2.812  1.2090  4.5142  1.0450
 4462TIP3   OH235020   6.219   0.441   7.504  0.1941  0.3187 -0.1470
 4462TIP3    H135021   6.238   0.533   7.482 -2.2986  0.7612 -0.6939
 4462TIP3    H235022   6.249   0.392   7.428  0.4478  0.8029 -0.3653
 4463TIP3   OH235023   3.544   4.782   3.513 -0.3865 -0.0132  0.1376
 4463TIP3    H135024   3.598   4.859   3.535  0.7740 -0.5251 -0.8050
 4463TIP3    H235025   3.454   4.815   3.512  0.1331  1.4862 -0.8194
 4464TIP3   OH235026   4.252   5.340   3.129 -0.0381 -0.5518  0.0105
 4464TIP3    H135027   4.306   5.369   3.055 -0.0102 -1.3454 -0.2791
 4464TIP3    H235028   4.211   5.421   3.160  1.2104  0.0618  0.1558
 4465TIP3   OH235029   5.172   3.677   0.067 -0.3774  0.0402 -0.0221
 4465TIP3    H135030   5.214   3.716  -0.010 -0.8231  0.1630 -0.2080
 4465TIP3    H235031   5.107   3.617   0.031 -0.0181 -0.5215  0.2641
 4466TIP3   OH235032   4.008   2.479  10.012  0.3607 -0.0388 -0.1157
 4466TIP3    H135033   4.089   2.486   9.962 -0.6238  1.0066 -1.6951
 4466TIP3    H235034   3.956   2.554   9.983 -0.8919 -0.2872  1.3683
 4467TIP3   OH235035   5.489   0.901   9.789 -0.4460  0.1763 -0.0278
 4467TIP3    H135036   5.534   0.983   9.807  0.2905  0.4474 -2.7393
 4467TIP3    H235037   5.396   0.923   9.795 -0.4495 -0.0271  3.9995
 4468TIP3   OH235038   4.593   4.166   2.991  0.0478  0.0794 -0.8552
 4468TIP3    H135039   4.538   4.149   3.067  2.6089  0.4416  1.2263
 4468TIP3    H235040   4.614   4.259   2.997  1.2674 -0.1503 -1.3025
 4469TIP3   OH235041   6.237   4.005   9.122 -0.0599  0.0941  0.7583
 4469TIP3    H135042   6.160   4.022   9.069  0.5403  0.5254 -0.0013
 4469TIP3    H235043   6.223   3.918   9.158  0.0900 -0.7861 -1.1730
 4470TIP3   OH235044   4.616   5.106   2.137  0.2324 -0.2490  0.3540
 4470TIP3    H135045   4.688   5.106   2.200  0.0836  1.3552  0.5762
 4470TIP3    H235046   4.652   5.150   2.060 -0.5608  0.8371  0.5732
 4471TIP3   OH235047   1.578   0.341  10.015 -0.0506  0.3319  0.9882
 4471TIP3    H135048   1.671   0.346   9.992 -0.2309  1.5015  0.4492
 4471TIP3    H235049   1.533   0.386   9.944 -1.1633 -1.2934  0.6203
 4472TIP3   OH235050   4.665   5.828  10.006  0.2706 -0.3576 -0.3201
 4472TIP3    H135051   4.758   5.845   9.991 -0.0867  1.1681 -1.0658
 4472TIP3    H235052   4.626   5.915  10.016 -1.2494 -0.8911 -1.1613
 4473TIP3   OH235053   0.096   6.073   9.266  0.1703  0.3276  0.8590
 4473TIP3    H135054   0.006   6.103   9.280 -0.2120 -0.0585 -0.6736
 4473TIP3    H235055   0.135   6.139   9.210  0.2562 -0.4661 -0.0363
 4474TIP3   OH235056   0.684   0.512   8.551 -0.5714 -0.4188 -0.2061
 4474TIP3    H135057   0.624   0.496   8.478 -0.6521 -0.4638 -0.1298
 4474TIP3    H235058   0.629   0.553   8.618 -0.1159  1.4344 -0.8858
 4475TIP3   OH235059   6.414   0.367   2.111  0.5867 -0.6166  0.1008
 4475TIP3    H135060   6.382   0.372   2.021  0.9345 -1.3232 -0.0729
 4475TIP3    H235061   6.496   0.318   2.104  2.1742  1.8474  0.4142
 4476TIP3   OH235062   4.946   4.830   2.080 -0.6188 -0.4065  0.0391
 4476TIP3    H135063   4.865   4.874   2.056 -1.4903 -1.9433  0.0926
 4476TIP3    H235064   4.919   4.745   2.115  0.8573  0.0789  2.5612
 4477TIP3   OH235065   1.726   2.875   1.375 -0.1544  0.1341 -0.1940
 4477TIP3    H135066   1.688   2.801   1.422 -2.1826  1.1632 -0.0865
 4477TIP3    H235067   1.749   2.840   1.289 -0.3370 -0.8044  0.1374
 4478TIP3   OH235068   6.401   5.054   0.647  0.0365  0.3033 -0.3885
 4478TIP3    H135069   6.438   5.103   0.574  0.6849 -0.9932 -0.9701
 4478TIP3    H235070   6.392   5.118   0.717  1.3932  1.1302 -0.9258
 4479TIP3   OH235071   2.011   0.618   1.217  0.5241  0.5077  0.0302
 4479TIP3    H135072   1.927   0.613   1.262  1.1795  1.1644  1.3959
 4479TIP3    H235073   2.065   0.552   1.260  0.7144  0.0429 -0.8816
 4480TIP3   OH235074   4.821   6.210   1.750 -0.0230  0.3407 -0.3050
 4480TIP3    H135075   4.869   6.182   1.827 -0.8179 -1.9183 -0.5707
 4480TIP3    H235076   4.829   6.306   1.750  1.7161  0.2469  1.4007
 4481TIP3   OH235077   4.413   4.121   3.189  0.1006  0.0382  0.2718
 4481TIP3    H135078   4.348   4.190   3.203  0.3135 -0.1202  2.3772
 4481TIP3    H235079   4.392   4.055   3.255  3.6197  0.9406  2.6142
 4482TIP3   OH235080   3.539   2.436   0.934 -0.8702 -0.1974  0.1491
 4482TIP3    H135081   3.506   2.347   0.940  0.7141 -0.9053 -0.9621
 4482TIP3    H235082   3.474   2.483   0.882 -1.4736 -0.8209  0.3285
 4483TIP3   OH235083   1.025   0.619   7.887  0.4173 -0.2361  0.0165
 4483TIP3    H135084   1.085   0.552   7.920 -1.3532 -0.4802  3.1929
 4483TIP3    H235085   1.074   0.701   7.898  0.8564 -0.5855  0.7622
 4484TIP3   OH235086   3.834   4.501   3.224 -0.0492 -0.7834 -0.2881
 4484TIP3    H135087   3.840   4.414   3.262 -1.7198 -0.7902  0.0477
 4484TIP3    H235088   3.776   4.550   3.283 -0.7908 -0.0811 -1.5405
 4485TIP3   OH235089   3.006   4.634   0.773 -0.4013  0.0462  0.1567
 4485TIP3    H135090   3.071   4.578   0.816  0.3369 -0.1652 -1.1584
 4485TIP3    H235091   2.960   4.576   0.713 -1.4704  0.3130  0.6968
 4486TIP3   OH235092   1.433   5.673   1.755  0.2434  0.0032  0.9030
 4486TIP3    H135093   1.430   5.665   1.851 -0.0114 -0.0251  0.8924
 4486TIP3    H235094   1.478   5.593   1.726 -2.1512 -1.3885  0.8116
 4487TIP3   OH235095   1.015   0.003   7.760 -0.1256  0.2986  0.2772
 4487TIP3    H135096   1.079   0.056   7.808 -1.0188  0.1399  1.7016
 4487TIP3    H235097   0.942   0.063   7.745 -1.1721 -0.4835  1.9572
 4488TIP3   OH235098   3.877   5.721   2.377 -0.8022 -0.2694  0.3582
 4488TIP3    H135099   3.920   5.715   2.292 -1.6447 -0.6852 -0.0528
 4488TIP3    H235100   3.890   5.811   2.405  0.3872 -0.4015  0.2801
 4489TIP3   OH235101   3.091   2.758   8.806  0.0341  0.3972 -0.5996
 4489TIP3    H135102   3.015   2.812   8.784  0.4362  2.0869  1.7111
 4489TIP3    H235103   3.164   2.799   8.761  0.5652  2.8008  2.1074
 4490TIP3   OH235104   4.558   5.707   1.264 -0.0443  0.2659 -0.0814
 4490TIP3    H135105   4.576   5.801   1.272 -0.6147  0.3981 -0.3149
 4490TIP3    H235106   4.643   5.666   1.278  0.2226  0.8203 -0.0238
 4491TIP3   OH235107   1.146   1.900   0.979  0.4704  0.5799  0.2652
 4491TIP3    H135108   1.162   1.906   1.073 -2.3181 -0.4817  0.9169
 4491TIP3    H235109   1.215   1.843   0.946  1.0229  0.2926  1.8286
 4492TIP3   OH235110   4.715   1.345   2.096 -0.0652  0.1726  0.6263
 4492TIP3    H135111   4.767   1.362   2.174 -0.1778  1.2514  0.4741
 4492TIP3    H235112   4.764   1.278   2.048 -0.5687 -1.3645  2.1690
 4493TIP3   OH235113   0.478   3.091   2.587  0.1710 -0.4758 -0.1178
 4493TIP3    H135114   0.483   3.186   2.575 -0.8722 -0.4345 -0.3479
 4493TIP3    H235115   0.479   3.079   2.682  1.6991 -0.3431 -0.0964
 4494TIP3   OH235116   6.220   2.464  10.025  0.0801 -0.2189  0.3696
 4494TIP3    H135117   6.292   2.401  10.017  0.3725  0.1779 -0.1330
 4494TIP3    H235118   6.155   2.419  10.080  1.2535 -0.0869  1.9320
 4495TIP3   OH235119   1.141   4.509   3.050  0.2180  0.0770  0.2696
 4495TIP3    H135120   1.110   4.421   3.071  0.4104  0.1690  0.9729
 4495TIP3    H235121   1.222   4.518   3.100  0.2563  0.6123  0.1137
 4496TIP3   OH235122   6.325   4.869   2.798 -0.2872 -0.5512  0.7132
 4496TIP3    H135123   6.353   4.780   2.818 -1.3309 -0.8867  0.6843
 4496TIP3    H235124   6.243   4.880   2.845 -0.8545 -0.0636 -0.3586
 4497TIP3   OH235125   3.274   2.526   8.503  0.3294 -0.3532 -0.2643
 4497TIP3    H135126   3.331   2.584   8.554  0.3703 -1.6613  1.2550
 4497TIP3    H235127   3.334   2.478   8.446  0.3256  0.8470 -1.3175
 4498TIP3   OH235128   0.818   1.243   8.047 -0.3748  0.9754 -0.1474
 4498TIP3    H135129   0.745   1.303   8.065  0.4702  1.8731  0.4218
 4498TIP3    H235130   0.895   1.300   8.047  0.2358  0.1826 -1.6236
 4499TIP3   OH235131   4.762   0.263   1.132 -0.0547 -0.2806  0.5435
 4499TIP3    H135132   4.826   0.245   1.201  0.8822  1.3448  0.1461
 4499TIP3    H235133   4.726   0.349   1.154 -0.8348 -0.4065 -0.1869
 4500TIP3   OH235134   4.358   3.585   0.144  0.3287 -0.1045 -0.4102
 4500TIP3    H135135   4.375   3.674   0.114  1.8660  0.2658  1.3635
 4500TIP3    H235136   4.440   3.557   0.184 -0.9353 -1.2431  1.5908
 4501TIP3   OH235137   1.817   2.528   7.633 -0.3092 -0.1914  0.4845
 4501TIP3    H135138   1.803   2.611   7.586 -0.0839 -0.6999 -0.4908
 4501TIP3    H235139   1.911   2.511   7.625 -0.2578 -0.2523  1.1829
 4502TIP3   OH235140   0.102   0.837   9.817 -0.3598 -0.7411 -0.5265
 4502TIP3    H135141   0.045   0.820   9.742 -1.3518 -2.8865  0.6109
 4502TIP3    H235142   0.050   0.810   9.893  0.4272  1.7724  1.0191
 4503TIP3   OH235143   5.884   6.013   0.332 -0.5652  0.2837 -0.3433
 4503TIP3    H135144   5.979   6.011   0.329 -0.5397  0.2472  0.3086
 4503TIP3    H235145   5.863   6.080   0.397 -0.9978  0.6667 -0.8605
 4504TIP3   OH235146   1.369   2.303   2.333 -0.3680  0.1405 -0.7248
 4504TIP3    H135147   1.379   2.388   2.376  0.1654 -0.7388  0.9789
 4504TIP3    H235148   1.450   2.292   2.283 -0.5237  0.7040 -1.1110
 4505TIP3   OH235149   4.144   0.430   9.128 -0.0681 -0.8224  0.5885
 4505TIP3    H135150   4.092   0.497   9.084 -0.1639 -1.3294 -0.0736
 4505TIP3    H235151   4.088   0.399   9.199 -0.3971 -0.8747  0.3069
 4506TIP3   OH235152   2.532   0.479   8.606  0.7186  0.0561  0.4651
 4506TIP3    H135153   2.447   0.438   8.591  1.2466 -1.3227  1.0223
 4506TIP3    H235154   2.549   0.528   8.526  0.4256 -1.5480 -0.6368
 4507TIP3   OH235155   0.186   2.213   2.056  0.4124 -0.5162 -0.1705
 4507TIP3    H135156   0.212   2.274   2.125  0.3836 -0.3409 -0.3139
 4507TIP3    H235157   0.130   2.150   2.100 -2.1755  1.3317 -0.5662
 4508TIP3   OH235158   4.297   2.308   2.169 -0.4092 -0.0684  0.2559
 4508TIP3    H135159   4.230   2.258   2.216 -3.1733  1.9973 -1.1592
 4508TIP3    H235160   4.325   2.375   2.232 -0.4490 -0.3242  0.5436
 4509TIP3   OH235161   5.870   1.138   2.090  0.7418  0.3752  0.0583
 4509TIP3    H135162   5.883   1.224   2.050  0.2048  1.4489  2.0608
 4509TIP3    H235163   5.958   1.108   2.111  0.9312  0.4336 -0.6366
 4510TIP3   OH235164   1.703   4.872   1.537  0.3736 -0.1650 -0.5308
 4510TIP3    H135165   1.760   4.948   1.530  1.0152 -0.4236  1.3562
 4510TIP3    H235166   1.710   4.828   1.452  1.3216  0.9458 -1.0435
 4511TIP3   OH235167   4.355   1.516   1.065 -0.2652  0.0169  0.4080
 4511TIP3    H135168   4.335   1.528   1.158 -0.4318  0.7891  0.2770
 4511TIP3    H235169   4.329   1.598   1.024 -0.7801 -0.5446 -0.4248
 4512TIP3   OH235170   1.016   5.302   1.365  0.1430 -0.0044  0.2083
 4512TIP3    H135171   1.074   5.362   1.412  0.8395 -0.1005 -0.5136
 4512TIP3    H235172   0.928   5.332   1.387  0.4548  0.1788  1.2693
 4513TIP3   OH235173   0.761   5.121   2.724 -0.2063  0.4230  0.0707
 4513TIP3    H135174   0.689   5.177   2.750  0.1628  0.3866  1.2351
 4513TIP3    H235175   0.797   5.088   2.806  1.5336  0.9307 -0.4400
 4514TIP3   OH235176   4.694   2.673   2.295  0.1379  0.0796  0.3968
 4514TIP3    H135177   4.702   2.675   2.200 -0.2304  0.4375  0.3678
 4514TIP3    H235178   4.679   2.581   2.317 -1.0755  0.1557 -0.0143
 4515TIP3   OH235179   4.010   4.669   2.558  0.4705  0.3515 -0.7085
 4515TIP3    H135180   4.007   4.576   2.535  1.0354  0.3102 -0.6253
 4515TIP3    H235181   4.083   4.676   2.619  0.1283  0.7733 -0.3491
 4516TIP3   OH235182   5.832   2.574   2.072 -0.3606  0.1385  0.6535
 4516TIP3    H135183   5.833   2.658   2.026  2.3979  0.5189  1.2237
 4516TIP3    H235184   5.804   2.510   2.006  2.3577  0.8239 -1.3525
 4517TIP3   OH235185   1.455   3.868   1.020  0.5660 -0.1896 -0.7142
 4517TIP3    H135186   1.548   3.890   1.019  0.4630  0.2653 -0.5808
 4517TIP3    H235187   1.433   3.854   0.928  0.5519  0.6638 -0.8529
 4518TIP3   OH235188   4.732   2.299   1.680 -0.2312 -0.3206  0.6241
 4518TIP3    H135189   4.826   2.287   1.694 -0.0653  0.0008 -0.1892
 4518TIP3    H235190   4.716   2.269   1.590 -0.3557  2.4148 -0.3502
 4519TIP3   OH235191   0.462   4.013   0.249 -0.0074  0.3183  0.2542
 4519TIP3    H135192   0.369   3.990   0.249  0.1406 -0.3532  1.2376
 4519TIP3    H235193   0.489   4.008   0.157 -0.7513 -0.2534  0.0637
 4520TIP3   OH235194   3.560   5.786   3.087  0.2306 -0.0660 -0.1404
 4520TIP3    H135195   3.644   5.757   3.124  0.8782  1.0334 -0.7062
 4520TIP3    H235196   3.494   5.733   3.133  1.1748 -0.3916  0.8786
 4521TIP3   OH235197   1.067   1.076   8.556  0.1513  0.1912  0.1138
 4521TIP3    H135198   1.056   1.077   8.461 -2.2607 -2.0660  0.2580
 4521TIP3    H235199   1.003   1.139   8.588  2.5114  2.6789  0.2657
 4522TIP3   OH235200   4.549   0.086   1.307 -0.3420  0.3429 -0.9031
 4522TIP3    H135201   4.635   0.125   1.294 -1.0749  2.0942 -0.8058
 4522TIP3    H235202   4.488   0.159   1.299 -1.8832 -0.9529 -1.5393
 4523TIP3   OH235203   2.839   3.797   2.674 -0.4549  0.2297  0.0519
 4523TIP3    H135204   2.793   3.881   2.671 -0.3571  0.3385  1.2419
 4523TIP3    H235205   2.809   3.755   2.754 -0.8802 -1.1143 -0.7641
 4524TIP3   OH235206   2.988   5.056   8.479  0.7149 -0.2389  0.3197
 4524TIP3    H135207   2.952   5.145   8.476  0.5494 -0.2905  0.7603
 4524TIP3    H235208   2.913   4.999   8.463  0.8629 -0.2979 -0.2037
 4525TIP3   OH235209   6.126   0.027   8.879  0.0418 -0.0170  0.2520
 4525TIP3    H135210   6.044  -0.016   8.855  0.1591 -0.3090  0.3784
 4525TIP3    H235211   6.194  -0.040   8.866  0.4653  0.6691 -1.3434
 4526TIP3   OH235212   5.972   6.066   8.678 -0.2150 -0.0903  0.1207
 4526TIP3    H135213   5.909   6.059   8.750  0.8339  0.2382  1.1005
 4526TIP3    H235214   5.975   5.978   8.641 -2.2274  0.1885 -0.8261
 4527TIP3   OH235215   1.781   3.496   2.943  0.6836 -0.1200 -0.5720
 4527TIP3    H135216   1.770   3.432   3.013 -2.8224  2.5419  1.6699
 4527TIP3    H235217   1.743   3.454   2.866 -1.8973 -0.7606  0.9237
 4528TIP3   OH235218   5.581   4.549   0.149 -0.3576  0.1681  0.4919
 4528TIP3    H135219   5.579   4.644   0.161 -0.6919  0.0355  1.5311
 4528TIP3    H235220   5.675   4.528   0.141 -0.2309  0.4805  1.1247
 4529TIP3   OH235221   5.119   1.092   0.084  0.3513  0.3210 -0.2911
 4529TIP3    H135222   5.184   1.092   0.014 -0.6141  0.8079 -1.2278
 4529TIP3    H235223   5.056   1.025   0.058 -0.8210  1.5350 -0.7030
 4530TIP3   OH235224   1.122   5.447   0.466 -0.4006 -0.2502  0.6197
 4530TIP3    H135225   1.209   5.407   0.476 -0.3617  0.0778  1.6663
 4530TIP3    H235226   1.122   5.521   0.527 -0.8163  0.7932 -0.5799
 4531TIP3   OH235227   3.833   5.850   0.328  0.1442 -0.2016  0.4472
 4531TIP3    H135228   3.913   5.846   0.380  0.5704  3.3801  0.3268
 4531TIP3    H235229   3.822   5.943   0.308 -3.0525 -0.7790 -1.1550
 4532TIP3   OH235230   2.086   2.519   1.355  0.4523 -0.1086  0.0835
 4532TIP3    H135231   2.147   2.447   1.339  1.1189  0.6002 -0.6464
 4532TIP3    H235232   2.021   2.511   1.286 -0.6053 -1.1731  1.1637
 4533TIP3   OH235233   3.504   6.201   9.338 -0.2436 -0.7356 -0.4487
 4533TIP3    H135234   3.554   6.119   9.343 -0.3310 -0.7395  0.8434
 4533TIP3    H235235   3.439   6.194   9.408  0.2905  0.7769  0.2485
 4534TIP3   OH235236   1.400   3.176   1.932 -0.0236 -0.0686  0.0407
 4534TIP3    H135237   1.371   3.149   1.845  2.2928 -1.2402 -0.4707
 4534TIP3    H235238   1.453   3.102   1.963  2.0770  1.6761  0.9416
 4535TIP3   OH235239   3.926   0.914   2.193  0.0287 -0.3185  0.0513
 4535TIP3    H135240   3.983   0.923   2.269  1.4647 -0.7859 -0.9355
 4535TIP3    H235241   3.984   0.889   2.122 -1.2604  0.2465 -1.2557
 4536TIP3   OH235242   2.384   3.984   1.339  0.2828 -0.0209 -0.0591
 4536TIP3    H135243   2.462   3.955   1.387  1.5145  1.0701 -1.2838
 4536TIP3    H235244   2.409   4.070   1.304 -2.2069  1.3013  1.1518
 4537TIP3   OH235245   3.540   0.421   8.254 -0.1678 -0.4031 -0.3657
 4537TIP3    H135246   3.635   0.424   8.258 -0.1589 -1.3882  0.6932
 4537TIP3    H235247   3.521   0.379   8.170  0.3731 -1.2772 -0.0612
 4538TIP3   OH235248   0.277   3.552   0.914 -0.2168 -0.1531 -0.4977
 4538TIP3    H135249   0.291   3.645   0.899  0.5972 -0.5148 -2.1301
 4538TIP3    H235250   0.196   3.532   0.867  0.2365 -0.4993 -1.1418
 4539TIP3   OH235251   1.604   1.032   2.326  0.3281  0.0727 -0.1329
 4539TIP3    H135252   1.523   0.989   2.351  0.1105  1.1233  1.0728
 4539TIP3    H235253   1.672   0.986   2.375  0.7529 -1.8881 -2.3673
 4540TIP3   OH235254   0.121   5.931   0.688 -0.2152 -0.1196  0.5148
 4540TIP3    H135255   0.101   5.864   0.753  0.6487 -0.9541 -0.0439
 4540TIP3    H235256   0.150   6.007   0.739 -1.1543 -0.1848  1.1563
 4541TIP3   OH235257   2.796   3.899   3.838 -0.8588 -0.1429  0.6772
 4541TIP3    H135258   2.826   3.808   3.846 -0.0337  0.0005 -0.4140
 4541TIP3    H235259   2.877   3.950   3.832 -1.3150  0.5736  0.4881
 4542TIP3   OH235260   1.498   5.693   8.551 -0.0074 -0.1926 -0.3615
 4542TIP3    H135261   1.591   5.678   8.535  0.2338  0.1978  0.6531
 4542TIP3    H235262   1.463   5.606   8.571  0.6348 -0.0355  1.6691
 4543TIP3   OH235263   1.858   3.112   0.207  0.4914 -0.1725 -0.2706
 4543TIP3    H135264   1.787   3.148   0.154 -0.4914 -2.1443 -0.3770
 4543TIP3    H235265   1.928   3.178   0.201 -1.7004  2.4553  0.8862
 4544TIP3   OH235266   4.975   3.514   1.636  0.8414  0.1317 -0.0974
 4544TIP3    H135267   5.009   3.527   1.724  0.0553 -1.9931  0.5900
 4544TIP3    H235268   4.892   3.562   1.635  0.7594  0.0024  0.3999
 4545TIP3   OH235269   3.117   3.895   1.995 -0.0296 -0.2951  0.1384
 4545TIP3    H135270   3.093   3.965   1.934  1.9148  0.6906  0.4436
 4545TIP3    H235271   3.155   3.941   2.070  0.1520 -1.6339  0.8896
 4546TIP3   OH235272   6.000   3.729   3.132  0.2883  0.9862 -0.8836
 4546TIP3    H135273   5.998   3.816   3.172  0.9616  1.7230 -2.3586
 4546TIP3    H235274   6.091   3.716   3.106  0.5462 -0.8633  0.6792
 4547TIP3   OH235275   4.214   1.823   9.881  0.1020  0.0612 -0.5275
 4547TIP3    H135276   4.212   1.912   9.917 -2.6681  0.3037 -1.0533
 4547TIP3    H235277   4.168   1.831   9.797 -2.6490 -2.2524  0.5880
 4548TIP3   OH235278   4.580   0.567   7.659 -0.2105 -0.0095  0.1115
 4548TIP3    H135279   4.616   0.502   7.598 -1.5611  0.3562 -1.1293
 4548TIP3    H235280   4.541   0.634   7.603  1.0143  1.8505  1.3576
 4549TIP3   OH235281   1.536   1.389   1.117 -0.3998 -0.2667 -0.5874
 4549TIP3    H135282   1.494   1.306   1.137 -0.0807  0.1926  2.3872
 4549TIP3    H235283   1.510   1.447   1.189  1.8121  1.3015 -0.9634
 4550TIP3   OH235284   3.247   2.940   8.397 -0.6671  0.3900  0.0312
 4550TIP3    H135285   3.261   3.008   8.332 -1.4365  0.4239 -0.1109
 4550TIP3    H235286   3.309   2.871   8.374 -1.7921 -0.1633 -1.5512
 4551TIP3   OH235287   2.278   0.107   1.544  0.1579  0.2643  0.4355
 4551TIP3    H135288   2.351   0.168   1.556  0.6950  0.0409 -1.4297
 4551TIP3    H235289   2.319   0.024   1.523 -0.6217  0.0434 -0.2406
 4552TIP3   OH235290   2.275   4.182   8.293 -0.3667  0.1429  1.3003
 4552TIP3    H135291   2.203   4.128   8.325 -1.8833  0.8598 -0.6302
 4552TIP3    H235292   2.240   4.221   8.213  2.2371  0.4908  0.2656
 4553TIP3   OH235293   0.009   0.608   1.326  0.4727  0.2705 -0.6077
 4553TIP3    H135294  -0.045   0.530   1.309  0.0856 -0.0278  1.6262
 4553TIP3    H235295   0.058   0.585   1.405 -0.4204  2.6393  0.7360
 4554TIP3   OH235296   3.737   3.534   3.111 -0.1134 -0.0864  0.4801
 4554TIP3    H135297   3.806   3.598   3.123 -0.7815  0.6071  0.6755
 4554TIP3    H235298   3.658   3.586   3.096 -0.2300 -0.8177 -2.0591
 4555TIP3   OH235299   5.382   3.049   1.009 -0.5684  0.1783  0.4142
 4555TIP3    H135300   5.420   3.084   1.090 -0.0125  0.4951  0.0243
 4555TIP3    H235301   5.354   3.127   0.961 -2.6461 -0.0775  1.1263
 4556TIP3   OH235302   1.931   4.430   2.294  0.2806  0.0627 -0.7276
 4556TIP3    H135303   1.958   4.449   2.384  1.8072 -1.4062 -0.8202
 4556TIP3    H235304   1.844   4.390   2.304  1.5714 -2.7332  0.4566
 4557TIP3   OH235305   5.388   0.705   8.275 -0.5701  0.4081  0.0043
 4557TIP3    H135306   5.357   0.637   8.215 -0.8148  1.6675 -1.3306
 4557TIP3    H235307   5.483   0.707   8.261 -0.7268  1.3481 -1.0895
 4558TIP3   OH235308   2.540   1.938   9.310  0.0798  0.2403 -0.3865
 4558TIP3    H135309   2.543   2.033   9.321  0.2197  0.2319 -0.3584
 4558TIP3    H235310   2.615   1.905   9.359  0.4285  0.1646 -0.9612
 4559TIP3   OH235311   3.736   5.255   1.434 -0.9090  0.0257  0.1513
 4559TIP3    H135312   3.746   5.312   1.510 -1.9297 -0.1518  0.4371
 4559TIP3    H235313   3.753   5.312   1.359 -1.4323  0.5977  0.4547
 4560TIP3   OH235314   1.940   3.692   1.538  0.1975  0.4691 -0.7052
 4560TIP3    H135315   1.957   3.607   1.497 -1.6231  0.0752 -0.7016
 4560TIP3    H235316   2.012   3.748   1.509  3.0242 -1.7377  1.4472
 4561TIP3   OH235317   0.720   1.777   9.258  0.1398  0.5960  0.0179
 4561TIP3    H135318   0.725   1.797   9.352 -0.6634 -0.9034  0.4144
 4561TIP3    H235319   0.775   1.700   9.247  0.0078  0.5968 -0.6970
 4562TIP3   OH235320   5.529   0.782   1.896  0.4110 -0.2583 -0.3330
 4562TIP3    H135321   5.484   0.698   1.896  0.9613 -0.6176 -2.2943
 4562TIP3    H235322   5.605   0.768   1.840  0.1295  1.7242 -1.3127
 4563TIP3   OH235323   1.431   0.167   9.104  0.6038 -0.0699  0.2831
 4563TIP3    H135324   1.404   0.076   9.115 -2.4799  0.6461 -0.3414
 4563TIP3    H235325   1.419   0.206   9.191 -1.8449  0.5273 -0.2537
 4564TIP3   OH235326   4.941   0.335   0.915  0.2415  0.3312 -0.1134
 4564TIP3    H135327   4.896   0.277   0.977 -1.2741  1.1962 -0.3628
 4564TIP3    H235328   4.971   0.409   0.969  0.4747  0.2440 -0.1215
 4565TIP3   OH235329   2.332   4.407   7.981  0.6487 -0.2419 -0.7666
 4565TIP3    H135330   2.300   4.487   7.939 -2.5217 -1.9272 -1.9150
 4565TIP3    H235331   2.394   4.370   7.918  1.4295  0.8101 -0.6378
 4566TIP3   OH235332   4.797   5.047   2.354  0.0019  0.7778 -0.3111
 4566TIP3    H135333   4.805   4.951   2.349 -1.5808  0.6224 -0.2438
 4566TIP3    H235334   4.881   5.079   2.320  0.6173 -0.6273 -0.2034
 4567TIP3   OH235335   4.682   1.728   9.539 -0.0745  0.5675 -0.5234
 4567TIP3    H135336   4.602   1.762   9.578 -0.0027  0.0680  0.0853
 4567TIP3    H235337   4.710   1.795   9.478 -1.1632  0.5893 -1.0242
 4568TIP3   OH235338   4.778   3.376   9.561 -0.1474  0.1422 -0.9213
 4568TIP3    H135339   4.859   3.326   9.576 -1.4902 -1.7216  0.7731
 4568TIP3    H235340   4.781   3.401   9.469  1.6122 -1.2851 -1.3001
 4569TIP3   OH235341   1.302   0.262   0.846  0.2268 -0.0840  0.4310
 4569TIP3    H135342   1.220   0.310   0.860  0.6001  0.4456  0.8111
 4569TIP3    H235343   1.370   0.319   0.883  1.0190  0.4594 -1.7239
 4570TIP3   OH235344   1.753   2.875   2.230  0.1392 -0.0044  0.6346
 4570TIP3    H135345   1.691   2.802   2.223 -1.0488  0.8524  1.7011
 4570TIP3    H235346   1.810   2.866   2.154  0.9273 -2.8427  1.4433
 4571TIP3   OH235347   0.075   5.060   8.697 -0.5037  0.7155  0.6022
 4571TIP3    H135348   0.031   5.074   8.614 -1.0029  0.6838  0.8543
 4571TIP3    H235349   0.131   5.137   8.708  2.3426 -0.8955 -1.4501
 4572TIP3   OH235350   1.131   5.243   1.106  0.0662  0.1570  0.1112
 4572TIP3    H135351   1.092   5.257   1.193 -0.7068 -0.1316 -0.1781
 4572TIP3    H235352   1.072   5.289   1.046 -0.8471 -1.7135 -0.5196
 4573TIP3   OH235353   2.851   5.034   9.668 -0.2008 -0.3653 -0.1914
 4573TIP3    H135354   2.837   5.011   9.576  0.5570 -1.2514 -0.0915
 4573TIP3    H235355   2.898   5.118   9.665  1.6559 -1.3722 -0.6746
 4574TIP3   OH235356   2.161   4.561   3.839  0.0692  0.2794  0.2988
 4574TIP3    H135357   2.102   4.508   3.786 -0.1869  0.9092 -0.0528
 4574TIP3    H235358   2.247   4.520   3.828  0.5983  1.9048 -2.7746
 4575TIP3   OH235359   1.794   5.650   0.282 -0.4225 -0.4117 -0.7769
 4575TIP3    H135360   1.814   5.620   0.193 -0.0959  0.1363 -0.8968
 4575TIP3    H235361   1.771   5.571   0.330 -1.0772 -0.6531 -1.4758
 4576TIP3   OH235362   6.150   1.144   2.767  0.2942 -0.2539 -0.6016
 4576TIP3    H135363   6.160   1.065   2.820  0.8221  0.9914  1.2699
 4576TIP3    H235364   6.056   1.153   2.753 -0.0000  0.0964  1.3472
 4577TIP3   OH235365   5.238   5.403  10.028  0.2239  0.2669 -0.3613
 4577TIP3    H135366   5.282   5.446   9.955 -0.1348 -0.8328 -1.2687
 4577TIP3    H235367   5.283   5.319  10.037  0.7608  0.6964  1.2005
 4578TIP3   OH235368   0.151   3.009   8.567  0.1185  0.3328 -0.1494
 4578TIP3    H135369   0.099   2.997   8.488 -1.2585 -0.4728  0.8425
 4578TIP3    H235370   0.203   3.088   8.550  1.1620 -0.7890 -2.5190
 4579TIP3   OH235371   3.136   5.619   8.664  0.0691 -0.0589  0.1655
 4579TIP3    H135372   3.193   5.622   8.587 -0.1644  1.0309  0.0107
 4579TIP3    H235373   3.185   5.666   8.732 -0.9499  1.6149 -0.2039
 4580TIP3   OH235374   0.961   4.948   8.424 -0.0745  0.3587  0.4235
 4580TIP3    H135375   1.022   5.017   8.400  0.5961 -0.0324  0.9552
 4580TIP3    H235376   0.948   4.898   8.343 -0.0539  0.7187  0.1972
 4581TIP3   OH235377   6.038   6.307   7.973  0.0671  0.4245 -0.4283
 4581TIP3    H135378   6.012   6.232   8.027  0.2622  0.2502 -0.5754
 4581TIP3    H235379   5.957   6.358   7.963 -0.0750  0.2188 -0.3535
 4582TIP3   OH235380   2.171   4.113   1.739 -0.0303  0.6082  0.1107
 4582TIP3    H135381   2.086   4.128   1.698  0.2414  1.1717 -0.2609
 4582TIP3    H235382   2.185   4.189   1.795  0.1169  0.3927  0.3725
 4583TIP3   OH235383   5.934   3.427   2.407  0.5437 -0.0781 -0.3751
 4583TIP3    H135384   5.902   3.349   2.451  2.3312 -0.6207  0.0311
 4583TIP3    H235385   5.855   3.472   2.377 -0.5816 -1.1864  0.8259
 4584TIP3   OH235386   1.400   4.026   2.202 -0.0434  0.1759 -0.4585
 4584TIP3    H135387   1.339   3.978   2.145 -0.5873  0.7340 -0.3523
 4584TIP3    H235388   1.372   4.117   2.195  0.3316  0.3389  0.1626
 4585TIP3   OH235389   0.300   0.404   7.676  0.3275  0.8274 -0.0706
 4585TIP3    H135390   0.208   0.403   7.649  0.1109  0.4649  0.6692
 4585TIP3    H235391   0.346   0.441   7.600 -0.1636 -0.8955 -1.2596
 4586TIP3   OH235392   1.802   5.452   0.903  0.0562  0.2533  0.5489
 4586TIP3    H135393   1.757   5.537   0.896  0.4861  0.3673 -1.7100
 4586TIP3    H235394   1.731   5.389   0.915 -0.4254  0.7525  0.4261
 4587TIP3   OH235395   1.863   3.532   7.753 -0.3643 -0.3995  0.3358
 4587TIP3    H135396   1.808   3.609   7.737  0.4194  0.1699  0.3130
 4587TIP3    H235397   1.835   3.468   7.687 -2.2468 -0.8182  1.4742
 4588TIP3   OH235398   5.237   0.491  10.024  0.2432  0.3124  0.2059
 4588TIP3    H135399   5.159   0.476  10.078  0.4523  0.1479  0.4621
 4588TIP3    H235400   5.294   0.546  10.078  1.1466 -1.1598  0.7973
 4589TIP3   OH235401   4.663   1.529   8.880  0.0027 -0.1588  0.1642
 4589TIP3    H135402   4.736   1.482   8.920 -0.8544 -0.3124  1.6097
 4589TIP3    H235403   4.645   1.481   8.799  0.9103 -0.6481  0.2313
 4590TIP3   OH235404   4.805   1.017   8.873 -0.7312  0.2736 -0.0807
 4590TIP3    H135405   4.815   1.092   8.815  1.0250 -0.7793 -1.2337
 4590TIP3    H235406   4.775   0.946   8.817  1.1993 -0.8234  0.1568
 4591TIP3   OH235407   0.118   5.217   9.141  0.2516 -0.0438  0.6584
 4591TIP3    H135408   0.174   5.228   9.064 -2.6225 -0.9884 -1.7583
 4591TIP3    H235409   0.044   5.276   9.125 -0.9565 -1.0835  2.1561
 4592TIP3   OH235410   4.478   1.172   3.112  0.0383 -0.4679  0.2001
 4592TIP3    H135411   4.543   1.127   3.166 -0.2544  0.1834  1.1191
 4592TIP3    H235412   4.395   1.159   3.159 -0.3510 -0.5275 -0.4899
 4593TIP3   OH235413   3.897   2.519   9.613  0.1138  0.2802  0.1785
 4593TIP3    H135414   3.803   2.502   9.618 -0.1705  0.8785 -1.9964
 4593TIP3    H235415   3.935   2.440   9.574  0.2670  0.6058 -0.3539
 4594TIP3   OH235416   0.912   3.342   2.283  0.4501 -0.3761 -0.5599
 4594TIP3    H135417   1.006   3.330   2.290  0.3666 -1.5437 -1.2285
 4594TIP3    H235418   0.886   3.289   2.208 -1.1104 -2.2306  1.1429
 4595TIP3   OH235419   3.069   2.492   9.275 -0.2150  0.1502  0.6854
 4595TIP3    H135420   3.148   2.466   9.227 -1.4111 -0.0690 -1.2310
 4595TIP3    H235421   3.014   2.536   9.210 -3.4992 -3.3259  0.7649
 4596TIP3   OH235422   1.132   5.153   2.276 -0.0500 -0.1274 -0.2900
 4596TIP3    H135423   1.213   5.204   2.287 -0.4773  0.3862  0.6251
 4596TIP3    H235424   1.125   5.103   2.358 -1.3931  0.9284  0.2754
 4597TIP3   OH235425   0.831   0.388   1.436  0.2202 -0.2650 -0.5564
 4597TIP3    H135426   0.784   0.470   1.422  1.3085  0.8177  1.6391
 4597TIP3    H235427   0.842   0.382   1.531  0.5854 -2.7370 -0.6913
 4598TIP3   OH235428   1.323   0.775   0.373  0.2538 -0.0933  0.1957
 4598TIP3    H135429   1.395   0.726   0.332  2.6030  2.4405  1.0064
 4598TIP3    H235430   1.364   0.822   0.446 -2.7774 -0.4615  2.3572
 4599TIP3   OH235431   2.299   3.648   2.179  0.0095 -0.0156 -0.7793
 4599TIP3    H135432   2.366   3.715   2.165 -0.2432  0.7589  1.4033
 4599TIP3    H235433   2.216   3.693   2.168 -0.1631  0.0647  0.6517
 4600TIP3   OH235434   3.661   2.493   0.668  0.6098 -0.0924 -0.6109
 4600TIP3    H135435   3.582   2.509   0.720  0.9111 -1.2138  0.2399
 4600TIP3    H235436   3.686   2.403   0.690  2.5983  0.5094 -0.2199
 4601TIP3   OH235437   4.939   4.526   1.216 -0.0451 -0.2959  0.0164
 4601TIP3    H135438   4.905   4.515   1.127 -1.8429 -2.0547  0.8445
 4601TIP3    H235439   4.873   4.579   1.260  0.1510 -0.5802  0.6597
 4602TIP3   OH235440   1.363   1.225   9.429  0.1904 -0.3515  0.0362
 4602TIP3    H135441   1.457   1.209   9.431  0.5487  1.4622  0.1116
 4602TIP3    H235442   1.330   1.183   9.509  1.1053 -0.1435  0.5393
 4603TIP3   OH235443   3.986   1.446   0.861  0.2765  0.7952  0.2690
 4603TIP3    H135444   3.966   1.392   0.938 -4.4900  2.9056  0.8410
 4603TIP3    H235445   4.040   1.517   0.895 -0.2288  0.7147  1.2952
 4604TIP3   OH235446   4.159   0.730   8.594 -0.3448 -0.2307 -0.1296
 4604TIP3    H135447   4.200   0.692   8.516 -1.1909  0.1299 -0.7650
 4604TIP3    H235448   4.176   0.665   8.663  1.7779  0.1691 -0.1981
 4605TIP3   OH235449   3.511   2.903   0.743  0.2780  0.5767  0.1038
 4605TIP3    H135450   3.519   2.982   0.796  0.5650  1.0559 -0.6409
 4605TIP3    H235451   3.530   2.831   0.804 -3.6020  0.7194  1.8112
 4606TIP3   OH235452   3.164   1.545   1.397 -0.0511 -0.3075 -0.4228
 4606TIP3    H135453   3.072   1.536   1.374 -0.0476  0.2285 -0.6693
 4606TIP3    H235454   3.191   1.626   1.354  1.2044 -1.7577 -2.5943
 4607TIP3   OH235455   4.850   0.711   0.641 -0.2636 -0.0590  0.4960
 4607TIP3    H135456   4.805   0.641   0.689 -1.4438 -1.2339 -2.1459
 4607TIP3    H235457   4.814   0.791   0.678 -2.3526 -0.9506  0.5379
 4608TIP3   OH235458   2.622   0.218   9.629 -0.0757 -0.2612  0.0589
 4608TIP3    H135459   2.600   0.179   9.714  0.6692  0.9834  0.8553
 4608TIP3    H235460   2.623   0.143   9.569 -1.6428 -1.0180  0.9191
 4609TIP3   OH235461   3.575   4.459   2.325  0.4429 -0.0927  0.0900
 4609TIP3    H135462   3.638   4.389   2.309  1.0929  0.1505  1.3933
 4609TIP3    H235463   3.600   4.528   2.264 -0.2381 -0.9952 -1.2401
 4610TIP3   OH235464   0.758   1.122   1.434  0.3253 -0.7336  0.6107
 4610TIP3    H135465   0.788   1.150   1.347  0.4458 -0.9982  0.5671
 4610TIP3    H235466   0.676   1.074   1.417  0.6259 -1.2477  0.5874
 4611TIP3   OH235467   0.472   1.134   8.873  0.3623  0.6459  0.0612
 4611TIP3    H135468   0.483   1.166   8.962  3.0046  1.2963 -0.3991
 4611TIP3    H235469   0.384   1.097   8.871 -0.3471  1.9830  2.4770
 4612TIP3   OH235470   5.891   4.450   0.218 -0.2353  0.4892  0.0889
 4612TIP3    H135471   5.863   4.492   0.299 -1.1650  0.8228 -0.3984
 4612TIP3    H235472   5.905   4.358   0.242 -1.6051  0.3465  0.3822
 4613TIP3   OH235473   0.684   4.656   1.761  0.2592  0.2074 -0.0644
 4613TIP3    H135474   0.651   4.733   1.807  0.1048 -0.8835  1.7559
 4613TIP3    H235475   0.763   4.631   1.809 -1.0520 -2.2171  1.0270
 4614TIP3   OH235476   1.307   1.817   0.190 -0.0504 -0.4953  0.3415
 4614TIP3    H135477   1.349   1.891   0.147 -0.1679 -0.1447  0.8302
 4614TIP3    H235478   1.235   1.793   0.131  1.1716 -1.4922 -0.8226
 4615TIP3   OH235479   1.824   4.277   8.867  0.0765  0.3190 -0.0411
 4615TIP3    H135480   1.896   4.243   8.920  2.1961  0.2150 -2.7535
 4615TIP3    H235481   1.759   4.306   8.931  1.2833 -2.1190  2.5208
 4616TIP3   OH235482   0.380   4.515   7.920  0.4774 -0.2362 -0.2287
 4616TIP3    H135483   0.467   4.479   7.934 -0.2644 -2.5699 -1.0965
 4616TIP3    H235484   0.395   4.602   7.882  2.3725  0.4794  1.9403
 4617TIP3   OH235485   0.894   6.325   0.403  0.1337  0.0013  0.3308
 4617TIP3    H135486   0.989   6.338   0.406  0.0824  0.5901 -0.4456
 4617TIP3    H235487   0.879   6.280   0.320 -0.0737 -1.8634  1.3268
 4618TIP3   OH235488   3.109   1.280   1.250  0.1676 -0.1320  0.3144
 4618TIP3    H135489   3.157   1.336   1.312 -0.8687  0.7208  0.3840
 4618TIP3    H235490   3.164   1.202   1.240  1.2992  0.5737  0.7898
 4619TIP3   OH235491   1.530   6.048   6.780 -0.1252  0.1359 -0.5035
 4619TIP3    H135492   1.476   6.080   6.709 -0.5879  1.2569  0.3231
 4619TIP3    H235493   1.470   6.040   6.855  0.5805  0.1055  0.0760
 4620TIP3   OH235494   0.813   5.142   8.057  0.5590 -0.6945 -0.3420
 4620TIP3    H135495   0.798   5.190   7.975 -0.3606 -0.2653  0.0652
 4620TIP3    H235496   0.769   5.195   8.123  1.7353 -0.7602  0.5213
 4621TIP3   OH235497   2.663   2.577   9.052  0.0470 -0.1668  0.5440
 4621TIP3    H135498   2.593   2.516   9.072  0.3923 -0.9362 -0.5093
 4621TIP3    H235499   2.625   2.637   8.988 -0.2688  0.7139  1.5216
 4622TIP3   OH235500   5.433   4.818   1.509  0.0236  0.1887  0.0200
 4622TIP3    H135501   5.496   4.797   1.440  0.2223  2.6903 -0.6443
 4622TIP3    H235502   5.478   4.880   1.566 -2.0152  2.8321 -1.0094
 4623TIP3   OH235503   2.797   6.219   7.447 -0.3308  1.2667 -0.2310
 4623TIP3    H135504   2.760   6.179   7.526  0.4636  2.0886  0.5856
 4623TIP3    H235505   2.728   6.275   7.413 -1.8778 -1.5174 -2.0161
 4624TIP3   OH235506   1.113   1.248   1.692 -0.1487  0.4834 -0.1846
 4624TIP3    H135507   1.159   1.298   1.625 -0.0475  0.1822 -0.3392
 4624TIP3    H235508   1.159   1.270   1.773  0.0811  0.4157 -0.2955
 4625TIP3   OH235509   1.109   3.966   1.468  0.1538 -0.1111  0.2020
 4625TIP3    H135510   1.169   4.010   1.408  0.9458 -0.6254  0.5981
 4625TIP3    H235511   1.067   3.898   1.415  0.6916 -0.4217  0.1685
 4626TIP3   OH235512   2.113   4.008   3.067 -0.3535 -0.1855 -0.1883
 4626TIP3    H135513   2.115   4.094   3.111 -0.7448 -0.8848  1.2714
 4626TIP3    H235514   2.159   4.022   2.985 -0.2006  1.3709  0.1295
 4627TIP3   OH235515   1.223   0.412   0.201 -0.0630  0.1607  0.0362
 4627TIP3    H135516   1.275   0.401   0.280  1.4346 -0.6469 -1.0021
 4627TIP3    H235517   1.222   0.325   0.161 -2.0457  0.2099 -0.1074
 4628TIP3   OH235518   1.034   0.063   9.530  0.1170 -0.0785  0.5873
 4628TIP3    H135519   1.108   0.005   9.549 -0.1282 -0.6003  0.0177
 4628TIP3    H235520   1.046   0.138   9.587  2.6312  1.1938 -1.4471
 4629TIP3   OH235521   0.768   0.245   9.573 -0.5469  0.1097 -0.0664
 4629TIP3    H135522   0.848   0.274   9.527  0.1191 -1.8014 -0.2161
 4629TIP3    H235523   0.702   0.239   9.504 -0.4195  0.2627 -0.2039
 4630TIP3   OH235524   5.688   2.396   1.893  0.0726 -0.2487 -0.2673
 4630TIP3    H135525   5.669   2.304   1.912 -0.8856 -0.0791 -0.3512
 4630TIP3    H235526   5.608   2.429   1.852 -0.1173  0.9758  0.9978
 4631TIP3   OH235527   1.965   3.442   1.429  0.0377  0.1184  0.0682
 4631TIP3    H135528   1.940   3.360   1.472 -0.5288 -0.3174 -1.0389
 4631TIP3    H235529   1.927   3.435   1.341 -1.8060  2.4832  0.5995
 4632TIP3   OH235530   5.160   0.629   1.850  0.0627 -0.0241  0.1296
 4632TIP3    H135531   5.175   0.701   1.910  0.9071 -1.0006  1.1283
 4632TIP3    H235532   5.202   0.554   1.891 -3.0817 -1.7632  0.5110
 4633TIP3   OH235533   1.426   5.666   0.936 -0.4038  0.3676 -0.4670
 4633TIP3    H135534   1.442   5.688   1.027 -1.3857 -0.8361  0.0207
 4633TIP3    H235535   1.371   5.587   0.939  0.6594 -0.4996 -2.0852
 4634TIP3   OH235536   3.731   0.667   1.676  0.4591 -0.0208  0.2673
 4634TIP3    H135537   3.741   0.697   1.585 -0.3134 -4.0557 -1.3659
 4634TIP3    H235538   3.808   0.613   1.692 -0.0224 -0.3542  1.5796
 4635TIP3   OH235539   0.673   3.729   8.799 -0.1623 -0.0087  0.1465
 4635TIP3    H135540   0.750   3.773   8.764 -0.6706 -0.6615 -2.0021
 4635TIP3    H235541   0.599   3.771   8.755 -0.9919  0.0133  1.5017
 4636TIP3   OH235542   5.096   3.508   0.428  0.4475 -0.0773  0.1566
 4636TIP3    H135543   5.143   3.584   0.461 -1.1447  1.5180 -1.0539
 4636TIP3    H235544   5.158   3.465   0.369  0.5228  1.8632 -1.2529
 4637TIP3   OH235545   4.626   0.321   3.253 -0.2024  0.0069 -0.0189
 4637TIP3    H135546   4.543   0.277   3.273 -1.2957  0.9247 -2.2538
 4637TIP3    H235547   4.602   0.399   3.204  1.9799  0.5852 -0.3073
 4638TIP3   OH235548   2.369   5.136   9.611 -0.0743  0.3843  0.2279
 4638TIP3    H135549   2.301   5.186   9.566  1.0997  1.8200 -0.0355
 4638TIP3    H235550   2.353   5.045   9.586 -1.2807  0.8091 -0.6265
 4639TIP3   OH235551   1.153   5.537   9.788 -0.4671  0.1085  0.1566
 4639TIP3    H135552   1.187   5.449   9.800  2.7880  1.0314 -1.3142
 4639TIP3    H235553   1.158   5.577   9.874  0.5223 -0.3628  0.3311
 4640TIP3   OH235554   4.701   6.136   2.825  0.1042  0.1517  0.0531
 4640TIP3    H135555   4.631   6.090   2.780  1.0003  0.3407 -1.6046
 4640TIP3    H235556   4.759   6.067   2.857 -0.4152  0.0261  0.7536
 4641TIP3   OH235557   0.441   3.721   2.104  0.1559  0.3638 -0.4809
 4641TIP3    H135558   0.398   3.638   2.122 -1.7617  1.0051 -1.7746
 4641TIP3    H235559   0.496   3.737   2.181  0.3603 -1.9298 -0.0785
 4642TIP3   OH235560   0.459   2.513   2.440  0.4307  0.0594 -0.1379
 4642TIP3    H135561   0.443   2.479   2.528 -0.6046 -1.8199 -0.9883
 4642TIP3    H235562   0.417   2.599   2.439 -0.2661 -0.2539  0.9741
 4643TIP3   OH235563   6.037   2.530   8.683  0.2157  0.2344 -0.6639
 4643TIP3    H135564   5.963   2.522   8.622  0.0897  0.0205 -0.4846
 4643TIP3    H235565   6.110   2.559   8.628 -0.2083  1.2902 -0.7014
 4644TIP3   OH235566   4.213   4.964   9.659  0.8549 -0.4802  0.0536
 4644TIP3    H135567   4.244   4.915   9.583  0.8715  0.3296 -0.4674
 4644TIP3    H235568   4.293   5.004   9.695  0.6346  0.4661 -0.4710
 4645TIP3   OH235569   3.410   1.083   9.354  0.0456 -0.1109  0.2154
 4645TIP3    H135570   3.466   1.072   9.431  3.0853  1.2261 -1.5866
 4645TIP3    H235571   3.434   1.169   9.320 -3.4875  0.7108 -0.5784
 4646TIP3   OH235572   0.378   1.419   0.649  0.0297 -0.1212 -0.3731
 4646TIP3    H135573   0.363   1.451   0.737 -0.7527  1.2656 -0.9783
 4646TIP3    H235574   0.473   1.423   0.637 -0.0048  1.6748 -0.2802
 4647TIP3   OH235575   2.832   6.252   9.465 -0.6341  0.4170 -0.2483
 4647TIP3    H135576   2.771   6.322   9.442 -1.0548  0.0720 -0.1870
 4647TIP3    H235577   2.885   6.239   9.386  0.6214  1.9896  0.2802
 4648TIP3   OH235578   2.318   5.094   8.960  0.4101 -0.0684  0.1905
 4648TIP3    H135579   2.327   5.179   8.917  0.4250  0.7356  1.7475
 4648TIP3    H235580   2.385   5.094   9.028 -0.6250 -0.6847  1.2424
 4649TIP3   OH235581   3.070   4.364   0.311 -0.2181  0.5258  0.1092
 4649TIP3    H135582   3.080   4.371   0.217  0.6075  1.9976  0.2796
 4649TIP3    H235583   2.975   4.362   0.325 -0.3505  0.9861 -0.7011
 4650TIP3   OH235584   0.865   0.661   1.166 -0.3569 -0.7993 -0.7748
 4650TIP3    H135585   0.825   0.730   1.113  0.7139 -0.2742 -0.9226
 4650TIP3    H235586   0.951   0.648   1.126 -0.0262 -1.2798  0.0806
 4651TIP3   OH235587   0.741   3.201   9.146  0.0812 -0.0321  0.4099
 4651TIP3    H135588   0.782   3.265   9.089  1.1327 -1.1249 -0.1193
 4651TIP3    H235589   0.648   3.225   9.148 -0.0818 -0.1854 -2.0992
 4652TIP3   OH235590   6.271   0.828   0.395  0.4969  0.6896 -0.7535
 4652TIP3    H135591   6.220   0.808   0.316 -0.2611  1.3131 -0.4324
 4652TIP3    H235592   6.218   0.793   0.467 -0.1861  2.5547 -0.2991
 4653TIP3   OH235593   4.138   4.938   1.449  0.1237  0.4777  0.2346
 4653TIP3    H135594   4.128   4.884   1.370 -1.1004  0.7333  0.1943
 4653TIP3    H235595   4.155   5.026   1.417  1.6592  0.2302  0.2975
 4654TIP3   OH235596   3.495   2.808   8.909  0.1558 -0.3119 -0.0151
 4654TIP3    H135597   3.569   2.818   8.969  0.3890  1.3376 -0.5179
 4654TIP3    H235598   3.417   2.817   8.964  0.3665  1.4123  0.0558
 4655TIP3   OH235599   3.180   3.620   0.746 -0.8125  0.3948 -0.2595
 4655TIP3    H135600   3.098   3.606   0.793 -0.9618 -2.8925 -1.2486
 4655TIP3    H235601   3.185   3.547   0.684  2.8556  0.4237 -0.2298
 4656TIP3   OH235602   3.993   0.422   0.003  0.5243  0.7711  0.2422
 4656TIP3    H135603   3.976   0.340  -0.044  0.8796  0.0549  1.3279
 4656TIP3    H235604   3.907   0.454   0.029  0.4458  0.2145  0.6739
 4657TIP3   OH235605   5.599   4.993   2.365  0.1960  0.3968  0.4238
 4657TIP3    H135606   5.635   5.021   2.449  1.1254 -1.5116  0.7112
 4657TIP3    H235607   5.535   4.926   2.388  0.3269 -0.0149 -0.3802
 4658TIP3   OH235608   1.069   4.278   1.471 -0.7031  0.1121 -0.2623
 4658TIP3    H135609   0.989   4.264   1.522  0.2673 -4.5864  0.5160
 4658TIP3    H235610   1.044   4.259   1.381 -0.5900 -1.1614 -0.0467
 4659TIP3   OH235611   2.061   0.183   9.124 -0.4758 -0.2785 -0.4836
 4659TIP3    H135612   2.065   0.108   9.065  2.0351  0.4338 -1.3319
 4659TIP3    H235613   2.107   0.253   9.078 -0.3770  0.9788  1.4028
 4660TIP3   OH235614   4.527   1.136   1.284 -0.5416 -0.0773 -0.5758
 4660TIP3    H135615   4.512   1.214   1.338 -1.9296 -1.8957  1.8678
 4660TIP3    H235616   4.439   1.104   1.263 -0.0214 -1.6606 -0.4706
 4661TIP3   OH235617   2.657   1.034   0.515 -0.2431 -0.2552  0.5079
 4661TIP3    H135618   2.701   0.950   0.525 -3.0836 -1.9399 -0.0096
 4661TIP3    H235619   2.594   1.036   0.588 -2.9256 -0.5026 -1.6484
 4662TIP3   OH235620   4.971   5.039   1.758  0.3649  0.1621 -0.0835
 4662TIP3    H135621   5.010   5.069   1.676  0.7421  0.0724  0.0643
 4662TIP3    H235622   5.009   5.096   1.825 -0.0808  0.3589  0.0115
 4663TIP3   OH235623   4.652   0.766   8.810  0.2826 -0.0275  0.1890
 4663TIP3    H135624   4.668   0.741   8.719 -3.2267  1.5278 -1.0238
 4663TIP3    H235625   4.639   0.683   8.856  1.7626 -0.8249 -0.7414
 4664TIP3   OH235626   5.879   1.056   9.360  0.0608 -0.2424 -0.0365
 4664TIP3    H135627   5.809   1.090   9.416  1.9413  3.2752  0.4612
 4664TIP3    H235628   5.959   1.070   9.411  1.3399 -3.1762 -1.0004
 4665TIP3   OH235629   3.172   0.833   0.323 -0.4720 -0.2309  0.4112
 4665TIP3    H135630   3.160   0.788   0.407  0.0280  1.6338  1.5234
 4665TIP3    H235631   3.267   0.834   0.310 -0.5306 -0.2343 -0.0342
 4666TIP3   OH235632   3.600   3.036   2.199 -0.0382  0.1941  0.7718
 4666TIP3    H135633   3.650   3.019   2.279  1.2724 -1.0925 -0.2510
 4666TIP3    H235634   3.620   3.126   2.176  0.8064  0.1001  1.0935
 4667TIP3   OH235635   0.018   0.773   8.581 -0.6981  0.2701  0.4576
 4667TIP3    H135636  -0.067   0.732   8.591 -0.8749  0.7677  1.0580
 4667TIP3    H235637  -0.002   0.863   8.553 -0.4038  0.5639  1.1670
 4668TIP3   OH235638   3.901   2.598   1.651 -0.6924 -0.0964 -0.3842
 4668TIP3    H135639   3.944   2.601   1.736  0.8555 -1.7008 -1.0475
 4668TIP3    H235640   3.814   2.561   1.668 -0.3751 -0.4472  0.4862
 4669TIP3   OH235641   4.042   5.125   0.122  0.9002 -0.6065  0.3691
 4669TIP3    H135642   4.133   5.126   0.094  1.2413  1.9172  1.2738
 4669TIP3    H235643   4.023   5.216   0.145 -1.4874 -1.2734  1.3787
 4670TIP3   OH235644   5.554   5.274   0.673  0.4764  0.6548  0.2289
 4670TIP3    H135645   5.538   5.314   0.587  0.3736  0.7164  0.2772
 4670TIP3    H235646   5.475   5.222   0.690  1.1152 -0.5856 -0.4091
 4671TIP3   OH235647   0.378   0.238   6.965  0.4635 -0.3668 -0.3197
 4671TIP3    H135648   0.306   0.295   6.941  0.6426  0.0184  0.0497
 4671TIP3    H235649   0.355   0.153   6.928  0.2509 -0.0305 -0.9716
 4672TIP3   OH235650   3.743   4.668   3.385  0.2100 -0.8860  0.2543
 4672TIP3    H135651   3.796   4.649   3.462 -0.1089 -0.8946  0.4722
 4672TIP3    H235652   3.671   4.723   3.418  0.6689  0.0290 -0.2144
 4673TIP3   OH235653   6.370   0.675   0.965 -0.0615 -0.6316 -0.6301
 4673TIP3    H135654   6.283   0.648   0.994  0.3630 -1.3583  0.0113
 4673TIP3    H235655   6.422   0.679   1.045  0.4353  0.0456 -0.9782
 4674TIP3   OH235656   0.777   6.066   7.936  0.0683 -0.3487 -0.0347
 4674TIP3    H135657   0.740   6.146   7.973  1.2130 -0.8559  2.3919
 4674TIP3    H235658   0.716   5.997   7.962 -0.7848 -0.3612 -1.9034
 4675TIP3   OH235659   1.795   1.344   7.779  1.0895  0.2877 -0.2359
 4675TIP3    H135660   1.748   1.360   7.697  1.6090  1.7005 -0.2751
 4675TIP3    H235661   1.756   1.406   7.841  2.2921  0.8827 -0.0476
 4676TIP3   OH235662   1.136   0.709   1.265  0.1917  0.1989  0.5821
 4676TIP3    H135663   1.080   0.778   1.300  0.2168 -0.5346  2.1304
 4676TIP3    H235664   1.134   0.641   1.331 -1.1724 -2.0544 -1.6067
 4677TIP3   OH235665   2.617   0.138   1.501 -0.1664 -0.0442  0.1718
 4677TIP3    H135666   2.694   0.091   1.532  0.1452  0.3959  0.0915
 4677TIP3    H235667   2.575   0.171   1.580  0.9164  1.5235  0.1393
 4678TIP3   OH235668   6.299   2.648   8.541  0.7070  0.3343 -0.3827
 4678TIP3    H135669   6.374   2.630   8.484  1.6195  2.0898  0.1575
 4678TIP3    H235670   6.339   2.677   8.624 -0.5562 -2.5799  1.3883
 4679TIP3   OH235671   4.032   4.856   0.025  0.1163  0.0911  0.7779
 4679TIP3    H135672   4.088   4.802  -0.030 -0.9837 -1.6537  1.2866
 4679TIP3    H235673   4.065   4.945   0.014  2.2121 -0.7189  0.1642
 4680TIP3   OH235674   5.466   0.607   2.472 -0.2197 -0.6886  0.2250
 4680TIP3    H135675   5.472   0.701   2.456  1.3928 -0.8968 -0.6268
 4680TIP3    H235676   5.393   0.598   2.533 -1.8003  0.9048 -1.2811
 4681TIP3   OH235677   6.126   2.295   2.837  0.1619  0.6931  0.0489
 4681TIP3    H135678   6.041   2.303   2.794  1.1740  2.0679 -1.8604
 4681TIP3    H235679   6.116   2.341   2.920 -0.6558  1.8847 -0.6742
 4682TIP3   OH235680   3.679   0.539   8.828  0.5963  0.4037 -0.0680
 4682TIP3    H135681   3.706   0.514   8.916  0.1753  1.4124  0.3713
 4682TIP3    H235682   3.583   0.539   8.831  0.4969  3.4121  0.4491
 4683TIP3   OH235683   0.309   4.412   9.985  0.0960 -0.2680  0.1499
 4683TIP3    H135684   0.362   4.492   9.981 -0.2270 -0.0312  0.5674
 4683TIP3    H235685   0.338   4.361   9.910  0.0373  0.4114 -0.3485
 4684TIP3   OH235686   0.016   2.923   9.772 -0.0807  0.1200  0.7472
 4684TIP3    H135687  -0.056   2.972   9.811 -1.4861 -1.6638  0.5237
 4684TIP3    H235688   0.077   2.990   9.741 -1.1113  1.6600  1.8824
 4685TIP3   OH235689   0.931   5.055   2.138  0.2787 -0.2062 -0.5518
 4685TIP3    H135690   1.005   5.090   2.187  0.1187  0.5575 -0.8440
 4685TIP3    H235691   0.927   5.108   2.059 -1.4007  0.7044  0.0744
 4686TIP3   OH235692   3.190   6.170   0.243  0.0854 -0.6383 -0.5570
 4686TIP3    H135693   3.131   6.192   0.171  0.5698  2.6587 -0.0928
 4686TIP3    H235694   3.277   6.192   0.210  0.1787  2.7021  1.4417
 4687TIP3   OH235695   5.691   3.551   2.383  0.1109  0.0677  0.1965
 4687TIP3    H135696   5.674   3.543   2.477  0.5565  0.0939  0.2837
 4687TIP3    H235697   5.714   3.643   2.371  0.5301 -0.0441  0.1430
 4688TIP3   OH235698   6.107   1.554   0.033  0.2783  0.7535 -0.0541
 4688TIP3    H135699   6.147   1.470   0.011  0.9010  1.0749 -0.1897
 4688TIP3    H235700   6.056   1.577  -0.045 -1.3628 -0.3224  0.6431
 4689TIP3   OH235701   2.313   0.493  10.017 -0.1505  0.4542 -0.4867
 4689TIP3    H135702   2.261   0.465  10.092 -1.1470  0.7399 -1.0575
 4689TIP3    H235703   2.335   0.584  10.036  1.2283 -0.0053  0.3311
 4690TIP3   OH235704   2.721   0.076   8.450 -0.0417  0.1627 -0.0248
 4690TIP3    H135705   2.644   0.051   8.501  0.5501 -0.7641  0.4506
 4690TIP3    H235706   2.795   0.054   8.506  0.6244 -0.8172 -1.2173
 4691TIP3   OH235707   2.274   3.432   2.975  0.7290 -0.5842  0.0441
 4691TIP3    H135708   2.192   3.395   3.007 -0.8895  2.0095 -0.7955
 4691TIP3    H235709   2.293   3.383   2.895 -1.9085  0.8622 -1.6211
 4692TIP3   OH235710   5.114   1.039   9.058 -0.0609 -0.1675  0.6909
 4692TIP3    H135711   5.099   1.048   8.964 -2.7232  2.3663  1.2439
 4692TIP3    H235712   5.191   1.093   9.076  0.9541 -1.3055 -0.0792
 4693TIP3   OH235713   0.424   1.241   2.039  0.0397  0.5588  0.2509
 4693TIP3    H135714   0.478   1.315   2.013  1.6785 -1.1941 -1.7490
 4693TIP3    H235715   0.475   1.197   2.107 -0.1308  0.3460  0.2428
 4694TIP3   OH235716   0.391   2.254   9.322  0.3349 -0.3386  0.6508
 4694TIP3    H135717   0.416   2.238   9.231 -1.4443  1.4557 -0.2137
 4694TIP3    H235718   0.365   2.168   9.355 -0.3663 -0.7942 -0.9914
 4695TIP3   OH235719   5.736   2.044   0.167 -0.1708 -0.4294  0.1995
 4695TIP3    H135720   5.723   1.957   0.131 -1.8288 -0.2549  0.3096
 4695TIP3    H235721   5.702   2.039   0.257  2.2878 -0.3879  1.2130
 4696TIP3   OH235722   0.811   4.791   2.194  0.2833  0.4372  0.2921
 4696TIP3    H135723   0.755   4.757   2.264 -1.4696  2.1981 -0.1693
 4696TIP3    H235724   0.846   4.873   2.229  0.0393  0.9231 -0.5866
 4697TIP3   OH235725   2.340   0.984   7.060 -0.0858  0.4326  0.2994
 4697TIP3    H135726   2.294   1.042   7.121 -2.7112  1.0154 -2.0609
 4697TIP3    H235727   2.367   1.041   6.988 -1.8828 -1.0112 -1.6223
 4698TIP3   OH235728   2.837   1.581   0.722  0.0424  0.0973  0.7437
 4698TIP3    H135729   2.809   1.511   0.664 -0.6737  0.9741  0.0093
 4698TIP3    H235730   2.817   1.548   0.810  0.4457 -0.9316  0.4690
 4699TIP3   OH235731   4.258   2.092   9.895  0.2587  0.0892  0.0809
 4699TIP3    H135732   4.188   2.122   9.953 -1.0613 -1.8236 -0.4259
 4699TIP3    H235733   4.244   2.141   9.814  1.2042  1.6869  0.8439
 4700TIP3   OH235734   0.433   3.359   0.989  0.1849 -0.3042 -0.0848
 4700TIP3    H135735   0.366   3.419   0.955 -0.2149 -1.0655 -0.6765
 4700TIP3    H235736   0.418   3.358   1.084 -2.1683 -2.1795 -0.3778
 4701TIP3   OH235737   5.340   3.889   1.396  0.0026 -0.0515  0.0193
 4701TIP3    H135738   5.252   3.887   1.436  0.2246  1.4923  0.6436
 4701TIP3    H235739   5.347   3.977   1.359  1.6937  0.2424  0.9560
 4702TIP3   OH235740   1.961   4.021   1.387 -0.3277 -0.0677  0.3282
 4702TIP3    H135741   2.053   3.993   1.383  0.0711  1.3264 -1.4989
 4702TIP3    H235742   1.916   3.966   1.324 -0.3390  0.5498 -0.2177
 4703TIP3   OH235743   5.779   1.978   1.092 -0.3157  0.0663  0.3039
 4703TIP3    H135744   5.706   1.975   1.030  1.0319 -0.1698 -1.3530
 4703TIP3    H235745   5.805   1.886   1.103  2.0092  0.3012 -2.0723
 4704TIP3   OH235746   4.883   4.081   9.155  0.4888  0.2107 -0.1260
 4704TIP3    H135747   4.883   3.993   9.118 -0.5737  1.1254 -2.5618
 4704TIP3    H235748   4.970   4.092   9.193  0.2981 -2.2115  1.1774
 4705TIP3   OH235749   5.954   6.342   9.154  0.1031 -0.5509 -0.0380
 4705TIP3    H135750   5.934   6.337   9.061 -0.5195  2.3969 -0.1535
 4705TIP3    H235751   5.875   6.308   9.198  1.1286 -3.8506 -0.4571
 4706TIP3   OH235752   4.262   3.635   0.725 -0.3415 -0.7209  0.2067
 4706TIP3    H135753   4.236   3.678   0.806 -3.0559 -1.2036 -0.3083
 4706TIP3    H235754   4.243   3.542   0.739  0.1733 -0.9697 -0.6252
 4707TIP3   OH235755   3.230   4.265   8.844 -0.5263  0.3632  0.2066
 4707TIP3    H135756   3.284   4.318   8.903  1.2574 -0.2011 -0.8489
 4707TIP3    H235757   3.285   4.249   8.768 -2.2777 -0.0938 -1.0373
 4708TIP3   OH235758   4.207   3.642   9.260 -0.4778  0.2504  0.6058
 4708TIP3    H135759   4.293   3.601   9.262 -0.1432  0.8656 -0.4682
 4708TIP3    H235760   4.176   3.636   9.351  0.1734 -1.0358  0.7703
 4709TIP3   OH235761   4.317   0.078   9.737  0.8131 -0.2483 -0.5737
 4709TIP3    H135762   4.290   0.166   9.763 -1.4402 -0.8698 -0.6029
 4709TIP3    H235763   4.290   0.022   9.810  1.0864 -1.0702 -1.0818
 4710TIP3   OH235764   1.917   4.041   9.941  1.0900 -0.2874  0.2779
 4710TIP3    H135765   1.852   4.100   9.903  0.7795 -0.2811  0.8001
 4710TIP3    H235766   1.940   3.982   9.870 -0.5377 -1.1859  0.4502
 4711TIP3   OH235767   3.889   2.803   1.268 -0.4724  0.6041  0.0146
 4711TIP3    H135768   3.798   2.816   1.241 -0.0559  1.0451 -1.2567
 4711TIP3    H235769   3.940   2.824   1.190  0.7462  0.7201  0.8217
 4712TIP3   OH235770   4.861   4.578   0.792 -0.5888 -0.0615  0.0805
 4712TIP3    H135771   4.952   4.549   0.802 -0.3720  0.5228 -0.1734
 4712TIP3    H235772   4.812   4.522   0.852  0.0367  0.1105  0.7774
 4713TIP3   OH235773   2.422   1.479   1.421  0.0418 -0.2697  0.0804
 4713TIP3    H135774   2.384   1.565   1.438 -0.8469 -0.5312 -0.5321
 4713TIP3    H235775   2.473   1.460   1.500 -1.1231  0.0809  0.9517
 4714TIP3   OH235776   5.804   1.164   8.042 -0.1896  0.5333  0.4986
 4714TIP3    H135777   5.846   1.200   7.964  0.8694  0.6536  1.1126
 4714TIP3    H235778   5.781   1.074   8.017  1.1409  0.2046  0.3882
 4715TIP3   OH235779   5.842   2.681   9.260 -0.0896 -0.3209  0.2349
 4715TIP3    H135780   5.904   2.613   9.286 -0.7943 -0.7157  0.9422
 4715TIP3    H235781   5.766   2.633   9.227 -0.6150  0.1106  0.7831
 4716TIP3   OH235782   6.011   1.320   1.340  0.0588 -0.9209 -0.9212
 4716TIP3    H135783   5.959   1.391   1.301 -0.3188 -1.7806 -2.0185
 4716TIP3    H235784   6.013   1.341   1.434  0.1078  0.6337 -1.2442
 4717TIP3   OH235785   1.110   0.665   1.936 -0.1170  0.3630 -0.6029
 4717TIP3    H135786   1.188   0.616   1.912  1.2614  2.1956 -0.1596
 4717TIP3    H235787   1.084   0.710   1.855  0.7278  1.5796 -0.2247
 4718TIP3   OH235788   3.759   2.066   8.160  0.2585  0.6315 -0.3239
 4718TIP3    H135789   3.851   2.049   8.180  0.2033 -0.1477 -0.6885
 4718TIP3    H235790   3.752   2.052   8.066 -0.0205  1.7571 -0.4889
 4719TIP3   OH235791   0.303   0.162   0.846  0.3890  0.2663  0.1348
 4719TIP3    H135792   0.294   0.109   0.925  1.8113  0.7685  0.6696
 4719TIP3    H235793   0.398   0.168   0.831  0.1605  0.4192 -1.4583
 4720TIP3   OH235794   1.062   3.663   2.257  1.0579  0.7660 -0.4110
 4720TIP3    H135795   1.018   3.661   2.171  3.3155 -1.3745 -1.6559
 4720TIP3    H235796   1.154   3.650   2.236  1.5025 -1.6316  2.4041
 4721TIP3   OH235797   2.253   3.999   2.796  0.3735  0.0062  0.1298
 4721TIP3    H135798   2.271   3.930   2.733  1.7890  0.9174 -0.5074
 4721TIP3    H235799   2.227   4.074   2.742  2.3523  1.0288  0.5239
 4722TIP3   OH235800   5.213   0.138   3.057  0.1686  0.3095  0.0327
 4722TIP3    H135801   5.132   0.116   3.012  0.9902 -1.5379 -0.6541
 4722TIP3    H235802   5.223   0.069   3.123 -0.3790  2.2697  2.3210
 4723TIP3   OH235803   0.428   6.325   8.084  0.1898 -0.5104  0.0621
 4723TIP3    H135804   0.517   6.301   8.060 -0.5035 -1.1839 -2.1458
 4723TIP3    H235805   0.430   6.421   8.091  0.9945 -0.4729 -0.5397
 4724TIP3   OH235806   3.338   0.598   1.821  0.4752  0.3920 -0.3365
 4724TIP3    H135807   3.332   0.692   1.837  4.0613  0.7897 -0.5056
 4724TIP3    H235808   3.378   0.563   1.901 -0.7877 -1.0336 -0.2817
 4725TIP3   OH235809   1.410   5.613   7.676  0.5520 -0.1000  0.2799
 4725TIP3    H135810   1.466   5.540   7.702  1.5657  0.3854 -0.4939
 4725TIP3    H235811   1.367   5.584   7.596 -3.0507 -1.8399  2.5946
 4726TIP3   OH235812   3.805   1.761   0.667 -0.3855 -0.6594  0.1768
 4726TIP3    H135813   3.710   1.770   0.656 -0.0961  1.8189 -1.2109
 4726TIP3    H235814   3.841   1.800   0.587  1.8229 -1.8937  0.5085
 4727TIP3   OH235815   6.179   5.266   1.807 -0.2681 -0.1536  0.2257
 4727TIP3    H135816   6.096   5.252   1.761  0.2209  3.2993 -2.0974
 4727TIP3    H235817   6.245   5.230   1.748  0.1499  1.6332 -0.4758
 4728TIP3   OH235818   0.844   2.344   1.504 -0.1281  0.8022  0.2145
 4728TIP3    H135819   0.847   2.425   1.556 -1.5031  3.5201 -3.4857
 4728TIP3    H235820   0.751   2.332   1.484  0.3211 -0.1779 -1.4485
 4729TIP3   OH235821   3.439   1.296   2.279  0.3240  0.4317 -0.0763
 4729TIP3    H135822   3.404   1.319   2.193  0.6254  1.6656  0.1054
 4729TIP3    H235823   3.374   1.328   2.341  0.0622 -0.5363  0.1625
 4730TIP3   OH235824   4.382   2.702   0.027 -0.1215  0.6966  0.2349
 4730TIP3    H135825   4.315   2.715   0.094 -0.9958 -1.6297 -0.0963
 4730TIP3    H235826   4.333   2.702  -0.055  0.5816  0.9613 -0.1865
 4731TIP3   OH235827   2.473   4.782   1.648 -0.7128 -0.0475 -0.3896
 4731TIP3    H135828   2.441   4.870   1.668 -1.8757 -0.1908 -1.4852
 4731TIP3    H235829   2.562   4.795   1.616 -0.9850  0.7652 -0.8268
 4732TIP3   OH235830   6.142   0.622   9.071  0.2897  0.2272  0.3540
 4732TIP3    H135831   6.203   0.672   9.017  0.1331 -1.9237 -2.0025
 4732TIP3    H235832   6.195   0.590   9.143  1.2693  0.7047 -0.1296
 4733TIP3   OH235833   2.138   2.591   2.793  0.3799 -0.4921  0.4081
 4733TIP3    H135834   2.213   2.533   2.809  0.5426 -0.9129 -1.5883
 4733TIP3    H235835   2.073   2.535   2.750 -0.7371  0.0898  1.2814
 4734TIP3   OH235836   5.235   0.780   0.935  0.6103 -0.3515 -0.2102
 4734TIP3    H135837   5.204   0.868   0.915  1.4705 -0.2049 -0.9881
 4734TIP3    H235838   5.215   0.767   1.027 -1.3281 -0.1037 -0.5528
 4735TIP3   OH235839   5.050   5.437   3.650  0.4278  0.0203 -0.0084
 4735TIP3    H135840   5.064   5.407   3.740  1.2819 -0.2997 -0.2373
 4735TIP3    H235841   5.122   5.498   3.634 -0.0935  0.5771 -0.2609
 4736TIP3   OH235842   4.591   4.342   9.220  0.3650 -0.0555  0.4029
 4736TIP3    H135843   4.597   4.327   9.314 -0.7232 -0.7873  0.3705
 4736TIP3    H235844   4.515   4.400   9.210  1.1552  0.9642  0.0512
 4737TIP3   OH235845   5.762   5.666   1.226 -0.0608 -0.5044  0.4258
 4737TIP3    H135846   5.789   5.703   1.310 -0.5165  1.1631 -0.1161
 4737TIP3    H235847   5.844   5.646   1.181  0.2531  0.6948  0.4138
 4738TIP3   OH235848   0.399   3.761   0.568  0.2169 -0.2290  0.5525
 4738TIP3    H135849   0.438   3.848   0.553 -1.4072  0.3507 -0.5133
 4738TIP3    H235850   0.362   3.766   0.656 -2.4136  1.2403 -0.5277
 4739TIP3   OH235851   3.100   2.497   1.307  0.5568  0.1634  0.4910
 4739TIP3    H135852   3.122   2.588   1.325 -0.5874  0.2832  1.4502
 4739TIP3    H235853   3.033   2.475   1.372  1.8669 -1.8273  1.2534
 4740TIP3   OH235854   5.221   1.671   1.719  0.1958  0.0071 -0.1183
 4740TIP3    H135855   5.131   1.648   1.742  0.7350 -0.2013  2.0837
 4740TIP3    H235856   5.249   1.728   1.791  1.2650  1.5515 -1.6809
 4741TIP3   OH235857   5.666   6.321   9.180 -0.0149 -0.5153  0.7258
 4741TIP3    H135858   5.642   6.229   9.190 -0.3192 -0.4221  0.8722
 4741TIP3    H235859   5.621   6.350   9.101  2.3569 -1.2365 -0.9947
 4742TIP3   OH235860   4.020   3.458   1.892  0.3406 -0.3102 -0.0612
 4742TIP3    H135861   4.096   3.509   1.862  0.3745 -0.6302 -0.5312
 4742TIP3    H235862   3.999   3.401   1.818 -0.2843 -0.3111  0.1123
 4743TIP3   OH235863   3.480   5.226   9.949 -0.6035 -0.1585 -0.1236
 4743TIP3    H135864   3.548   5.173   9.989 -1.6939 -1.0372  0.6416
 4743TIP3    H235865   3.483   5.309   9.996  1.4427  0.7286 -1.6590
 4744TIP3   OH235866   3.810   5.319   3.741  0.1032 -0.1320  0.0927
 4744TIP3    H135867   3.841   5.229   3.725  0.4349  0.0273 -0.1785
 4744TIP3    H235868   3.887   5.373   3.724 -0.7196  0.4261 -2.2433
 4745TIP3   OH235869   2.660   0.648   8.442  0.1592  0.5414 -0.1794
 4745TIP3    H135870   2.739   0.619   8.487 -1.0076 -0.1687  1.5022
 4745TIP3    H235871   2.637   0.730   8.486 -0.3219  0.4706 -0.2963
 4746TIP3   OH235872   0.294   0.109   9.622  0.0584  0.0656 -0.5396
 4746TIP3    H135873   0.202   0.136   9.629 -0.5601 -1.1629 -2.9283
 4746TIP3    H235874   0.330   0.125   9.709 -2.1958  1.3343  0.2520
 4747TIP3   OH235875   0.084   6.178   9.549  0.0697 -0.0300  0.0996
 4747TIP3    H135876   0.116   6.129   9.472  2.1087 -0.1280  0.9506
 4747TIP3    H235877   0.047   6.258   9.512  0.5038 -0.3262 -1.0446
 4748TIP3   OH235878   1.434   5.982   9.323  0.0460 -0.3545  0.2306
 4748TIP3    H135879   1.414   5.889   9.309 -1.6109  0.1136 -0.9500
 4748TIP3    H235880   1.489   6.006   9.249  2.3675 -0.8598  1.7135
 4749TIP3   OH235881   0.170   5.396   1.600 -0.3924  0.2122 -1.2032
 4749TIP3    H135882   0.250   5.434   1.562  0.2967  0.7124  0.6023
 4749TIP3    H235883   0.139   5.464   1.660 -1.0434 -0.7886 -0.3919
 4750TIP3   OH235884   2.912   3.260   3.909  0.3861  0.2608 -0.1839
 4750TIP3    H135885   2.945   3.341   3.869 -0.2256  1.1243  1.0021
 4750TIP3    H235886   2.983   3.232   3.967 -0.6598  1.8827  2.0367
 4751TIP3   OH235887   0.392   5.825   8.043  0.2370 -0.1568 -0.1668
 4751TIP3    H135888   0.486   5.813   8.031  0.5076  1.4812  0.1452
 4751TIP3    H235889   0.356   5.825   7.955  0.2246 -2.6267 -0.2499
 4752TIP3   OH235890   6.155   5.717   9.833 -0.3680 -0.4661 -0.0123
 4752TIP3    H135891   6.100   5.795   9.834 -1.5170 -1.2431 -0.4374
 4752TIP3    H235892   6.170   5.698   9.926  0.9298  0.9134  0.0969
 4753TIP3   OH235893   5.203   2.617   0.372  0.1384  0.5173  0.1504
 4753TIP3    H135894   5.210   2.621   0.276 -0.9629  1.0819  0.0808
 4753TIP3    H235895   5.281   2.568   0.399 -0.4290 -1.2362 -1.1615
 4754TIP3   OH235896   3.402   4.676   9.144 -0.3417 -0.1728 -0.0009
 4754TIP3    H135897   3.401   4.761   9.188  1.2426  0.4210 -1.0169
 4754TIP3    H235898   3.469   4.626   9.190 -0.3185 -0.3838 -0.2652
 4755TIP3   OH235899   1.102   2.026   2.525  0.2223  0.2766 -0.2732
 4755TIP3    H135900   1.131   2.040   2.615 -1.8155  1.2880  0.2715
 4755TIP3    H235901   1.033   2.091   2.511 -0.2426 -0.5641 -2.2094
 4756TIP3   OH235902   0.214   0.565   8.044  0.4347  0.2079 -0.1211
 4756TIP3    H135903   0.143   0.562   7.980  0.1288 -1.3425  0.2556
 4756TIP3    H235904   0.294   0.566   7.992  0.1777 -0.4584 -0.5350
 4757TIP3   OH235905   3.745   3.351   0.814 -0.2233  0.1747 -0.0242
 4757TIP3    H135906   3.750   3.298   0.735  1.4145  2.3865 -1.5196
 4757TIP3    H235907   3.824   3.405   0.812 -0.4144  0.7213  2.8427
 4758TIP3   OH235908   4.374   3.045   9.365 -0.8817  0.2778 -0.3828
 4758TIP3    H135909   4.442   3.034   9.299 -0.4321 -0.8855  0.2464
 4758TIP3    H235910   4.355   3.139   9.365 -1.4850  0.2099 -2.7241
 4759TIP3   OH235911   0.282   5.775   9.696 -0.3079 -0.3900 -0.4476
 4759TIP3    H135912   0.290   5.799   9.603  0.1697 -0.9699 -0.5628
 4759TIP3    H235913   0.335   5.840   9.742  1.2981 -1.4005 -0.7931
 4760TIP3   OH235914   2.376   1.045   9.339  0.0498 -0.0293 -0.3979
 4760TIP3    H135915   2.310   0.990   9.297  0.4953 -1.5653  0.7909
 4760TIP3    H235916   2.327   1.120   9.373 -0.8897 -0.5882 -0.5012
 4761TIP3   OH235917   4.718   5.716   2.606  0.4240 -0.7022 -0.6361
 4761TIP3    H135918   4.756   5.629   2.620  4.5319  0.7378 -1.3613
 4761TIP3    H235919   4.704   5.721   2.512  0.2602 -0.5380 -0.6039
 4762TIP3   OH235920   1.287   4.642   9.557  0.1338  0.0093 -0.1293
 4762TIP3    H135921   1.272   4.733   9.581  0.6538 -0.0422  0.4023
 4762TIP3    H235922   1.232   4.591   9.617 -0.6030 -0.0125 -0.8040
 4763TIP3   OH235923   0.937   5.451   9.694 -0.2868  0.2251  0.5804
 4763TIP3    H135924   1.008   5.503   9.733 -1.2663  1.4268  0.8322
 4763TIP3    H235925   0.862   5.510   9.693 -0.9305 -0.5592 -0.9732
 4764TIP3   OH235926   3.861   4.635   1.277  0.3923 -0.0207 -0.5422
 4764TIP3    H135927   3.798   4.705   1.260  0.9144  0.5065 -0.3621
 4764TIP3    H235928   3.881   4.599   1.190 -0.1069 -0.1466 -0.6045
 4765TIP3   OH235929   0.833   5.391   2.459 -0.4702  0.3923 -0.8342
 4765TIP3    H135930   0.889   5.468   2.443 -1.4037  1.2238 -0.2347
 4765TIP3    H235931   0.881   5.340   2.524  0.0498  0.5895 -1.0561
 4766TIP3   OH235932   3.850   2.995   8.503  0.4017 -0.0053  0.1395
 4766TIP3    H135933   3.911   3.006   8.430  0.6363 -0.5308  0.2551
 4766TIP3    H235934   3.766   3.026   8.469  0.2456 -1.3222 -0.7439
 4767TIP3   OH235935   0.300   0.041   8.336 -0.4771 -0.5765  0.0563
 4767TIP3    H135936   0.333   0.095   8.264  1.6800 -0.9443  0.7026
 4767TIP3    H235937   0.356   0.063   8.410 -0.9856 -2.0838  0.9241
 4768TIP3   OH235938   5.712   1.100   0.746  0.0493 -0.6685  0.5295
 4768TIP3    H135939   5.648   1.147   0.799 -0.4820  0.0708 -0.7444
 4768TIP3    H235940   5.782   1.163   0.731  0.3484 -0.9790  0.6076
 4769TIP3   OH235941   3.836   4.072   3.021 -0.5617 -0.0352  0.3337
 4769TIP3    H135942   3.779   3.998   3.046 -1.3653 -0.2064 -1.7820
 4769TIP3    H235943   3.918   4.056   3.067 -0.8405 -2.1016  0.2109
 4770TIP3   OH235944   2.189   5.992   0.700  0.1919  0.1564 -0.5630
 4770TIP3    H135945   2.121   5.956   0.757  1.5307 -1.1170  0.3279
 4770TIP3    H235946   2.187   6.086   0.716 -1.8631  0.2494 -1.1739
 4771TIP3   OH235947   0.738   4.029   0.615 -0.4040 -0.5721  0.5906
 4771TIP3    H135948   0.798   3.954   0.607  0.1004 -0.1935  0.7726
 4771TIP3    H235949   0.784   4.090   0.673  0.3198  0.9734 -1.4961
 4772TIP3   OH235950   4.629   3.188   2.748  0.6319  0.0615 -0.7285
 4772TIP3    H135951   4.723   3.168   2.744  0.6802  0.5016 -2.4817
 4772TIP3    H235952   4.598   3.139   2.825  1.9862 -1.3828 -1.0417
 4773TIP3   OH235953   1.487   0.547   1.449  0.3502 -0.4165  0.2027
 4773TIP3    H135954   1.465   0.470   1.396 -0.0171  0.2492 -0.6492
 4773TIP3    H235955   1.503   0.513   1.537 -1.1510 -1.3002  0.1627
 4774TIP3   OH235956   6.355   5.648   0.573 -0.3086  0.3885  0.4550
 4774TIP3    H135957   6.420   5.671   0.507  0.5462  1.5673  1.6439
 4774TIP3    H235958   6.316   5.731   0.598  0.3254  0.1718  2.3403
 4775TIP3   OH235959   3.665   2.378   2.862 -0.0029  0.5927  0.0038
 4775TIP3    H135960   3.631   2.417   2.782 -1.1729  0.4424  0.4049
 4775TIP3    H235961   3.589   2.335   2.902  1.4998 -4.0727 -1.5076
 4776TIP3   OH235962   4.852   4.789   2.407 -0.1631  0.2727 -0.1520
 4776TIP3    H135963   4.829   4.784   2.500 -0.5084 -1.0458 -0.2868
 4776TIP3    H235964   4.817   4.709   2.369  3.0165 -1.0118 -0.7424
 4777TIP3   OH235965   5.607   4.835   1.949 -0.0077 -0.6888 -0.2272
 4777TIP3    H135966   5.607   4.801   2.038 -0.6080 -1.4525 -0.5111
 4777TIP3    H235967   5.521   4.812   1.914 -0.0271  0.1755 -0.7902
 4778TIP3   OH235968   2.210   2.637   9.560  0.2317 -0.0697 -0.0219
 4778TIP3    H135969   2.242   2.645   9.650  0.0378  1.2678 -0.0547
 4778TIP3    H235970   2.278   2.586   9.516 -0.2318 -1.7738  1.1360
 4779TIP3   OH235971   0.783   3.977   1.277  0.0327  0.0348 -0.2373
 4779TIP3    H135972   0.814   4.050   1.223 -0.6425  0.7069  0.2549
 4779TIP3    H235973   0.840   3.904   1.254  0.3206  0.5448 -1.2075
 4780TIP3   OH235974   3.972   0.359   9.338  0.1048  0.7482  0.1323
 4780TIP3    H135975   3.950   0.277   9.381  2.0771 -0.2085 -0.5580
 4780TIP3    H235976   4.048   0.393   9.387  2.5792 -0.4935 -2.5077
 4781TIP3   OH235977   0.733   0.915   2.384 -0.1806 -0.3748  0.4295
 4781TIP3    H135978   0.768   0.915   2.473  0.0885 -1.3687  0.3387
 4781TIP3    H235979   0.736   0.823   2.357 -0.0056 -0.0515 -0.7081
 4782TIP3   OH235980   3.501   4.164   1.622 -0.5113 -0.0354  0.0829
 4782TIP3    H135981   3.453   4.153   1.539  0.0147  0.4234 -0.2906
 4782TIP3    H235982   3.532   4.076   1.644 -0.3639 -0.1055 -0.3900
 4783TIP3   OH235983   4.300   4.434   3.446  0.5305  0.1251 -0.3925
 4783TIP3    H135984   4.391   4.452   3.472  0.5820 -0.1129 -0.3997
 4783TIP3    H235985   4.248   4.496   3.497  0.2248 -3.0740  3.8293
 4784TIP3   OH235986   1.156   4.519   2.114  0.7281 -0.1184 -0.3645
 4784TIP3    H135987   1.067   4.513   2.078  1.5241 -1.0349 -2.3255
 4784TIP3    H235988   1.160   4.606   2.153 -0.7955  0.2447 -0.9591
 4785TIP3   OH235989   3.821   1.854   8.877  0.0897  0.0136 -0.0604
 4785TIP3    H135990   3.864   1.776   8.911 -1.5174  0.1678  2.5971
 4785TIP3    H235991   3.870   1.927   8.915 -0.2452  0.2536 -0.0865
 4786TIP3   OH235992   0.944   6.407   8.130  0.7284  0.6315 -0.3424
 4786TIP3    H135993   0.922   6.319   8.160  0.4948  0.9585  0.4787
 4786TIP3    H235994   1.017   6.394   8.069  1.3649 -0.0515  0.5335
 4787TIP3   OH235995   3.870   0.244   1.174 -0.3524 -0.2264  0.1704
 4787TIP3    H135996   3.956   0.204   1.166 -0.0961  0.4080 -0.3416
 4787TIP3    H235997   3.842   0.260   1.084 -0.5862  0.4467  0.3525
 4788TIP3   OH235998   0.969   4.592   9.461 -0.2317 -0.6946  0.1188
 4788TIP3    H135999   0.904   4.550   9.404  2.3332 -3.0030 -1.2991
 4788TIP3    H236000   0.994   4.672   9.415 -0.5176 -0.8889 -0.3821
 4789TIP3   OH236001   1.213   2.722   9.309 -0.0274 -0.2632  0.2444
 4789TIP3    H136002   1.228   2.772   9.229 -0.5671  0.6094  0.6760
 4789TIP3    H236003   1.167   2.644   9.279 -1.4290  0.6806 -0.1624
 4790TIP3   OH236004   4.515   4.845   2.398 -0.2918  0.2498 -0.0907
 4790TIP3    H136005   4.548   4.933   2.416  0.5992 -0.4535  1.9252
 4790TIP3    H236006   4.495   4.808   2.484 -3.1354 -0.6390 -1.0166
 4791TIP3   OH236007   3.848   4.576   0.337  0.4717 -0.5945 -0.3350
 4791TIP3    H136008   3.822   4.582   0.429 -0.2284 -0.8456 -0.5107
 4791TIP3    H236009   3.915   4.644   0.327 -0.8107  0.7506 -0.0944
 4792TIP3   OH236010   1.710   6.011   0.872  0.0088  0.0226 -0.0677
 4792TIP3    H136011   1.621   6.025   0.840  0.0350 -2.4748 -1.5182
 4792TIP3    H236012   1.699   5.954   0.949  0.3669 -1.1364 -0.8548
 4793TIP3   OH236013   5.775   3.464   1.989 -0.3821  0.2802  0.6492
 4793TIP3    H136014   5.759   3.390   2.048  2.1613  0.5332  1.7842
 4793TIP3    H236015   5.845   3.514   2.032 -0.1478  1.8502 -1.4185
 4794TIP3   OH236016   6.132   2.924   1.281 -0.4506  0.8128  0.5986
 4794TIP3    H136017   6.175   2.840   1.298 -0.2356  1.2337  2.3904
 4794TIP3    H236018   6.145   2.973   1.362 -2.0310  1.9463  0.2004
 4795TIP3   OH236019   4.975   2.136   9.492  0.0918  0.3374 -0.3404
 4795TIP3    H136020   4.949   2.212   9.544  0.2699 -0.4876  1.0037
 4795TIP3    H236021   4.973   2.063   9.554 -1.2633 -0.9935 -1.8387
 4796TIP3   OH236022   3.202   6.216   2.571  0.0203  0.6803 -0.2458
 4796TIP3    H136023   3.116   6.223   2.530 -0.2064 -0.1959  0.0474
 4796TIP3    H236024   3.184   6.180   2.658  0.7748 -0.8294 -0.6738
 4797TIP3   OH236025   3.000   2.014   8.092 -0.1844 -0.2699 -0.6484
 4797TIP3    H136026   2.994   2.067   8.013 -1.0387 -0.9793 -1.0771
 4797TIP3    H236027   3.056   1.940   8.067  2.4253  1.2040  0.4249
 4798TIP3   OH236028   4.144   5.707   1.004  0.1524 -0.1166  0.5168
 4798TIP3    H136029   4.083   5.640   1.036 -0.9603  0.2173 -0.8149
 4798TIP3    H236030   4.095   5.789   1.011  1.2720  0.4979  1.5186
 4799TIP3   OH236031   3.631   5.542   8.851 -0.1973  0.2911 -0.0279
 4799TIP3    H136032   3.540   5.517   8.864 -0.5772  1.4496 -0.3099
 4799TIP3    H236033   3.670   5.470   8.802 -0.8325 -0.4208  0.4928
 4800TIP3   OH236034   0.651   1.143   0.926  0.0594  0.2652 -0.1598
 4800TIP3    H136035   0.692   1.221   0.886 -1.3407  0.9641 -0.2704
 4800TIP3    H236036   0.653   1.160   1.020 -0.7159  0.6948 -0.2113
 4801TIP3   OH236037   0.893   0.799   9.343  0.7756  0.7839  0.2449
 4801TIP3    H136038   0.829   0.738   9.306  1.8722  0.4619 -1.2069
 4801TIP3    H236039   0.950   0.744   9.396  0.6600  0.8546  0.4441
 4802TIP3   OH236040   2.864   3.934   3.562  0.1977 -0.7397  0.0417
 4802TIP3    H136041   2.935   3.995   3.585 -0.5308 -0.3338  1.3627
 4802TIP3    H236042   2.848   3.885   3.643 -1.1437 -0.6787 -0.1604
 4803TIP3   OH236043   4.668   4.665   0.433 -0.2642 -0.2449 -0.4964
 4803TIP3    H136044   4.634   4.665   0.344 -0.4541  1.0688 -0.4409
 4803TIP3    H236045   4.596   4.698   0.487  0.8732  2.1688 -0.3186
 4804TIP3   OH236046   5.199   4.316   3.251 -0.1047  0.2198 -0.5268
 4804TIP3    H136047   5.130   4.294   3.315 -1.0622 -0.6630 -1.7949
 4804TIP3    H236048   5.278   4.277   3.287 -0.5135  0.2013  0.3813
 4805TIP3   OH236049   0.590   0.281   1.644  0.4810 -0.0825  0.0405
 4805TIP3    H136050   0.529   0.343   1.603 -0.9368 -0.5820  1.2873
 4805TIP3    H236051   0.670   0.331   1.658  0.1315  0.8083 -0.9991
 4806TIP3   OH236052   2.184   3.336   8.789  0.4740  0.0692 -0.3967
 4806TIP3    H136053   2.250   3.269   8.803  0.1582 -0.5778 -1.8511
 4806TIP3    H236054   2.128   3.331   8.866  1.1102 -0.5492  0.0397
 4807TIP3   OH236055   1.192   0.123   7.918 -0.2644  0.3776  0.0859
 4807TIP3    H136056   1.205   0.217   7.906  0.4988 -0.0764 -4.7487
 4807TIP3    H236057   1.277   0.090   7.946  0.0014  0.8942 -0.1055
 4808TIP3   OH236058   3.477   0.115   1.665  0.3763 -0.5493  0.0438
 4808TIP3    H136059   3.566   0.151   1.668 -0.5477  1.8314  2.6450
 4808TIP3    H236060   3.421   0.191   1.651 -1.3470 -1.8536 -0.4005
 4809TIP3   OH236061   0.581   1.453   1.945  0.6412 -0.2703  0.0603
 4809TIP3    H136062   0.669   1.461   1.908  0.8212 -1.2536  0.2397
 4809TIP3    H236063   0.559   1.541   1.976  1.6865 -0.0820  0.2913
 4810TIP3   OH236064   1.183   4.896   8.030 -0.1862  0.1398 -0.4992
 4810TIP3    H136065   1.173   4.905   7.935  1.7670  0.5022 -0.7235
 4810TIP3    H236066   1.224   4.810   8.041  1.6159  1.0065 -0.1949
 4811TIP3   OH236067   4.812   5.797   3.573 -0.0089 -0.2245 -0.1581
 4811TIP3    H136068   4.719   5.772   3.580 -0.0287 -0.2806 -0.6261
 4811TIP3    H236069   4.846   5.784   3.662 -0.5812  0.3371  0.1543
 4812TIP3   OH236070   0.566   3.542   1.690  0.0707 -0.0266  0.0056
 4812TIP3    H136071   0.477   3.508   1.698  0.3328 -0.6419  0.3576
 4812TIP3    H236072   0.614   3.474   1.643  0.2478  0.5118 -0.6218
 4813TIP3   OH236073   5.837   5.608   0.378  0.2494  0.4346  0.0190
 4813TIP3    H136074   5.909   5.549   0.401  0.3436  0.7863  0.6758
 4813TIP3    H236075   5.863   5.647   0.295  0.6230  0.2411  0.0440
 4814TIP3   OH236076   2.921   4.212   9.484  0.5015  0.3331 -0.1243
 4814TIP3    H136077   2.966   4.128   9.483  0.5641  0.3576 -1.2748
 4814TIP3    H236078   2.830   4.190   9.506  0.0403 -0.3411 -2.4292
 4815TIP3   OH236079   3.278   1.576   0.480  0.2023 -0.2564  0.3032
 4815TIP3    H136080   3.230   1.597   0.400  0.4947 -1.2241 -0.1426
 4815TIP3    H236081   3.249   1.487   0.503 -0.4033  0.2683  1.6668
 4816TIP3   OH236082   1.425   5.697   0.193  0.1315  0.3000  0.7007
 4816TIP3    H136083   1.402   5.704   0.286 -0.5809  0.2277  0.5359
 4816TIP3    H236084   1.476   5.776   0.175 -0.4654  0.7550  0.9478
 4817TIP3   OH236085   1.839   2.882   0.781  0.3252  0.3017 -0.1628
 4817TIP3    H136086   1.852   2.969   0.743  0.1147  0.7550  0.7644
 4817TIP3    H236087   1.916   2.868   0.836  0.2404  0.0129 -0.1173
 4818TIP3   OH236088   2.836   1.219   1.324 -0.2001  0.4506 -0.3080
 4818TIP3    H136089   2.913   1.239   1.270  0.3970 -2.6355 -0.7696
 4818TIP3    H236090   2.794   1.304   1.338  1.2554  1.7771 -3.1309
 4819TIP3   OH236091   4.856   5.126   1.194  0.4716  0.3027  0.0159
 4819TIP3    H136092   4.905   5.208   1.199  2.3900 -0.8025  0.3817
 4819TIP3    H236093   4.912   5.062   1.239 -0.8126 -1.2846 -0.5490
 4820TIP3   OH236094   2.226   1.370   8.877 -0.0557 -0.1664  0.5609
 4820TIP3    H136095   2.272   1.289   8.899 -1.6499 -0.9571  1.1582
 4820TIP3    H236096   2.220   1.417   8.961 -0.8968 -0.3963  0.6424
 4821TIP3   OH236097   3.576   5.304   0.722 -0.3424  0.4549 -0.6055
 4821TIP3    H136098   3.501   5.251   0.749 -0.9655  1.3937 -0.4872
 4821TIP3    H236099   3.543   5.361   0.653  0.5319  0.1270 -1.3258
 4822TIP3   OH236100   5.745   5.375   0.112  0.3545  0.2131  0.0260
 4822TIP3    H136101   5.695   5.444   0.156  1.0986  0.4776  0.4692
 4822TIP3    H236102   5.808   5.345   0.177  0.1951 -0.7406 -0.2327
 4823TIP3   OH236103   0.495   4.380   7.465  0.1938  0.2827 -0.4199
 4823TIP3    H136104   0.444   4.347   7.539  0.8747 -0.6067 -0.3347
 4823TIP3    H236105   0.569   4.426   7.505  0.8420 -0.6411 -0.5326
 4824TIP3   OH236106   3.883   5.481   1.304 -0.0466  0.1824  0.7768
 4824TIP3    H136107   3.843   5.540   1.240  0.2517 -1.8536 -1.4084
 4824TIP3    H236108   3.976   5.481   1.281  0.0096 -0.8484  0.9909
 4825TIP3   OH236109   6.334   5.205   8.855  0.0992  0.4474  0.4222
 4825TIP3    H136110   6.388   5.140   8.810 -0.5711  0.3834 -0.3172
 4825TIP3    H236111   6.295   5.158   8.928 -1.8248 -0.5443 -1.1390
 4826TIP3   OH236112   4.045   2.582   1.966 -0.5719 -0.1641 -0.8296
 4826TIP3    H136113   4.088   2.515   1.912 -4.5944 -1.1311 -3.2839
 4826TIP3    H236114   3.969   2.538   2.003 -0.2596  1.6729  2.3967
 4827TIP3   OH236115   0.211   2.927   0.473  0.5704  0.1269 -0.5477
 4827TIP3    H136116   0.290   2.893   0.432 -0.3692 -0.2263 -2.1882
 4827TIP3    H236117   0.191   2.864   0.543  1.0325 -0.4953 -0.9665
 4828TIP3   OH236118   2.593   2.078   1.543  0.0601 -0.6113 -0.2904
 4828TIP3    H136119   2.558   1.996   1.577  1.2879 -1.3887 -0.8294
 4828TIP3    H236120   2.671   2.053   1.495 -0.0171  0.7837 -1.2209
 4829TIP3   OH236121   2.879   1.501   1.329  0.4861 -0.4602 -0.5662
 4829TIP3    H136122   2.836   1.517   1.413  0.9501 -0.8186 -0.2532
 4829TIP3    H236123   2.869   1.583   1.281 -0.4239 -0.4908 -0.4498
 4830TIP3   OH236124   4.420   5.190   8.958 -0.5742 -0.0429 -0.6894
 4830TIP3    H136125   4.460   5.214   8.874  0.3743  0.3716 -0.1391
 4830TIP3    H236126   4.492   5.152   9.008 -1.5038 -1.8106 -0.6486
 4831TIP3   OH236127   1.365   1.821   8.318 -0.0897 -0.0125 -0.0907
 4831TIP3    H136128   1.368   1.769   8.238 -0.4585  0.4404 -0.4063
 4831TIP3    H236129   1.316   1.899   8.294 -0.1820  0.1417  0.5743
 4832TIP3   OH236130   6.277   1.340   9.983  0.2801 -0.5070 -0.4014
 4832TIP3    H136131   6.285   1.345   9.888  2.1957 -0.3509 -0.2781
 4832TIP3    H236132   6.334   1.267  10.008  2.7837  1.6960  0.8594
 4833TIP3   OH236133   2.468   1.856   2.082 -0.2955  0.0497 -0.1020
 4833TIP3    H136134   2.408   1.851   2.157 -0.3134  1.2703 -0.0240
 4833TIP3    H236135   2.447   1.779   2.029 -1.6169  0.2280  0.1470
 4834TIP3   OH236136   4.881   1.211   9.520  0.3071 -0.0525  0.4571
 4834TIP3    H136137   4.861   1.301   9.492  1.6194  0.1339  0.0713
 4834TIP3    H236138   4.904   1.165   9.439  2.1078 -0.0600  0.9425
 4835TIP3   OH236139   6.086   1.202   8.255  0.1027 -0.1036 -0.1951
 4835TIP3    H136140   6.009   1.184   8.308 -0.4365 -0.9107 -1.2139
 4835TIP3    H236141   6.158   1.160   8.303 -0.3616 -0.7729 -0.0701
 4836TIP3   OH236142   0.256   2.828   8.329 -0.2079  0.3643 -0.1794
 4836TIP3    H136143   0.208   2.808   8.249  1.2593  0.4239 -1.1279
 4836TIP3    H236144   0.291   2.744   8.359 -0.4988  0.3860  0.2250
 4837TIP3   OH236145   4.034   3.223   0.125  0.3898  0.1746 -0.2934
 4837TIP3    H136146   4.077   3.276   0.192  0.7305 -0.3507 -0.0834
 4837TIP3    H236147   4.067   3.257   0.042  0.6918  0.2264 -0.1553
 4838TIP3   OH236148   6.344   1.483   2.255 -0.1272 -0.4389 -0.4155
 4838TIP3    H136149   6.429   1.527   2.252 -0.1720 -0.1623  1.4072
 4838TIP3    H236150   6.357   1.407   2.311 -1.7156  1.2856  2.5638
 4839TIP3   OH236151   3.971   0.864   1.714 -0.1077 -0.1385  0.2194
 4839TIP3    H136152   3.900   0.911   1.670 -0.4465  0.5407  1.4350
 4839TIP3    H236153   4.036   0.931   1.734  1.0179 -0.7951 -1.0862
 4840TIP3   OH236154   0.664   2.463   9.155 -0.2086  0.1774 -0.1223
 4840TIP3    H136155   0.732   2.456   9.089 -0.1973  0.4553 -0.1415
 4840TIP3    H236156   0.604   2.390   9.136  0.6586 -0.7442  0.5749
 4841TIP3   OH236157   2.616   3.704   1.251 -0.1364 -0.0731  0.5097
 4841TIP3    H136158   2.638   3.789   1.289  0.1097 -0.1620  0.5704
 4841TIP3    H236159   2.531   3.717   1.210  1.3117  1.1532 -2.4258
 4842TIP3   OH236160   4.041   6.375   2.330  0.1001  0.1846  0.5704
 4842TIP3    H136161   3.949   6.385   2.306  0.4786  2.8693 -0.0212
 4842TIP3    H236162   4.038   6.350   2.422 -1.2085 -2.1847 -0.0294
 4843TIP3   OH236163   3.232   0.066   7.977 -0.0642 -0.3627 -0.9067
 4843TIP3    H136164   3.183   0.110   7.907  0.5613 -0.2479 -1.2727
 4843TIP3    H236165   3.241  -0.024   7.948  0.2633 -0.2970 -1.0097
 4844TIP3   OH236166   6.084   3.167   3.347 -0.0357  0.1521  0.1758
 4844TIP3    H136167   6.021   3.129   3.285  0.7034 -0.2286 -0.3641
 4844TIP3    H236168   6.169   3.137   3.315  0.3652  0.0122  1.3397
 4845TIP3   OH236169   2.770   0.149   1.094 -0.6435 -0.9073  0.0495
 4845TIP3    H136170   2.850   0.135   1.044  0.3502  0.3707  1.1605
 4845TIP3    H236171   2.796   0.133   1.185 -1.7367 -0.7822  0.3981
 4846TIP3   OH236172   4.329   0.823   0.732  0.0856 -0.1922 -0.1328
 4846TIP3    H136173   4.403   0.794   0.785 -1.0106  1.0829  2.2370
 4846TIP3    H236174   4.301   0.744   0.685  2.5993 -0.7987 -0.7405
 4847TIP3   OH236175   4.212   1.486   9.062 -0.0905  0.1456  0.1646
 4847TIP3    H136176   4.198   1.502   9.156 -0.0055  0.9937  0.0392
 4847TIP3    H236177   4.306   1.468   9.055 -0.2206 -0.6567  0.3329
 4848TIP3   OH236178   5.561   4.341   0.475  0.5115  0.0530 -0.1863
 4848TIP3    H136179   5.603   4.427   0.478 -0.3963  0.4772  1.2772
 4848TIP3    H236180   5.632   4.278   0.488  1.0102  0.6465 -0.0355
 4849TIP3   OH236181   2.044   0.879   9.479  0.2389 -0.0152  0.0152
 4849TIP3    H136182   2.044   0.899   9.385  2.1704  0.7892  0.1402
 4849TIP3    H236183   1.953   0.893   9.506 -0.5084 -0.9043 -1.8361
 4850TIP3   OH236184   5.847   0.241   0.650 -0.6064  0.7148  0.6241
 4850TIP3    H136185   5.755   0.221   0.638 -0.6802  0.1654  1.9546
 4850TIP3    H236186   5.849   0.306   0.720  0.1087 -1.1499  2.4479
 4851TIP3   OH236187   6.324   1.911   0.069 -0.6219 -0.0814  0.2747
 4851TIP3    H136188   6.259   1.938   0.134 -0.3474 -0.4783  0.7266
 4851TIP3    H236189   6.329   1.816   0.077 -0.0569 -0.0657  0.1849
 4852TIP3   OH236190   1.744   3.081   2.981  0.2754  0.3189 -0.4595
 4852TIP3    H136191   1.740   3.145   2.909  0.6064 -0.0778 -0.8386
 4852TIP3    H236192   1.658   3.085   3.023  0.8269  2.2443  0.5984
 4853TIP3   OH236193   0.868   2.526   0.827  0.0124  0.2049 -0.2702
 4853TIP3    H136194   0.895   2.542   0.737  0.1776 -2.5799 -0.7930
 4853TIP3    H236195   0.777   2.497   0.820  0.4509 -1.3889  0.2640
 4854TIP3   OH236196   3.616   0.902   0.147  0.2089  0.5690  0.2935
 4854TIP3    H136197   3.565   0.910   0.066 -1.3044 -0.7807  1.0362
 4854TIP3    H236198   3.706   0.890   0.118 -0.3308 -0.1269 -1.2069
 4855TIP3   OH236199   3.612   4.758   8.886  0.7376 -0.3639  0.4826
 4855TIP3    H136200   3.619   4.668   8.855  4.6975  0.4615 -1.6961
 4855TIP3    H236201   3.557   4.802   8.821 -0.6326 -0.9790  1.1827
 4856TIP3   OH236202   5.262   1.651   3.377 -0.5074  0.5566 -0.3366
 4856TIP3    H136203   5.336   1.638   3.318  0.5428  1.1700  0.7907
 4856TIP3    H236204   5.232   1.563   3.399 -1.5194  0.3206 -2.4682
 4857TIP3   OH236205   2.345   2.227   3.161  0.7109 -0.0457 -0.6055
 4857TIP3    H136206   2.426   2.249   3.208 -0.4467  1.5374  0.7548
 4857TIP3    H236207   2.302   2.164   3.219 -0.8886  2.1738  0.7519
 4858TIP3   OH236208   4.988   4.539   1.696  0.1431  0.3492  0.3559
 4858TIP3    H136209   4.978   4.475   1.767  1.9803 -0.8937 -0.4270
 4858TIP3    H236210   5.003   4.622   1.741 -0.1197 -0.1548  1.4223
 4859TIP3   OH236211   2.752   3.324   0.179 -0.3078 -0.4388  0.1196
 4859TIP3    H136212   2.704   3.248   0.149 -1.5991  0.7789 -1.0622
 4859TIP3    H236213   2.842   3.293   0.191 -1.0636 -2.4287  1.0165
 4860TIP3   OH236214   4.700   4.027   2.584 -0.3327 -0.6028  0.0345
 4860TIP3    H136215   4.716   3.939   2.550  0.8604 -0.9401  1.3479
 4860TIP3    H236216   4.702   4.016   2.679 -0.4847  0.8014  0.2160
 4861TIP3   OH236217   1.996   1.982   9.000  0.0302  0.1258 -0.4800
 4861TIP3    H136218   1.973   1.992   8.907  0.5421  1.6074 -0.4763
 4861TIP3    H236219   1.947   1.905   9.028  0.6382 -0.9736 -2.2299
 4862TIP3   OH236220   1.024   4.274   9.762  0.7753  0.5386  0.2507
 4862TIP3    H136221   1.094   4.209   9.757  0.2353  0.0146 -0.9273
 4862TIP3    H236222   0.982   4.271   9.676 -0.5466  1.0212  0.8486
 4863TIP3   OH236223   0.906   0.116   8.672 -0.3376 -0.0495  0.2355
 4863TIP3    H136224   0.975   0.051   8.660 -0.4797 -0.2488  0.4859
 4863TIP3    H236225   0.835   0.068   8.716  0.2830  0.7268  2.1664
 4864TIP3   OH236226   0.094   1.745   1.965  0.0400 -0.0224  0.4893
 4864TIP3    H136227   0.017   1.802   1.965  1.1395  1.5236  0.0152
 4864TIP3    H236228   0.131   1.756   2.053  0.8263  0.8159  0.0609
 4865TIP3   OH236229   2.166   6.147   9.894 -0.3673 -0.5190  0.2016
 4865TIP3    H136230   2.241   6.146   9.834  0.0833  0.3378  0.7251
 4865TIP3    H236231   2.187   6.081   9.960  0.0502 -0.1139  0.4811
 4866TIP3   OH236232   4.210   2.843   2.529 -0.5686  0.0267 -0.4132
 4866TIP3    H136233   4.301   2.845   2.498 -0.8229  2.3370 -1.2199
 4866TIP3    H236234   4.214   2.800   2.614  1.4177  0.7456 -0.1007
 4867TIP3   OH236235   1.465   3.284   1.583  0.3346  0.1991 -0.7708
 4867TIP3    H136236   1.534   3.327   1.634 -0.4323  0.8257 -0.2487
 4867TIP3    H236237   1.513   3.223   1.526  1.1837 -1.4562  1.5465
 4868TIP3   OH236238   2.437   4.596   2.955  0.2737  0.0618 -0.4158
 4868TIP3    H136239   2.442   4.601   2.860 -0.4479  0.2012 -0.4548
 4868TIP3    H236240   2.452   4.685   2.985  0.3348  0.0483 -0.4053
 4869TIP3   OH236241   6.239   0.935   2.414 -0.0078 -0.3043  0.3092
 4869TIP3    H136242   6.257   0.856   2.465 -0.7481 -0.1245  0.8787
 4869TIP3    H236243   6.157   0.968   2.451 -0.1088  0.3034 -0.4416
 4870TIP3   OH236244   1.787   2.485   2.587 -0.2068 -0.4946  0.3690
 4870TIP3    H136245   1.860   2.432   2.618  2.1127  0.6593 -2.6273
 4870TIP3    H236246   1.775   2.551   2.655 -0.8986 -2.6700  2.5358
 4871TIP3   OH236247   1.629   2.723   3.293  0.2266 -0.3062  0.2672
 4871TIP3    H136248   1.575   2.680   3.359 -0.3126  1.9596  1.4041
 4871TIP3    H236249   1.594   2.692   3.209  0.1549 -2.3271  0.9952
 4872TIP3   OH236250   1.375   1.771   7.831  0.1639  0.4397 -0.6963
 4872TIP3    H136251   1.469   1.785   7.839  0.2524 -0.5050  0.1243
 4872TIP3    H236252   1.341   1.784   7.920 -0.1677 -1.2953 -0.5386
 4873TIP3   OH236253   4.858   1.347   9.961 -0.1022 -0.0007 -0.0753
 4873TIP3    H136254   4.780   1.401   9.972 -0.0986  0.0863 -0.4688
 4873TIP3    H236255   4.886   1.327  10.050 -0.4161  0.1955  0.0694
 4874TIP3   OH236256   4.196   1.749   0.591  0.2911 -0.3554 -0.0839
 4874TIP3    H136257   4.272   1.758   0.534 -0.6791 -0.3995 -1.4164
 4874TIP3    H236258   4.148   1.674   0.556 -0.4945 -0.1900  0.6001
 4875TIP3   OH236259   4.785   4.413   9.046  0.0091  0.0981 -0.2219
 4875TIP3    H136260   4.722   4.384   9.112 -0.8115  1.7516 -0.2399
 4875TIP3    H236261   4.830   4.487   9.087 -1.4883  2.0769 -1.9590
 4876TIP3   OH236262   2.021   1.150   9.676  0.4150 -0.1474 -0.1636
 4876TIP3    H136263   1.988   1.210   9.611  1.2689  0.0432 -0.4396
 4876TIP3    H236264   2.115   1.169   9.682  0.5130 -0.7409  0.4934
 4877TIP3   OH236265   5.169   3.732   9.555  0.4557 -0.2480  0.7984
 4877TIP3    H136266   5.227   3.796   9.595  1.0688 -0.8295  0.8569
 4877TIP3    H236267   5.131   3.777   9.480  0.2412  0.4496  1.3176
 4878TIP3   OH236268   5.849   2.379   9.898  0.1263 -0.2931  0.4950
 4878TIP3    H136269   5.803   2.296   9.909  0.5071 -0.3996  1.3662
 4878TIP3    H236270   5.806   2.421   9.824 -0.5209 -0.9612  0.4855
 4879TIP3   OH236271   5.997   0.709   8.000 -0.0957  0.1597  0.3192
 4879TIP3    H136272   6.066   0.734   7.939 -0.8966  1.3620 -0.1072
 4879TIP3    H236273   5.925   0.680   7.945 -0.1950 -0.4431  0.7517
 4880TIP3   OH236274   6.042   0.991   1.390  0.0232 -0.2903  0.2684
 4880TIP3    H136275   5.992   1.053   1.443 -0.1840 -0.7425  0.6073
 4880TIP3    H236276   6.130   1.030   1.384  0.0201 -0.1803  0.8529
 4881TIP3   OH236277   2.288   4.515   1.124  0.3044  0.4979 -0.0205
 4881TIP3    H136278   2.272   4.584   1.188  0.2351 -0.7751  1.3813
 4881TIP3    H236279   2.383   4.510   1.117  0.3596 -0.2648  1.0421
 4882TIP3   OH236280   1.811   2.283   9.830 -0.5281 -0.5665  0.5976
 4882TIP3    H136281   1.891   2.292   9.778 -0.1054 -1.7915  0.9787
 4882TIP3    H236282   1.815   2.355   9.893  0.2007 -0.5049  0.4941
 4883TIP3   OH236283   3.443   5.216   9.514 -0.2582 -0.1233 -0.4205
 4883TIP3    H136284   3.393   5.222   9.433  2.6922  1.9096 -2.2942
 4883TIP3    H236285   3.488   5.132   9.509 -0.3084 -0.1312 -0.7148
 4884TIP3   OH236286   4.261   1.799   9.002 -0.2131 -0.1687  0.3967
 4884TIP3    H136287   4.203   1.730   8.969  1.0478 -2.2208  2.2054
 4884TIP3    H236288   4.218   1.831   9.080 -0.1317  0.1286  0.3202
 4885TIP3   OH236289   2.118   4.246   0.748  0.3559 -0.1053 -0.4714
 4885TIP3    H136290   2.197   4.262   0.696  2.1917  0.7754  2.2825
 4885TIP3    H236291   2.110   4.325   0.803  0.7224 -2.2815  2.9922
 4886TIP3   OH236292   0.621   1.080   2.177  1.2176  0.0625  0.4683
 4886TIP3    H136293   0.581   1.018   2.239  0.4592  2.5017  2.5869
 4886TIP3    H236294   0.647   1.154   2.231  1.1618  2.0568 -2.0656
 4887TIP3   OH236295   5.394   2.475   2.757 -0.4076 -0.8470  0.1049
 4887TIP3    H136296   5.421   2.474   2.849 -2.5953 -1.1193  0.8115
 4887TIP3    H236297   5.399   2.567   2.732 -0.0603 -0.7311  0.5793
 4888TIP3   OH236298   1.608   3.156   0.073  0.2764 -0.0275  0.1543
 4888TIP3    H136299   1.521   3.162   0.034 -0.6311  2.3013  2.2705
 4888TIP3    H236300   1.602   3.083   0.135 -0.4409  0.5187  0.7576
 4889TIP3   OH236301   1.108   2.793   1.453  0.2131  0.3619  0.1057
 4889TIP3    H136302   1.014   2.794   1.434  0.1851 -3.0216 -0.6684
 4889TIP3    H236303   1.113   2.763   1.544  0.5527  0.8196  0.2393
 4890TIP3   OH236304   1.062   1.045   0.157  0.2182  0.6025 -0.2342
 4890TIP3    H136305   1.154   1.020   0.152  0.1904  0.0826  1.2449
 4890TIP3    H236306   1.028   1.032   0.069  1.0649 -1.2355 -0.3265
 4891TIP3   OH236307   1.374   3.479   1.004 -0.1134  0.1673  0.1169
 4891TIP3    H136308   1.358   3.555   0.948 -1.9423 -0.9849 -1.0269
 4891TIP3    H236309   1.306   3.484   1.071 -0.7142 -0.8340 -0.4007
 4892TIP3   OH236310   0.228   0.573   0.710 -0.3265 -0.0956  0.0603
 4892TIP3    H136311   0.286   0.536   0.643 -0.0395 -0.2919  0.4104
 4892TIP3    H236312   0.163   0.623   0.661 -0.0422 -0.1296 -0.3572
 4893TIP3   OH236313   3.342   2.247   8.208 -0.3823  0.0725  0.5079
 4893TIP3    H136314   3.374   2.325   8.253 -1.4809  1.0878 -0.3893
 4893TIP3    H236315   3.419   2.193   8.195  1.1370  2.5361 -1.8444
 4894TIP3   OH236316   4.512   5.924   2.349  0.7108  0.8116  0.2680
 4894TIP3    H136317   4.517   5.829   2.335 -1.8965  0.7715 -0.8964
 4894TIP3    H236318   4.460   5.956   2.276  2.7228  3.4185 -0.1726
 4895TIP3   OH236319   4.316   5.629   1.356  0.7409 -0.6055  0.4262
 4895TIP3    H136320   4.331   5.547   1.403  1.1796 -1.3681 -1.0061
 4895TIP3    H236321   4.404   5.661   1.335  0.5525 -0.1273  0.3354
 4896TIP3   OH236322   0.496   1.938   0.207  0.4307 -0.7295 -0.0293
 4896TIP3    H136323   0.408   1.954   0.241  0.0972 -2.7595  0.2070
 4896TIP3    H236324   0.540   2.023   0.211 -1.3588  0.2187  0.2965
 4897TIP3   OH236325   3.058   0.585   7.585  0.1422 -0.2007  0.4120
 4897TIP3    H136326   3.126   0.525   7.616  0.7185  0.5046  0.5268
 4897TIP3    H236327   2.978   0.532   7.586  0.8406 -1.3424 -0.6559
 4898TIP3   OH236328   5.306   1.591   2.372 -0.3590  0.3979 -0.7356
 4898TIP3    H136329   5.265   1.506   2.354  1.1287  0.0426 -2.7552
 4898TIP3    H236330   5.299   1.601   2.467 -3.0061 -0.6781 -0.7377
 4899TIP3   OH236331   5.078   4.265   0.810 -0.1576  0.4271 -0.5297
 4899TIP3    H136332   5.110   4.346   0.850  0.8731 -0.3204  0.2137
 4899TIP3    H236333   5.086   4.200   0.880 -1.8788 -0.1393 -0.8028
 4900TIP3   OH236334   1.562   0.818   9.409  0.4830  0.1432  0.0388
 4900TIP3    H136335   1.560   0.865   9.493 -2.5138  0.8230 -0.2927
 4900TIP3    H236336   1.552   0.887   9.343  1.3169 -0.5209 -0.8087
 4901TIP3   OH236337   4.363   6.103   1.533  0.0970  0.3351 -0.2008
 4901TIP3    H136338   4.306   6.028   1.548 -0.7760  0.7957 -1.0788
 4901TIP3    H236339   4.364   6.114   1.438  1.4602  0.4986 -0.1909
 4902TIP3   OH236340   3.293   4.568   0.044  0.6105  0.1226  0.0811
 4902TIP3    H136341   3.282   4.485  -0.001  1.3124 -0.3582  0.7752
 4902TIP3    H236342   3.269   4.634  -0.021  0.6798 -0.5882 -0.6825
 4903TIP3   OH236343   3.824   3.527   1.406 -0.2308  0.2402  0.3035
 4903TIP3    H136344   3.850   3.475   1.329  0.9049  1.3293 -0.0856
 4903TIP3    H236345   3.754   3.584   1.373 -0.2146  0.2336  0.2572
 4904TIP3   OH236346   6.078   4.136   1.277  0.0826 -0.6863  0.2466
 4904TIP3    H136347   6.148   4.086   1.318 -0.9601 -0.6837  2.1486
 4904TIP3    H236348   6.088   4.119   1.183  3.3329  0.2994  0.2996
 4905TIP3   OH236349   0.007   5.242   0.024  0.3300 -0.1166 -0.1227
 4905TIP3    H136350   0.002   5.331  -0.012  0.2773  0.2557  0.7802
 4905TIP3    H236351  -0.080   5.226   0.061 -0.2863 -1.2923 -1.9532
 4906TIP3   OH236352   3.347   5.346   2.497 -0.4380 -0.4325  0.2316
 4906TIP3    H136353   3.406   5.398   2.443 -0.3778 -0.9719 -0.2274
 4906TIP3    H236354   3.278   5.407   2.522 -1.0809 -0.4536 -1.3967
 4907TIP3   OH236355   0.766   4.566   8.171  0.2214  0.3802 -0.0538
 4907TIP3    H136356   0.837   4.621   8.137  1.0934  0.2560  1.4843
 4907TIP3    H236357   0.748   4.504   8.100  0.1394  1.7791 -1.2999
 4908TIP3   OH236358   2.557   5.988   0.643  0.4097  0.3762 -0.6144
 4908TIP3    H136359   2.543   6.054   0.711 -1.7821 -1.0580  0.4524
 4908TIP3    H236360   2.613   5.923   0.684 -2.0998 -1.2302  0.4678
 4909TIP3   OH236361   3.847   2.758   0.643 -0.1435 -0.6009 -0.6341
 4909TIP3    H136362   3.811   2.670   0.655 -2.2461 -0.1359 -2.6990
 4909TIP3    H236363   3.797   2.813   0.703 -1.1754 -0.3770 -1.6399
 4910TIP3   OH236364   0.520   0.197   2.203  0.0616 -0.5385  0.0952
 4910TIP3    H136365   0.497   0.264   2.139  0.9959 -0.5921 -0.3039
 4910TIP3    H236366   0.610   0.217   2.229  0.9238 -2.4789 -1.1639
 4911TIP3   OH236367   1.048   2.693   0.926 -0.2955 -0.3943 -0.0044
 4911TIP3    H136368   0.957   2.680   0.902  0.3016  0.3278 -3.0121
 4911TIP3    H236369   1.087   2.605   0.920 -0.7332 -0.7097  1.3171
 4912TIP3   OH236370   4.550   3.561   2.761  0.2853 -0.5147 -0.0729
 4912TIP3    H136371   4.515   3.640   2.804 -0.4710 -0.3790 -0.9082
 4912TIP3    H236372   4.523   3.489   2.819 -0.2487 -0.2854 -0.0251
 4913TIP3   OH236373   5.184   6.209   1.915  0.1204  0.2789  0.4555
 4913TIP3    H136374   5.134   6.289   1.933  0.1834  0.1312  1.3430
 4913TIP3    H236375   5.177   6.158   1.996 -0.3743 -0.8674 -0.2909
 4914TIP3   OH236376   3.344   5.366   1.881  0.5366 -0.1154 -0.2152
 4914TIP3    H136377   3.325   5.279   1.846 -1.1868 -0.3116  1.0562
 4914TIP3    H236378   3.390   5.411   1.810  1.5740 -2.0730 -0.8561
 4915TIP3   OH236379   5.567   0.182   9.775 -0.4365 -0.4572  0.0859
 4915TIP3    H136380   5.586   0.090   9.795  2.5976  0.1623  0.5939
 4915TIP3    H236381   5.528   0.217   9.855 -0.4351 -1.0090  0.3278
 4916TIP3   OH236382   6.166   0.396   8.428 -0.0530  0.0385  0.5662
 4916TIP3    H136383   6.155   0.469   8.367  0.0724  0.8906  1.5485
 4916TIP3    H236384   6.077   0.366   8.446 -0.1736  0.6203  0.9579
 4917TIP3   OH236385   0.884   1.252   8.641  0.4710 -0.6221 -0.2332
 4917TIP3    H136386   0.938   1.323   8.678  1.1194 -0.1047 -2.0424
 4917TIP3    H236387   0.798   1.292   8.628  0.9373 -0.0211 -1.5975
 4918TIP3   OH236388   0.745   3.380   1.582  0.4587  0.4262  0.1322
 4918TIP3    H136389   0.837   3.404   1.594  0.9642 -1.2790 -0.1358
 4918TIP3    H236390   0.747   3.307   1.520 -1.0481  0.1041  0.4308
 4919TIP3   OH236391   2.191   5.100   9.881 -0.3260 -0.1314 -0.8186
 4919TIP3    H136392   2.223   5.061   9.800 -1.8800  0.5217 -1.7807
 4919TIP3    H236393   2.139   5.031   9.922  0.2912 -0.3931 -0.4570
 4920TIP3   OH236394   1.558   4.301   8.241 -0.0009 -0.5534 -0.7172
 4920TIP3    H136395   1.544   4.276   8.150  1.3574 -1.4502 -0.7012
 4920TIP3    H236396   1.590   4.222   8.284 -0.5457 -0.1242  0.5305
 4921TIP3   OH236397   1.336   3.071   1.234  0.3375  0.6994 -0.9747
 4921TIP3    H136398   1.402   3.139   1.246  0.0008  0.9638 -0.6019
 4921TIP3    H236399   1.377   3.008   1.174  1.0048  0.7489 -0.5863
 4922TIP3   OH236400   6.266   6.341   1.939 -0.2824  0.2155 -0.6357
 4922TIP3    H136401   6.240   6.315   2.027 -0.2888 -2.4843 -1.3514
 4922TIP3    H236402   6.192   6.393   1.906 -0.9771 -0.1149  0.3731
 4923TIP3   OH236403   3.406   4.856   0.837 -0.5943 -0.3060 -0.1254
 4923TIP3    H136404   3.496   4.864   0.805 -1.0507  0.0094 -1.3737
 4923TIP3    H236405   3.407   4.778   0.892  0.8372  0.6367  1.2872
 4924TIP3   OH236406   0.567   3.818   2.326 -0.3485 -0.4081 -0.0602
 4924TIP3    H136407   0.588   3.750   2.391 -0.8350 -2.0551 -1.5244
 4924TIP3    H236408   0.497   3.869   2.365  0.8364  0.0407  1.5766
 4925TIP3   OH236409   4.845   4.416   2.545  0.1807 -0.2497  0.1955
 4925TIP3    H136410   4.759   4.405   2.585  0.4375  0.7589  1.0554
 4925TIP3    H236411   4.833   4.385   2.455 -0.4790 -2.2932  0.9308
 4926TIP3   OH236412   1.457   2.095   9.617 -0.0637 -0.5032 -0.0911
 4926TIP3    H136413   1.450   2.138   9.532 -3.0500 -0.7314 -0.0479
 4926TIP3    H236414   1.450   2.167   9.680 -1.1129 -0.6339 -0.0446
 4927TIP3   OH236415   3.301   0.384   1.113  0.5642 -0.6347 -0.6104
 4927TIP3    H136416   3.279   0.299   1.077 -0.7508 -0.3799 -0.4875
 4927TIP3    H236417   3.249   0.390   1.194  0.4626  0.3646 -0.7322
 4928TIP3   OH236418   5.557   0.833   0.052 -0.4165  0.1743  0.2833
 4928TIP3    H136419   5.513   0.917   0.064  0.2087  0.5399  0.0984
 4928TIP3    H236420   5.602   0.842  -0.032  0.0877 -0.1484  0.5130
 4929TIP3   OH236421   6.294   1.369   8.660  0.0162  0.2927 -0.4774
 4929TIP3    H136422   6.208   1.369   8.617  0.3760  0.8827 -1.2372
 4929TIP3    H236423   6.326   1.459   8.648  0.2225  0.4176  0.8679
 4930TIP3   OH236424   3.189   4.391   9.568 -0.5015 -0.1866 -0.2789
 4930TIP3    H136425   3.245   4.454   9.522 -0.2435  0.1302  0.4474
 4930TIP3    H236426   3.104   4.399   9.525  0.0253 -0.7523 -1.4773
 4931TIP3   OH236427   5.197   5.238   1.355  0.2999  0.0764  0.0493
 4931TIP3    H136428   5.188   5.175   1.284  1.3265  0.5785 -0.5543
 4931TIP3    H236429   5.292   5.247   1.367  0.1476  0.4227  1.1024
 4932TIP3   OH236430   4.526   2.400   0.214  0.3784 -0.5686 -0.0058
 4932TIP3    H136431   4.545   2.328   0.275 -1.6749 -1.4245 -0.3071
 4932TIP3    H236432   4.563   2.477   0.257  0.3484 -1.3990  1.5966
 4933TIP3   OH236433   1.673   3.380   2.066  0.1041  0.6280  0.2657
 4933TIP3    H136434   1.730   3.304   2.063  0.7693  1.1312 -1.8200
 4933TIP3    H236435   1.727   3.452   2.033 -1.2377  1.4671 -0.2060
 4934TIP3   OH236436   3.781   3.996   1.927  0.3592 -0.2850 -0.0010
 4934TIP3    H136437   3.696   4.013   1.968  1.4270  1.7417  1.5634
 4934TIP3    H236438   3.845   4.013   1.996  2.0934 -0.8188 -1.3974
 4935TIP3   OH236439   0.193   2.995   1.413  0.6716 -0.3976  0.0987
 4935TIP3    H136440   0.266   2.960   1.465  1.3708 -1.7367 -1.6860
 4935TIP3    H236441   0.118   2.993   1.473  1.6475 -0.9701  1.3466
 4936TIP3   OH236442   0.572   6.322   8.379  0.2032  0.0420  0.2039
 4936TIP3    H136443   0.657   6.282   8.360 -0.0036  0.6321 -2.2085
 4936TIP3    H236444   0.579   6.411   8.346 -0.9157  0.5647  1.2841
 4937TIP3   OH236445   2.549   5.816   1.240  0.2842  0.3724 -0.0784
 4937TIP3    H136446   2.469   5.778   1.278  2.4327 -0.9855  3.6070
 4937TIP3    H236447   2.568   5.891   1.295  3.1639 -1.2320  1.3185
 4938TIP3   OH236448   3.510   4.854   8.645 -0.2203  0.1405 -0.7445
 4938TIP3    H136449   3.504   4.949   8.644  0.7758  0.2230 -0.6842
 4938TIP3    H236450   3.572   4.834   8.574 -0.4058 -0.4617 -0.7421
 4939TIP3   OH236451   2.496   4.553   9.566  0.5318 -0.6270 -0.0130
 4939TIP3    H136452   2.561   4.522   9.629 -0.6609  1.1134  2.1940
 4939TIP3    H236453   2.412   4.524   9.600 -0.1838  0.6879 -0.5723
 4940TIP3   OH236454   3.181   4.483   0.571  0.2139 -0.2719 -0.2007
 4940TIP3    H136455   3.194   4.431   0.492  1.5762  1.5023 -1.2346
 4940TIP3    H236456   3.214   4.570   0.547  0.9665  0.2408  2.4236
 4941TIP3   OH236457   1.076   2.919   1.901  0.1764  0.7357  0.0558
 4941TIP3    H136458   1.082   3.013   1.883  0.8227  0.8274  0.7250
 4941TIP3    H236459   1.159   2.896   1.942 -0.8837  0.3753  2.1667
 4942TIP3   OH236460   2.542   3.099   2.633 -1.0243 -0.5205 -0.2782
 4942TIP3    H136461   2.479   3.136   2.695  0.5110 -0.5440  1.3941
 4942TIP3    H236462   2.627   3.129   2.666  0.0405 -2.8598 -0.7524
 4943TIP3   OH236463   0.251   3.055   2.208  0.3315 -0.1282  0.2591
 4943TIP3    H136464   0.210   2.971   2.189  0.3860 -0.0689 -0.1304
 4943TIP3    H236465   0.181   3.119   2.195  0.7428  0.0577 -1.2611
 4944TIP3   OH236466   1.654   4.042   0.654 -0.1557 -0.0187  0.3091
 4944TIP3    H136467   1.723   4.068   0.594 -0.0867 -1.0083 -0.0593
 4944TIP3    H236468   1.607   3.972   0.608 -1.2205  0.4281  0.6712
 4945TIP3   OH236469   2.623   2.194   9.468 -0.4452 -0.4892 -0.4961
 4945TIP3    H136470   2.580   2.218   9.386 -0.3928  1.6535  0.0654
 4945TIP3    H236471   2.716   2.210   9.452 -0.1402 -2.1619 -0.6790
 4946TIP3   OH236472   3.569   2.863   2.607 -0.2361 -0.1196  0.4291
 4946TIP3    H136473   3.518   2.944   2.617 -0.2454  0.1603 -1.5086
 4946TIP3    H236474   3.505   2.793   2.619 -0.4587  0.1707  0.9735
 4947TIP3   OH236475   3.791   5.171   0.626 -0.1549  0.7039  0.4781
 4947TIP3    H136476   3.709   5.203   0.588 -0.8624  0.0455  1.4010
 4947TIP3    H236477   3.788   5.201   0.717  0.4046  0.2585  0.6496
 4948TIP3   OH236478   3.334   5.505   9.283 -0.1435 -0.7269 -0.6567
 4948TIP3    H136479   3.424   5.530   9.304  0.3325 -2.4966 -0.4204
 4948TIP3    H236480   3.311   5.558   9.207  1.1495 -0.3769 -0.8185
 4949TIP3   OH236481   5.985   3.550   0.463  0.3515  0.4726 -0.3185
 4949TIP3    H136482   5.906   3.578   0.417 -0.3452  1.9014  1.5803
 4949TIP3    H236483   6.050   3.618   0.443 -0.0536  1.2762  0.9934
 4950TIP3   OH236484   2.752   0.915   1.770 -0.2628  0.1230  0.0491
 4950TIP3    H136485   2.721   0.927   1.680 -1.2640 -0.6223  0.2748
 4950TIP3    H236486   2.843   0.944   1.768 -0.0479 -0.5563 -1.3766
 4951TIP3   OH236487   0.200   4.422   1.244 -0.2394  0.3022 -0.2554
 4951TIP3    H136488   0.142   4.457   1.176  0.0890 -0.8996 -1.1924
 4951TIP3    H236489   0.283   4.405   1.199  0.1297 -0.0960  0.5555
 4952TIP3   OH236490   5.774   4.493   2.334 -0.3366 -0.5652  0.7311
 4952TIP3    H136491   5.792   4.521   2.245 -0.0438  0.1961  1.0239
 4952TIP3    H236492   5.758   4.574   2.383  2.0230 -0.7408  1.9326
 4953TIP3   OH236493   2.629   4.727   3.192 -0.3124 -0.2308 -0.2167
 4953TIP3    H136494   2.690   4.677   3.138  2.1764  1.2995  1.0040
 4953TIP3    H236495   2.583   4.784   3.130  0.3191 -0.6017 -1.0376
 4954TIP3   OH236496   3.779   4.432   1.981  0.0386 -0.3310  0.5289
 4954TIP3    H136497   3.791   4.337   1.989  1.1123 -0.1664  1.0685
 4954TIP3    H236498   3.867   4.468   1.991 -0.0971  0.6283 -1.4027
 4955TIP3   OH236499   0.009   4.797   8.730  0.4108 -0.2813  0.2707
 4955TIP3    H136500   0.057   4.879   8.715  1.7259 -1.1832 -0.5655
 4955TIP3    H236501  -0.046   4.787   8.652  0.5155 -0.3957  0.2142
 4956TIP3   OH236502   6.394   4.338   0.345  0.2821  0.1830  0.0344
 4956TIP3    H136503   6.339   4.333   0.267  0.8936 -2.9743 -0.3379
 4956TIP3    H236504   6.482   4.353   0.311  0.2595  1.1152  0.3427
 4957TIP3   OH236505   2.235   1.577   8.423  0.5465 -0.0797  0.1839
 4957TIP3    H136506   2.144   1.548   8.422  0.7775 -0.9141  1.5432
 4957TIP3    H236507   2.261   1.574   8.515  1.5210  1.5729  0.0151
 4958TIP3   OH236508   5.456   5.057   2.730  0.4448  1.0596  0.1255
 4958TIP3    H136509   5.433   4.968   2.705  1.8231  0.4557  0.8958
 4958TIP3    H236510   5.394   5.112   2.682  0.1404 -0.2592 -1.0776
 4959TIP3   OH236511   4.316   4.424   1.767  0.2699 -0.5162  0.6356
 4959TIP3    H136512   4.344   4.337   1.738 -0.8899 -0.5730 -0.4547
 4959TIP3    H236513   4.376   4.448   1.837  0.9133 -1.9866  0.6088
 4960TIP3   OH236514   0.558   1.118   0.099  0.1934 -0.4542  0.7634
 4960TIP3    H136515   0.624   1.182   0.125  0.5011 -0.0855 -0.8246
 4960TIP3    H236516   0.475   1.154   0.131 -0.2996  2.9786 -3.4552
 4961TIP3   OH236517   2.050   4.777   0.506  0.0139  0.0660  0.6852
 4961TIP3    H136518   2.066   4.872   0.510 -1.0013  0.3312 -0.7987
 4961TIP3    H236519   2.127   4.742   0.461 -0.6524  0.5187 -0.8670
 4962TIP3   OH236520   1.326   2.437   1.213 -0.4857 -0.2309  0.1589
 4962TIP3    H136521   1.315   2.350   1.176 -0.8481  0.4068 -1.3382
 4962TIP3    H236522   1.246   2.484   1.188 -0.0494  0.6878  0.4334
 4963TIP3   OH236523   4.082   5.517   9.524  0.5548 -0.5661 -0.2743
 4963TIP3    H136524   4.094   5.483   9.435  0.0314  0.0615 -0.5916
 4963TIP3    H236525   3.995   5.557   9.523  1.2853  1.1294 -0.0468
 4964TIP3   OH236526   5.440   3.057   9.991 -0.0072  0.1496 -0.8836
 4964TIP3    H136527   5.508   3.050   9.925  0.7186 -0.0085 -0.1388
 4964TIP3    H236528   5.358   3.040   9.944  0.5999 -1.1320 -1.5163
 4965TIP3   OH236529   3.026   0.797   0.092  0.0040  0.1853 -0.0378
 4965TIP3    H136530   3.075   0.820   0.171 -0.5947 -0.3771  0.5098
 4965TIP3    H236531   3.039   0.702   0.083 -2.3349 -0.3157  1.0960
 4966TIP3   OH236532   0.621   3.569   0.543 -0.5532 -0.4701 -0.5255
 4966TIP3    H136533   0.548   3.621   0.509 -0.5862  0.3331  0.6969
 4966TIP3    H236534   0.579   3.496   0.589 -0.5669 -0.5157 -0.6115
 4967TIP3   OH236535   4.947   4.627   9.156  0.4379 -0.9456  0.4290
 4967TIP3    H136536   4.987   4.666   9.078  2.5757 -2.5310  0.6521
 4967TIP3    H236537   4.994   4.665   9.229  0.6147 -1.7923  0.7712
 4968TIP3   OH236538   5.415   6.032   2.121  0.6168  0.5963  0.0401
 4968TIP3    H136539   5.461   5.955   2.153 -0.2573 -1.6231 -3.4629
 4968TIP3    H236540   5.484   6.085   2.080  0.6686 -1.0755 -2.2353
 4969TIP3   OH236541   1.068   6.166   2.627 -0.2890 -0.2828  0.6432
 4969TIP3    H136542   1.162   6.175   2.613 -0.5326  0.8600 -0.4115
 4969TIP3    H236543   1.040   6.105   2.559 -0.5688  0.7279 -0.1628
 4970TIP3   OH236544   3.332   5.678   9.749  0.5472  0.3017  0.3195
 4970TIP3    H136545   3.404   5.712   9.802 -0.0283 -0.5578  1.7095
 4970TIP3    H236546   3.324   5.586   9.775 -0.6220  0.2063 -0.2915
 4971TIP3   OH236547   6.260   2.365   0.814 -0.3079  0.0095  0.4197
 4971TIP3    H136548   6.334   2.418   0.845 -1.4609  1.1340  1.3942
 4971TIP3    H236549   6.279   2.348   0.722  0.3550  1.7198  0.1995
 4972TIP3   OH236550   4.901   3.769   2.882  0.8795 -0.0358 -0.1209
 4972TIP3    H136551   4.845   3.841   2.854  0.1255 -0.5642 -0.0099
 4972TIP3    H236552   4.978   3.811   2.921  0.7057  0.6993 -0.5651
 4973TIP3   OH236553   1.195   1.424   2.428 -0.0261 -0.2770  0.0634
 4973TIP3    H136554   1.246   1.447   2.505 -0.6901  2.6729 -0.2847
 4973TIP3    H236555   1.104   1.425   2.458 -0.1828 -0.9698 -0.3592
 4974TIP3   OH236556   1.871   3.891   3.670  0.0376 -0.4372  0.4743
 4974TIP3    H136557   1.826   3.855   3.747  0.1255 -2.7910 -0.5230
 4974TIP3    H236558   1.953   3.844   3.666 -0.8775 -1.9709 -2.2733
 4975TIP3   OH236559   3.283   3.295   9.487 -0.3900 -0.0611 -0.0457
 4975TIP3    H136560   3.308   3.266   9.399 -2.0494 -2.2707  0.1116
 4975TIP3    H236561   3.327   3.379   9.498  0.9444 -0.3430 -2.4579
 4976TIP3   OH236562   2.001   3.905   1.845  0.6288 -0.8839  0.1689
 4976TIP3    H136563   1.957   3.930   1.763 -0.5818 -2.7236  0.2133
 4976TIP3    H236564   2.072   3.970   1.854 -2.1351  2.4208  0.2213
 4977TIP3   OH236565   6.186   0.396   2.370 -0.1719 -0.5764 -0.3830
 4977TIP3    H136566   6.220   0.464   2.312 -0.3783 -0.0429  0.1126
 4977TIP3    H236567   6.225   0.416   2.455  0.4834 -1.6158 -0.4277
 4978TIP3   OH236568   0.240   4.717   0.366 -0.1509  0.5246 -0.6542
 4978TIP3    H136569   0.184   4.737   0.291  0.8533  0.7132 -1.3750
 4978TIP3    H236570   0.274   4.803   0.393  0.0681  0.3750 -0.4568
 4979TIP3   OH236571   3.173   4.550   2.565  0.0186 -0.6632 -0.0419
 4979TIP3    H136572   3.202   4.605   2.638 -0.9998  2.4321 -1.7755
 4979TIP3    H236573   3.234   4.569   2.494 -0.8924 -1.0805 -0.9690
 4980TIP3   OH236574   1.758   0.448   9.641  0.3784  0.0914  0.0435
 4980TIP3    H136575   1.742   0.426   9.733 -0.6942 -2.5026 -0.6564
 4980TIP3    H236576   1.830   0.390   9.615  0.5008  0.6189 -0.8318
 4981TIP3   OH236577   3.938   2.362   8.834 -0.0123 -0.1356  0.3127
 4981TIP3    H136578   3.871   2.402   8.778  0.6478  1.8711  0.8864
 4981TIP3    H236579   4.001   2.324   8.773 -3.2297 -5.3893 -0.4109
 4982TIP3   OH236580   5.678   2.545   9.724  0.0903 -0.5835  0.0610
 4982TIP3    H136581   5.678   2.494   9.643 -1.8804  1.4417 -1.3285
 4982TIP3    H236582   5.644   2.631   9.698  0.9842  0.6713  2.7426
 4983TIP3   OH236583   0.529   4.331   1.170  0.0843 -0.0456 -0.2541
 4983TIP3    H136584   0.479   4.306   1.092  0.6764  1.1867 -1.0672
 4983TIP3    H236585   0.603   4.271   1.172  0.6644  0.6151 -1.2929
 4984TIP3   OH236586   3.247   3.409   2.603  0.0793  0.2778  0.4891
 4984TIP3    H136587   3.225   3.329   2.554 -2.8599  0.2336  1.7133
 4984TIP3    H236588   3.243   3.478   2.538  0.2398 -0.2724 -0.1206
 4985TIP3   OH236589   0.497   3.195   7.710  0.9484 -0.3916  0.0894
 4985TIP3    H136590   0.480   3.237   7.795  1.4067  1.9502 -0.8995
 4985TIP3    H236591   0.411   3.188   7.669  0.9624  0.5262 -0.1208
 4986TIP3   OH236592   5.617   5.814   8.836 -0.0194 -0.0182  0.0288
 4986TIP3    H136593   5.560   5.809   8.760  0.5595 -0.2458 -0.3955
 4986TIP3    H236594   5.558   5.835   8.909 -0.4839  0.8855 -0.5915
 4987TIP3   OH236595   6.056   4.524   1.431 -0.6313  0.1696 -0.0705
 4987TIP3    H136596   6.102   4.482   1.359  0.6612  1.7581 -0.2143
 4987TIP3    H236597   6.018   4.603   1.394 -1.8235 -0.0885  0.5214
 4988TIP3   OH236598   4.646   1.707   8.149 -0.2356 -0.2755  0.1615
 4988TIP3    H136599   4.606   1.632   8.105 -1.5280  0.4434  0.0581
 4988TIP3    H236600   4.588   1.781   8.129  0.4669  0.5578  1.0747
 4989TIP3   OH236601   5.445   1.305   9.563  0.4829 -0.6281 -0.0190
 4989TIP3    H136602   5.449   1.302   9.658  0.3217  0.0175  0.0124
 4989TIP3    H236603   5.386   1.233   9.539  0.4634 -0.7435  0.3701
 4990TIP3   OH236604   1.693   4.946   2.053  0.1028 -0.0951 -0.0685
 4990TIP3    H136605   1.714   5.017   2.114  1.3294 -1.6354  1.4031
 4990TIP3    H236606   1.724   4.977   1.968 -0.5394  1.6117  0.2911
 4991TIP3   OH236607   0.357   2.242   3.347 -0.1064 -0.1529  0.1641
 4991TIP3    H136608   0.315   2.313   3.396  1.0095  0.9447 -0.4249
 4991TIP3    H236609   0.442   2.230   3.390 -0.0659 -0.7625 -0.0795
 4992TIP3   OH236610   3.534   2.366   1.411 -0.0947 -0.3038  0.2645
 4992TIP3    H136611   3.599   2.433   1.392 -0.9509  0.3995 -0.2472
 4992TIP3    H236612   3.585   2.294   1.448  0.9921  0.1699 -0.2454
 4993TIP3   OH236613   0.067   0.362   8.949  0.4001 -0.0350 -0.4340
 4993TIP3    H136614   0.027   0.434   8.997 -0.1556 -0.3233 -0.4508
 4993TIP3    H236615   0.067   0.289   9.011  0.1251 -0.2712 -0.7080
 4994TIP3   OH236616   2.298   1.671   8.177  0.2786 -0.1421 -0.4493
 4994TIP3    H136617   2.384   1.634   8.158  0.2361 -0.7045  0.3821
 4994TIP3    H236618   2.280   1.644   8.268  0.2538  1.9638  0.2227
 4995TIP3   OH236619   5.011   0.227   9.122 -0.0896  0.0721 -0.4075
 4995TIP3    H136620   5.098   0.263   9.139  0.5587 -0.9816 -1.3215
 4995TIP3    H236621   5.025   0.164   9.052 -1.6600  0.1206 -0.8020
 4996TIP3   OH236622   1.491   2.463   9.940  0.2385 -0.0956  0.1674
 4996TIP3    H136623   1.474   2.485  10.032  1.4415 -1.4671  0.7409
 4996TIP3    H236624   1.474   2.545   9.893 -0.2950  0.6621  1.6171
 4997TIP3   OH236625   6.137   4.301   8.050 -0.2343 -0.6280  0.4547
 4997TIP3    H136626   6.223   4.266   8.027 -1.0161 -3.1444  1.0916
 4997TIP3    H236627   6.121   4.369   7.984  2.0233 -0.3914  0.0593
 4998TIP3   OH236628   4.003   5.470   8.978 -0.6588 -0.3481  0.3359
 4998TIP3    H136629   4.029   5.378   8.989 -0.2118 -0.5484 -1.8924
 4998TIP3    H236630   3.970   5.475   8.888 -0.3068  1.7487  0.2785
 4999TIP3   OH236631   1.577   5.914   0.162 -0.1636 -0.2025  0.0335
 4999TIP3    H136632   1.631   5.933   0.085 -0.6314  3.4867  0.4435
 4999TIP3    H236633   1.636   5.924   0.236 -0.2911 -1.1846  0.2736
 5000TIP3   OH236634   3.418   4.023   0.238 -0.3136  0.3045 -0.1252
 5000TIP3    H136635   3.490   3.986   0.186 -1.4284  1.3330 -2.5615
 5000TIP3    H236636   3.369   3.946   0.268 -0.4142 -0.3639 -1.8489
 5001TIP3   OH236637   3.268   4.883   1.171  0.2432  0.5947 -0.1308
 5001TIP3    H136638   3.310   4.969   1.182 -0.5607  0.9428  0.2558
 5001TIP3    H236639   3.282   4.862   1.079  1.0985  0.7941 -0.0539
 5002TIP3   OH236640   1.764   0.157   1.281  0.3347 -0.0612 -0.2420
 5002TIP3    H136641   1.701   0.085   1.276 -1.8552  1.7581 -0.3430
 5002TIP3    H236642   1.750   0.207   1.201  1.3866  0.8264  0.1008
 5003TIP3   OH236643   3.933   2.490   2.889 -0.4883  0.0648 -0.7740
 5003TIP3    H136644   3.900   2.506   2.977 -0.9951 -0.4646 -0.8627
 5003TIP3    H236645   3.855   2.474   2.836 -0.2792  1.4165 -1.5505
 5004TIP3   OH236646   1.747   2.203   8.538 -0.4071 -0.1813 -0.3888
 5004TIP3    H136647   1.741   2.135   8.605  0.9341  0.9735  0.9999
 5004TIP3    H236648   1.736   2.157   8.455  0.6347 -2.1247  0.4834
 5005TIP3   OH236649   5.452   6.065   3.527  0.4999 -0.1352 -0.2618
 5005TIP3    H136650   5.515   5.994   3.515  1.5568  0.8489 -0.7941
 5005TIP3    H236651   5.478   6.130   3.462 -0.0563  0.9926  0.6154
 5006TIP3   OH236652   3.468   5.091   8.112  0.0598  0.3196 -0.0708
 5006TIP3    H136653   3.547   5.110   8.061 -0.2739  0.4134 -0.5600
 5006TIP3    H236654   3.406   5.055   8.048  0.1704 -1.0518  0.5615
 5007TIP3   OH236655   3.351   1.324   9.547  0.5376 -0.2245 -0.8394
 5007TIP3    H136656   3.310   1.239   9.528  1.8560 -0.5473 -2.4392
 5007TIP3    H236657   3.402   1.309   9.626  0.5303 -0.8449 -0.9507
 5008TIP3   OH236658   2.309   5.325   0.217 -0.3531 -0.5003  0.0264
 5008TIP3    H136659   2.353   5.257   0.167 -1.0502 -1.6050  0.8569
 5008TIP3    H236660   2.282   5.281   0.298  1.0351  1.2780  1.5492
 5009TIP3   OH236661   4.232   0.561   2.511  0.2457  0.2863 -0.0021
 5009TIP3    H136662   4.276   0.641   2.540  2.4140 -1.4592  1.8623
 5009TIP3    H236663   4.255   0.553   2.418  1.4669  0.9254  0.2281
 5010TIP3   OH236664   3.245   2.147   1.765  0.3315  0.1670  0.0491
 5010TIP3    H136665   3.203   2.106   1.841 -1.7948 -2.2326 -2.2583
 5010TIP3    H236666   3.334   2.111   1.765 -0.3325 -1.5357  0.1933
 5011TIP3   OH236667   2.029   2.832   1.547 -0.0273  1.0400 -0.6562
 5011TIP3    H136668   1.993   2.896   1.485 -1.9176  0.0535 -0.6534
 5011TIP3    H236669   1.960   2.765   1.555  0.8559  0.2889  1.2456
 5012TIP3   OH236670   4.313   3.255   3.600  0.2225 -0.0006 -0.3736
 5012TIP3    H136671   4.226   3.283   3.630  0.3892 -1.5820  1.8369
 5012TIP3    H236672   4.374   3.308   3.651  0.5271 -0.3677 -0.3478
 5013TIP3   OH236673   1.201   2.607   8.092  0.3355 -0.6868 -0.3960
 5013TIP3    H136674   1.155   2.543   8.038 -1.5737  1.1129 -1.0549
 5013TIP3    H236675   1.227   2.675   8.029  1.0908 -0.1533  0.4761
 5014TIP3   OH236676   3.197   4.978   9.729  0.7710 -0.4967  0.0173
 5014TIP3    H136677   3.281   4.992   9.686  0.1692 -2.3074 -1.8871
 5014TIP3    H236678   3.160   5.066   9.739  3.2224  0.4631  1.8088
 5015TIP3   OH236679   3.180   3.241   4.049  0.6797  0.1557  0.1790
 5015TIP3    H136680   3.151   3.151   4.062  0.5224  0.0949 -0.5281
 5015TIP3    H236681   3.255   3.251   4.107  1.7443 -0.9574 -0.9495
 5016TIP3   OH236682   0.635   1.327   8.353 -0.0013 -0.1116  0.0763
 5016TIP3    H136683   0.624   1.365   8.265 -0.6893 -1.1581 -0.3117
 5016TIP3    H236684   0.582   1.383   8.410  1.6174  1.4653  0.1130
 5017TIP3   OH236685   4.924   0.448   2.455  0.0541 -0.7826  0.0310
 5017TIP3    H136686   4.865   0.523   2.456  0.2372 -0.5798 -1.4856
 5017TIP3    H236687   4.867   0.372   2.443  0.0461 -0.6297 -0.9736
 5018TIP3   OH236688   4.544   1.361   1.453  0.2174  0.0631  0.3758
 5018TIP3    H136689   4.603   1.390   1.384  0.5542 -2.5123 -0.5222
 5018TIP3    H236690   4.583   1.396   1.533  0.4632  2.1255 -0.5868
 5019TIP3   OH236691   4.276   6.236   2.495  0.0556 -0.8018  0.2960
 5019TIP3    H136692   4.197   6.284   2.520 -0.0078 -0.0129 -1.2829
 5019TIP3    H236693   4.248   6.145   2.492 -0.2887 -0.7570  1.5895
 5020TIP3   OH236694   1.317   2.966   8.127  1.0914  0.0510  0.1130
 5020TIP3    H136695   1.250   2.962   8.058  1.4064  1.2004 -0.2753
 5020TIP3    H236696   1.398   2.941   8.082  0.9884 -1.0668  0.5200
 5021TIP3   OH236697   0.436   5.228   9.202 -0.2338  0.0379  0.0814
 5021TIP3    H136698   0.380   5.236   9.125 -2.0693 -1.5819  1.1669
 5021TIP3    H236699   0.501   5.161   9.177  1.7808  2.3633 -1.4024
 5022TIP3   OH236700   0.972   2.295   9.735  0.5954  0.5022  0.1735
 5022TIP3    H136701   0.927   2.217   9.767  0.6222  1.0197  1.5414
 5022TIP3    H236702   0.904   2.362   9.733  0.7304  0.6272 -0.3161
 5023TIP3   OH236703   0.947   4.989   9.010 -0.3676 -0.3356  0.0867
 5023TIP3    H136704   0.977   4.990   8.919 -1.2008 -0.1456 -0.1921
 5023TIP3    H236705   1.018   4.945   9.057  0.2312 -0.1331 -0.5907
 5024TIP3   OH236706   4.122   3.181   1.489  0.1592  0.1375 -0.1500
 5024TIP3    H136707   4.179   3.203   1.563 -0.6154  3.2009 -0.3097
 5024TIP3    H236708   4.173   3.119   1.436  1.8771  0.0729  1.4955
 5025TIP3   OH236709   2.161   4.153   2.560  0.0651 -0.3473 -0.3396
 5025TIP3    H136710   2.218   4.213   2.511  0.4218  1.1018  1.7154
 5025TIP3    H236711   2.210   4.071   2.564 -0.1255 -0.6426 -2.6228
 5026TIP3   OH236712   2.327   1.609   8.732  0.2086  0.5202  0.1806
 5026TIP3    H136713   2.280   1.528   8.754 -0.8502  1.2481  0.7159
 5026TIP3    H236714   2.408   1.603   8.781  0.3501 -0.4155 -0.1308
 5027TIP3   OH236715   5.513   0.847   8.596 -0.0297 -0.1516  0.7798
 5027TIP3    H136716   5.458   0.856   8.674 -0.0782 -0.5258  0.7876
 5027TIP3    H236717   5.485   0.765   8.556 -0.0017  0.0391  0.3705
 5028TIP3   OH236718   0.826   3.241   1.349 -0.1960  0.0683 -0.1016
 5028TIP3    H136719   0.902   3.184   1.338 -0.8845 -1.6139  2.7241
 5028TIP3    H236720   0.754   3.192   1.310 -0.1556  0.8774 -1.2341
 5029TIP3   OH236721   2.540   0.192   1.259 -0.1881  0.3303 -0.2239
 5029TIP3    H136722   2.622   0.210   1.214 -0.3056  1.3860 -0.0533
 5029TIP3    H236723   2.564   0.185   1.351 -0.4266  1.8251 -0.0250
 5030TIP3   OH236724   6.264   2.674   1.930  0.0155  0.0328 -0.1790
 5030TIP3    H136725   6.296   2.637   1.849  0.2313  0.0531 -0.1037
 5030TIP3    H236726   6.233   2.599   1.981 -0.0174  0.0092 -0.2342
 5031TIP3   OH236727   3.226   5.692   1.506  0.4794  0.0988  0.3262
 5031TIP3    H136728   3.158   5.760   1.513  1.7915  1.4059  0.9959
 5031TIP3    H236729   3.182   5.618   1.465 -1.6163  0.5324  1.6330
 5032TIP3   OH236730   5.941   1.910   0.515 -0.3219 -0.0039  0.1017
 5032TIP3    H136731   5.973   1.950   0.434 -0.8338  1.2581  0.4883
 5032TIP3    H236732   5.946   1.816   0.499  0.9922  0.1844 -0.8372
 5033TIP3   OH236733   0.398   1.666   1.474 -0.0454  0.1413  0.0114
 5033TIP3    H136734   0.488   1.634   1.462 -0.7798 -2.3930  0.7537
 5033TIP3    H236735   0.398   1.752   1.432  2.2706 -0.4958 -1.4977
 5034TIP3   OH236736   0.119   1.138   1.648 -0.1648  0.9247 -0.7964
 5034TIP3    H136737   0.209   1.156   1.674 -0.5365 -0.1022  1.4361
 5034TIP3    H236738   0.072   1.220   1.664  0.5751  2.0256 -3.5691
 5035TIP3   OH236739   5.162   4.358   1.194 -0.3100  0.2774 -0.2212
 5035TIP3    H136740   5.185   4.396   1.110  0.6941 -0.2111 -0.1789
 5035TIP3    H236741   5.112   4.426   1.238  0.1198  0.9606 -0.7661
 5036TIP3   OH236742   2.900   5.830   7.938 -0.3971  0.0605  0.4857
 5036TIP3    H136743   2.844   5.753   7.931  0.5795 -0.6172 -0.0754
 5036TIP3    H236744   2.846   5.902   7.904 -0.6253 -0.7298 -0.8884
 5037TIP3   OH236745   6.417   3.115   8.858 -0.2032 -0.2293 -0.0028
 5037TIP3    H136746   6.400   3.162   8.776 -0.9689  0.6239  0.6186
 5037TIP3    H236747   6.492   3.160   8.897 -0.5026  0.0534  0.2597
 5038TIP3   OH236748   4.431   4.747   1.840  0.7557 -0.2127  0.0963
 5038TIP3    H136749   4.383   4.757   1.758  1.8067 -0.9099 -0.6295
 5038TIP3    H236750   4.433   4.652   1.856  1.5693 -0.1722  0.2959
 5039TIP3   OH236751   1.151   5.762   1.804 -0.0038  0.3338 -0.0187
 5039TIP3    H136752   1.132   5.788   1.894 -0.0753  0.5862 -0.1066
 5039TIP3    H236753   1.246   5.764   1.798  0.0609 -0.8031  0.3840
 5040TIP3   OH236754   0.369   1.432   8.029  0.6535  0.6415  0.2731
 5040TIP3    H136755   0.304   1.447   7.960  1.5100  1.3454 -0.4080
 5040TIP3    H236756   0.352   1.344   8.059 -0.2359  0.5971 -0.3155
 5041TIP3   OH236757   0.798   2.095   2.368 -0.2173 -0.2502 -0.0937
 5041TIP3    H136758   0.857   2.164   2.338  0.3347 -1.5113 -2.1397
 5041TIP3    H236759   0.721   2.141   2.400  1.1311  1.3739  0.9987
 5042TIP3   OH236760   6.226   4.556   0.467 -0.2724  0.1116 -0.2683
 5042TIP3    H136761   6.298   4.521   0.414  0.1574  0.2109  0.2392
 5042TIP3    H236762   6.264   4.633   0.511 -0.8500  0.4894 -0.4264
 5043TIP3   OH236763   2.702   3.503   2.111 -0.3361 -0.3262 -0.9421
 5043TIP3    H136764   2.670   3.538   2.195 -2.0811  0.1198 -1.7546
 5043TIP3    H236765   2.797   3.502   2.121 -0.4964 -0.5491  1.1507
 5044TIP3   OH236766   3.291   3.137   2.965 -0.4811  0.2581 -0.1282
 5044TIP3    H136767   3.284   3.189   3.045 -0.2862 -1.0088  0.7381
 5044TIP3    H236768   3.338   3.058   2.992 -1.7972 -0.9172 -1.1386
 5045TIP3   OH236769   3.410   2.008   1.223 -0.3387 -0.1407  0.4762
 5045TIP3    H136770   3.408   2.020   1.318  0.4985  0.8100  0.3851
 5045TIP3    H236771   3.395   2.096   1.187  1.1271 -0.1509 -0.2492
 5046TIP3   OH236772   3.280   5.216   8.459 -0.1027 -0.3150  0.1236
 5046TIP3    H136773   3.201   5.162   8.456 -1.0675  1.0015  0.8414
 5046TIP3    H236774   3.295   5.242   8.368 -0.5296 -0.5359 -0.0125
 5047TIP3   OH236775   1.238   3.826   8.735 -0.0286 -0.0237 -0.0921
 5047TIP3    H136776   1.313   3.880   8.762  0.1838 -0.3318 -0.0643
 5047TIP3    H236777   1.200   3.874   8.662  2.7238 -1.9094 -3.0174
 5048TIP3   OH236778   5.338   2.234   0.044  0.4779 -0.4278  0.0461
 5048TIP3    H136779   5.353   2.284  -0.036  2.2889 -0.4411  0.3367
 5048TIP3    H236780   5.262   2.275   0.085  0.6827  0.7734 -0.7438
 5049TIP3   OH236781   4.386   1.980   1.482  0.0135 -0.2594  0.0970
 5049TIP3    H136782   4.344   1.894   1.486  0.1341 -0.2819  1.9470
 5049TIP3    H236783   4.477   1.964   1.507 -0.1856  0.4922  1.4625
 5050TIP3   OH236784   4.584   3.845   1.045 -0.0218  0.8035 -0.1951
 5050TIP3    H136785   4.499   3.801   1.046  0.2194  0.2435 -1.6094
 5050TIP3    H236786   4.590   3.884   0.957  1.5325  0.1113 -0.4343
 5051TIP3   OH236787   5.295   3.536   3.896 -0.2081 -0.2644  0.5089
 5051TIP3    H136788   5.258   3.595   3.831 -0.7042 -1.0593  0.0590
 5051TIP3    H236789   5.371   3.583   3.931  0.5755 -0.1465 -1.2423
 5052TIP3   OH236790   2.014   4.940  10.004  0.1594  0.0753  0.1442
 5052TIP3    H136791   1.982   4.857  10.039  1.7992  0.1841  2.0750
 5052TIP3    H236792   1.938   4.998  10.007 -0.9114 -1.1979 -0.8760
 5053TIP3   OH236793   3.825   0.663   8.625 -0.1235 -0.2344  0.3924
 5053TIP3    H136794   3.771   0.609   8.683 -1.1019  1.3041  0.9621
 5053TIP3    H236795   3.913   0.654   8.660 -0.3706 -0.9084  0.8874
 5054TIP3   OH236796   1.607   2.098   8.919  0.0947 -0.2455 -0.3312
 5054TIP3    H136797   1.694   2.113   8.882  0.6925 -1.5132  0.4828
 5054TIP3    H236798   1.621   2.094   9.014 -1.2134  1.7225  0.0191
 5055TIP3   OH236799   1.468   5.691   1.200  0.4330 -0.7191 -0.8323
 5055TIP3    H136800   1.457   5.785   1.217 -0.7495 -0.7067 -1.5565
 5055TIP3    H236801   1.437   5.649   1.280  3.0397 -0.4898  0.4069
 5056TIP3   OH236802   0.859   1.526   0.213 -0.1508  0.0230  0.2839
 5056TIP3    H136803   0.951   1.548   0.227 -0.0508 -0.6282  0.7152
 5056TIP3    H236804   0.811   1.602   0.243  0.2596  0.5064 -0.2630
 5057TIP3   OH236805   6.165   0.782   0.141  0.2281  0.6057  0.5999
 5057TIP3    H136806   6.141   0.691   0.156  2.6831 -0.5077 -1.5460
 5057TIP3    H236807   6.109   0.809   0.068  1.3111 -0.1160 -0.5435
 5058TIP3   OH236808   0.569   3.141   0.081 -0.6041 -0.4032 -0.9581
 5058TIP3    H136809   0.494   3.091   0.111 -1.7695  0.5188 -2.2299
 5058TIP3    H236810   0.576   3.214   0.143 -0.9832 -0.3058 -1.0270
 5059TIP3   OH236811   0.711   5.955   7.642  0.5152 -0.0256  0.8411
 5059TIP3    H136812   0.619   5.960   7.615  0.5275  1.2159  0.9613
 5059TIP3    H236813   0.732   6.044   7.670  2.0168 -0.0723 -0.0280
 5060TIP3   OH236814   5.706   5.490   2.749 -0.0038  0.0048  0.2480
 5060TIP3    H136815   5.682   5.498   2.842  1.3225 -0.4925  0.6698
 5060TIP3    H236816   5.754   5.570   2.729  0.8981 -0.4721  0.4091
 5061TIP3   OH236817   3.330   3.922   1.095 -0.2062 -0.8219  0.4497
 5061TIP3    H136818   3.237   3.939   1.081 -0.1174 -0.7262 -0.0233
 5061TIP3    H236819   3.371   3.937   1.010  0.3955  0.1415  0.8896
 5062TIP3   OH236820   0.270   0.812   9.040 -0.0937  0.0865 -0.3884
 5062TIP3    H136821   0.357   0.831   9.077 -0.2714  0.7473 -0.2990
 5062TIP3    H236822   0.252   0.885   8.981 -1.2493  0.7680  0.7546
 5063TIP3   OH236823   2.216   3.474   0.598 -0.1555  0.5202  0.2575
 5063TIP3    H136824   2.135   3.523   0.583 -0.2471  0.4370  0.4680
 5063TIP3    H236825   2.225   3.472   0.694  0.3119  0.8834  0.2251
 5064TIP3   OH236826   0.842   1.347   7.687  0.7099 -0.0931  0.1135
 5064TIP3    H136827   0.799   1.268   7.654 -0.4238  0.6440 -0.2179
 5064TIP3    H236828   0.930   1.317   7.711  0.5669 -1.2909 -0.7292
 5065TIP3   OH236829   1.491   1.425   2.654 -0.5476 -0.2036 -0.6846
 5065TIP3    H136830   1.553   1.493   2.681  0.4927 -0.3202 -2.6373
 5065TIP3    H236831   1.535   1.379   2.583 -1.5185 -2.4835  0.0890
 5066TIP3   OH236832   0.762   4.389   7.635  0.0651 -0.4782 -0.2348
 5066TIP3    H136833   0.773   4.318   7.699 -3.0776 -0.3219  0.6211
 5066TIP3    H236834   0.841   4.442   7.645  1.2907 -2.4008  0.9696
 5067TIP3   OH236835   0.768   3.013   2.978 -0.0865  0.2001 -0.3409
 5067TIP3    H136836   0.861   2.999   2.961 -0.3678 -0.4496 -1.4378
 5067TIP3    H236837   0.734   2.924   2.993 -0.5803  0.4137 -0.1865
 5068TIP3   OH236838   1.456   5.726   2.014 -0.0435  0.3928  0.4597
 5068TIP3    H136839   1.364   5.745   2.033  0.3371  5.3908 -1.3492
 5068TIP3    H236840   1.501   5.743   2.097 -0.4750  0.3235  0.7144
 5069TIP3   OH236841   1.757   0.537   1.334  0.2760 -0.3952 -0.5501
 5069TIP3    H136842   1.796   0.494   1.410  0.9272 -0.0767 -0.6926
 5069TIP3    H236843   1.663   0.533   1.350  0.4320  1.1830  1.1284
 5070TIP3   OH236844   3.080   6.270   2.034 -0.3941 -0.2065 -0.2021
 5070TIP3    H136845   3.135   6.333   2.080 -1.6507  0.2153  0.8060
 5070TIP3    H236846   3.099   6.285   1.941 -0.5851  1.6497  0.0021
 5071TIP3   OH236847   5.150   2.785   2.550  0.2934  0.2756  0.2629
 5071TIP3    H136848   5.113   2.828   2.473  0.2304  2.2143  1.2958
 5071TIP3    H236849   5.112   2.697   2.550  0.6321  0.0709 -2.1129
 5072TIP3   OH236850   1.208   2.437   8.557 -0.2691 -0.5081 -0.0668
 5072TIP3    H136851   1.134   2.497   8.552 -3.1663 -3.8807 -1.7923
 5072TIP3    H236852   1.231   2.419   8.466  0.6317 -1.8860  0.3967
 5073TIP3   OH236853   4.110   0.963   8.779  0.1824  0.6486 -0.0522
 5073TIP3    H136854   4.147   0.894   8.723 -2.2904 -2.4520  1.8192
 5073TIP3    H236855   4.174   0.974   8.849  0.9447  0.8309 -0.7650
 5074TIP3   OH236856   5.754   4.076   2.487  0.2131 -0.5811  0.9747
 5074TIP3    H136857   5.704   4.158   2.487 -0.3391 -0.8783 -0.5480
 5074TIP3    H236858   5.806   4.081   2.407 -0.2296 -1.9371  0.5847
 5075TIP3   OH236859   5.890   1.721   1.087 -0.3793 -0.0482 -0.2925
 5075TIP3    H136860   5.891   1.640   1.036  1.0291  0.1253 -0.5733
 5075TIP3    H236861   5.977   1.726   1.126 -0.8219  0.7708  0.6382
 5076TIP3   OH236862   4.662   2.104   9.005 -0.0138 -0.8730 -0.2424
 5076TIP3    H136863   4.607   2.029   9.028 -0.1135 -1.0154 -0.9228
 5076TIP3    H236864   4.732   2.105   9.071  1.2110 -2.8433 -1.4268
 5077TIP3   OH236865   3.708   4.185   3.663  0.3215 -0.3182  0.4481
 5077TIP3    H136866   3.651   4.153   3.733  1.3168 -0.7053  1.1049
 5077TIP3    H236867   3.731   4.274   3.691  0.3511 -0.3059  0.3826
 5078TIP3   OH236868   1.278   2.041   1.648  0.2138 -0.4039  0.1170
 5078TIP3    H136869   1.294   2.090   1.729 -1.4743  0.3619  0.0378
 5078TIP3    H236870   1.233   2.104   1.591 -1.5633 -1.8496 -0.1766
 5079TIP3   OH236871   1.748   4.026   7.943  0.6602 -0.2633  0.7819
 5079TIP3    H136872   1.667   4.076   7.934  0.9090  0.7293  3.3886
 5079TIP3    H236873   1.817   4.092   7.953  1.8111 -1.0990 -0.9608
 5080TIP3   OH236874   0.940   3.839   0.918  0.2869  0.8390  0.2055
 5080TIP3    H136875   0.919   3.929   0.892  0.9024  1.3951  1.5089
 5080TIP3    H236876   0.890   3.784   0.858 -1.2357  2.0588  0.2932
 5081TIP3   OH236877   1.466   2.156   1.179  0.1632 -0.3859 -0.0229
 5081TIP3    H136878   1.561   2.167   1.167  0.2672 -0.2497  0.8353
 5081TIP3    H236879   1.458   2.109   1.262 -0.5460  0.1447  0.2148
 5082TIP3   OH236880   2.788   5.594   1.429  0.6790  0.3926 -0.3768
 5082TIP3    H136881   2.808   5.517   1.482 -0.4360  0.1135 -0.3251
 5082TIP3    H236882   2.693   5.607   1.440  0.4803  0.5431 -1.9995
 5083TIP3   OH236883   1.130   3.018   9.379 -0.4085  0.0483  0.2748
 5083TIP3    H136884   1.190   2.951   9.412  0.2092  0.1507 -0.6104
 5083TIP3    H236885   1.086   2.976   9.305 -0.2179  0.5313 -0.1162
 5084TIP3   OH236886   4.643   2.305   2.861 -0.2044 -0.4887 -0.7098
 5084TIP3    H136887   4.685   2.360   2.927 -2.0747 -0.0221  0.1935
 5084TIP3    H236888   4.708   2.295   2.792  0.2461  2.9000 -0.9461
 5085TIP3   OH236889   0.801   4.490   1.216 -0.3606 -0.7665  0.5325
 5085TIP3    H136890   0.824   4.570   1.170 -2.5933 -0.2713  0.1697
 5085TIP3    H236891   0.820   4.509   1.308  1.4964 -0.7649  0.1806
 5086TIP3   OH236892   4.597   5.973   2.627 -0.3931  0.5826 -0.2583
 5086TIP3    H136893   4.623   5.881   2.622  3.5422  1.4859  0.5080
 5086TIP3    H236894   4.581   5.998   2.535  1.4817 -0.1849 -0.8424
 5087TIP3   OH236895   5.765   5.212   3.473  0.1322  0.3021  0.5073
 5087TIP3    H136896   5.684   5.260   3.489 -0.8591 -1.0902 -0.0890
 5087TIP3    H236897   5.742   5.120   3.489  1.6966 -0.0902  0.6932
 5088TIP3   OH236898   3.739   6.371   2.427  0.3989  0.6212 -0.0197
 5088TIP3    H136899   3.645   6.356   2.422  0.1988  1.6866  0.2638
 5088TIP3    H236900   3.773   6.295   2.475 -0.1324 -0.3855 -1.2040
 5089TIP3   OH236901   1.669   4.465   3.374 -0.3353  0.4102  0.1092
 5089TIP3    H136902   1.673   4.527   3.302  0.9337  1.6038  1.1653
 5089TIP3    H236903   1.627   4.513   3.445  0.0243 -0.1583  0.7172
 5090TIP3   OH236904   4.371   6.106   1.263 -0.4413 -0.5770  0.0749
 5090TIP3    H136905   4.369   6.146   1.177  0.4768  2.2116  1.2428
 5090TIP3    H236906   4.457   6.063   1.267  1.1744  2.4207  0.7648
 5091TIP3   OH236907   5.234   3.951   2.058  0.2069  0.0785 -0.1734
 5091TIP3    H136908   5.175   3.875   2.061 -0.2502  0.3136 -2.0078
 5091TIP3    H236909   5.317   3.916   2.027  0.0264  0.2922 -0.9189
 5092TIP3   OH236910   2.147   2.058   9.203  0.4555 -0.1142  0.0245
 5092TIP3    H136911   2.166   1.993   9.271  1.0160 -0.9983 -0.9349
 5092TIP3    H236912   2.116   2.007   9.129  0.1837  0.7929 -0.5052
 5093TIP3   OH236913   2.969   3.447   2.106  0.4463 -0.2918 -0.1646
 5093TIP3    H136914   3.012   3.415   2.185  0.6224 -2.1611 -0.9598
 5093TIP3    H236915   3.034   3.433   2.037 -0.8192 -1.6287 -1.1206
 5094TIP3   OH236916   0.631   1.917   0.807 -0.2002  0.1254  0.1023
 5094TIP3    H136917   0.623   1.868   0.725  0.8841  0.0745  0.0166
 5094TIP3    H236918   0.692   1.866   0.861  0.1832  0.8616  0.3954
 5095TIP3   OH236919   0.916   5.235   1.825  0.0598  0.3403 -0.2788
 5095TIP3    H136920   0.997   5.287   1.831  1.2314 -1.4854  0.6955
 5095TIP3    H236921   0.849   5.292   1.863  1.2621  1.2353  0.5935
 5096TIP3   OH236922   4.141   0.638   2.904  0.1069  0.0278 -0.3664
 5096TIP3    H136923   4.130   0.727   2.872 -0.4205  0.3909  0.7558
 5096TIP3    H236924   4.233   0.631   2.927  0.4663 -0.2098 -1.8308
 5097TIP3   OH236925   4.418   5.291   2.915  0.1888  0.3567 -0.5690
 5097TIP3    H136926   4.512   5.297   2.898 -0.0366  0.1792 -2.0579
 5097TIP3    H236927   4.388   5.224   2.854 -0.4529 -1.8417  1.9915
 5098TIP3   OH236928   2.787   3.067   1.542  0.3136 -0.7974 -0.0545
 5098TIP3    H136929   2.792   3.007   1.616  1.0554 -0.7236 -0.0370
 5098TIP3    H236930   2.861   3.127   1.555  0.5830 -0.9192 -0.9653
 5099TIP3   OH236931   6.210   6.094   8.525 -0.2893  0.4339  0.3825
 5099TIP3    H136932   6.255   6.021   8.568 -0.2580  0.7226  0.8472
 5099TIP3    H236933   6.137   6.115   8.584  0.1777  1.3058  0.6553
 5100TIP3   OH236934   0.310   0.623   2.322 -0.0227 -0.1268 -0.1362
 5100TIP3    H136935   0.353   0.584   2.398 -0.2501 -0.4481 -0.1704
 5100TIP3    H236936   0.380   0.635   2.258  0.0436 -0.5180 -0.1411
 5101TIP3   OH236937   1.545   2.060   0.716 -0.7186  0.6665  0.1296
 5101TIP3    H136938   1.535   1.981   0.662 -1.9969  0.9575 -0.0996
 5101TIP3    H236939   1.639   2.068   0.730 -0.4603 -0.1299 -1.0049
 5102TIP3   OH236940   6.205   1.156   1.737  0.6316 -0.1467 -0.1483
 5102TIP3    H136941   6.218   1.127   1.646  2.0014 -1.0477  0.3068
 5102TIP3    H236942   6.144   1.091   1.773  0.1807  0.1417 -0.3889
 5103TIP3   OH236943   0.417   2.204   7.830  0.1909 -0.0991 -0.1128
 5103TIP3    H136944   0.331   2.207   7.788 -1.1344  1.3921  2.4896
 5103TIP3    H236945   0.476   2.175   7.760 -2.5652 -2.4759 -1.6777
 5104TIP3   OH236946   0.986   4.655   0.406 -0.4493  0.5183 -0.7448
 5104TIP3    H136947   0.950   4.715   0.471 -1.9497  1.9651 -2.7997
 5104TIP3    H236948   1.063   4.701   0.372  0.9901 -0.7150  0.6666
 5105TIP3   OH236949   5.711   3.485   1.257 -0.2415 -0.3994 -0.1219
 5105TIP3    H136950   5.790   3.488   1.310  0.0438 -0.7551 -0.5197
 5105TIP3    H236951   5.675   3.398   1.272 -0.4226 -0.3271 -0.1324
 5106TIP3   OH236952   5.857   1.626   2.453  0.3697 -0.6259  0.2232
 5106TIP3    H136953   5.778   1.614   2.401  1.7408 -1.8659 -1.7169
 5106TIP3    H236954   5.859   1.552   2.513  0.1564 -0.7055  0.1302
 5107TIP3   OH236955   2.499   1.921   0.914 -0.0480  0.3384  0.3414
 5107TIP3    H136956   2.409   1.893   0.929  0.1659 -0.5033  0.0876
 5107TIP3    H236957   2.494   1.971   0.832 -0.4022  0.9422  0.7182
 5108TIP3   OH236958   0.300   1.632   0.433  0.0281  0.0840  0.8583
 5108TIP3    H136959   0.299   1.581   0.514 -0.2912  0.9164  1.3881
 5108TIP3    H236960   0.233   1.699   0.446  0.9751  1.1342  0.5143
 5109TIP3   OH236961   0.507   2.142   0.704 -0.4761 -0.1289 -0.5481
 5109TIP3    H136962   0.584   2.099   0.741 -0.0203  0.9021 -0.2601
 5109TIP3    H236963   0.477   2.083   0.635  1.2477 -0.0307 -1.4411
 5110TIP3   OH236964   0.040   0.261   0.173 -0.5743 -0.4220  0.1209
 5110TIP3    H136965   0.076   0.341   0.135  2.5800 -1.5320  0.4333
 5110TIP3    H236966   0.005   0.288   0.258 -0.0501  0.7061 -0.0053
 5111TIP3   OH236967   4.808   4.859   2.750  0.4547  0.6028 -0.0569
 5111TIP3    H136968   4.903   4.875   2.746  0.4527  1.1297  1.2686
 5111TIP3    H236969   4.783   4.891   2.837 -0.4794 -2.0032  0.7373
 5112TIP3   OH236970   2.506   4.225   8.745 -0.3077 -0.0717  0.0269
 5112TIP3    H136971   2.429   4.255   8.792 -1.0795 -0.0838 -1.1927
 5112TIP3    H236972   2.517   4.288   8.674 -0.2376 -1.0453 -0.8407
 5113TIP3   OH236973   0.285   3.770   1.135 -0.2788 -0.0315  0.7053
 5113TIP3    H136974   0.279   3.683   1.096 -1.5247  0.9159 -1.3696
 5113TIP3    H236975   0.377   3.779   1.160  0.5361 -0.8823 -1.7264
 5114TIP3   OH236976   4.195   6.051   8.498  0.9314  0.2122  0.5242
 5114TIP3    H136977   4.167   5.961   8.490  1.8665 -0.1580  1.1636
 5114TIP3    H236978   4.190   6.087   8.410  0.8274 -0.5496  0.2164
 5115TIP3   OH236979   5.485   5.491   0.140 -0.2096 -0.0180 -0.5831
 5115TIP3    H136980   5.414   5.506   0.078 -0.1823  2.0768 -0.1881
 5115TIP3    H236981   5.460   5.540   0.218  1.1854 -0.0635 -0.0702
 5116TIP3   OH236982   3.546   0.968   7.673 -0.0244 -0.1738 -0.4269
 5116TIP3    H136983   3.527   0.875   7.685  1.4656 -0.4359  0.1169
 5116TIP3    H236984   3.479   1.013   7.725 -1.8442 -0.8334 -2.0776
 5117TIP3   OH236985   5.608   1.454   2.958 -0.2925  0.8571 -0.1307
 5117TIP3    H136986   5.632   1.374   2.910  1.2309  0.9089  0.4867
 5117TIP3    H236987   5.650   1.525   2.909 -0.9391  1.2051 -0.1951
 5118TIP3   OH236988   0.785   5.837   1.334 -0.3501 -0.4267  0.6307
 5118TIP3    H136989   0.814   5.772   1.397 -0.8666 -0.9921  0.3016
 5118TIP3    H236990   0.837   5.820   1.256 -0.2885 -0.2639  0.6367
 5119TIP3   OH236991   3.123   4.837   0.946  0.0708  0.0547  0.0703
 5119TIP3    H136992   3.091   4.758   0.991  2.0140 -0.2656  0.9810
 5119TIP3    H236993   3.138   4.809   0.856  0.2354 -0.4863  0.2602
 5120TIP3   OH236994   1.952   0.992   1.699  0.1518  0.0191  0.3268
 5120TIP3    H136995   1.978   0.986   1.791  3.0113  0.2682 -0.3759
 5120TIP3    H236996   1.990   0.914   1.659 -0.9907 -0.0435 -0.6968
 5121TIP3   OH236997   4.752   0.685   0.251  0.0103  0.2348  0.3194
 5121TIP3    H136998   4.713   0.611   0.204 -3.5592 -0.7589  4.2196
 5121TIP3    H236999   4.815   0.645   0.310 -1.5563  0.2527  2.0770
 5122TIP3   OH237000   0.641   0.592   9.439 -0.1439 -0.0684  1.1358
 5122TIP3    H137001   0.545   0.587   9.434 -0.0921 -0.0571 -0.4408
 5122TIP3    H237002   0.671   0.522   9.381  0.8169 -0.1337  1.6961
 5123TIP3   OH237003   2.014   2.488   9.976 -0.3755  0.2409  0.5923
 5123TIP3    H137004   2.018   2.436   9.895 -0.3149  0.1762  0.6373
 5123TIP3    H237005   1.922   2.483  10.003 -0.9610  2.3070 -0.8121
 5124TIP3   OH237006   1.973   5.059   0.538 -0.0882  0.0221  0.5319
 5124TIP3    H137007   1.909   5.044   0.607 -0.0347 -0.4843  0.4751
 5124TIP3    H237008   1.928   5.036   0.457 -0.8586  2.5764  0.1204
 5125TIP3   OH237009   4.741   6.327   1.464 -0.4648  0.7610 -0.2821
 5125TIP3    H137010   4.690   6.373   1.530  1.2254  0.7404  1.0990
 5125TIP3    H237011   4.724   6.234   1.481 -0.1095  0.7587  0.0903
 5126TIP3   OH237012   1.752   0.994   1.221 -0.2682  0.4935  0.2710
 5126TIP3    H137013   1.805   0.982   1.142  2.2977  1.5221  1.7254
 5126TIP3    H237014   1.672   0.943   1.204  1.1058 -1.0734 -2.0752
 5127TIP3   OH237015   4.392   3.632   9.033  0.1992 -0.2679  0.5481
 5127TIP3    H137016   4.381   3.537   9.038  1.4836 -0.5041 -0.5213
 5127TIP3    H237017   4.303   3.666   9.024 -0.2003 -1.4773 -0.3768
 5128TIP3   OH237018   3.459   3.970   0.868 -0.0901 -0.2584 -0.4179
 5128TIP3    H137019   3.554   3.962   0.875 -0.0111  0.4281 -0.5577
 5128TIP3    H237020   3.436   3.926   0.786  0.3722  1.2814 -1.4271
 5129TIP3   OH237021   3.558   5.352   2.054  0.1135 -0.3055  0.4356
 5129TIP3    H137022   3.572   5.440   2.088 -1.6068  0.1219  0.1361
 5129TIP3    H237023   3.476   5.358   2.005  0.8186 -1.6904 -1.0066
 5130TIP3   OH237024   5.190   2.316   3.264  0.1657  0.2881 -0.2292
 5130TIP3    H137025   5.166   2.408   3.267  0.9655  0.4867  1.5540
 5130TIP3    H237026   5.233   2.300   3.348  2.0678 -1.1598 -1.4108
 5131TIP3   OH237027   5.593   6.314   9.859 -0.1894  0.2958 -0.2137
 5131TIP3    H137028   5.686   6.295   9.861 -0.2960 -0.2019  0.6194
 5131TIP3    H237029   5.560   6.282   9.944 -0.9936  1.0721 -0.2170
 5132TIP3   OH237030   3.212   0.499   9.747  0.7692  0.0083  0.5573
 5132TIP3    H137031   3.161   0.480   9.668  0.4785  2.7377 -0.0241
 5132TIP3    H237032   3.238   0.413   9.780 -3.9278 -1.6376  0.7574
 5133TIP3   OH237033   1.525   2.881   9.912  0.0488  0.1228  0.2491
 5133TIP3    H137034   1.481   2.812   9.863  0.2846  0.9756 -1.1978
 5133TIP3    H237035   1.456   2.942   9.936  0.0623  0.1444  0.2339
 5134TIP3   OH237036   4.759   5.071   9.902 -0.3369  0.3199 -0.1975
 5134TIP3    H137037   4.819   5.098   9.971 -0.7854 -0.2673  0.4288
 5134TIP3    H237038   4.754   4.976   9.910  1.3761 -0.0474 -2.5049
 5135TIP3   OH237039   5.017   6.357   1.305  0.2848 -1.2703 -0.3725
 5135TIP3    H137040   5.028   6.347   1.211  1.0264  2.2209 -0.7685
 5135TIP3    H237041   4.922   6.348   1.319  0.0393 -0.7946 -1.6105
 5136TIP3   OH237042   4.018   3.459   0.804  0.1520  0.0458 -0.0236
 5136TIP3    H137043   4.041   3.500   0.888  2.6694 -0.0181 -0.6002
 5136TIP3    H237044   4.057   3.371   0.809 -2.1529 -1.0570 -0.1932
 5137TIP3   OH237045   0.745   2.025   0.465  0.5307  0.3404 -0.2247
 5137TIP3    H137046   0.701   2.007   0.548 -1.8848  1.8315 -1.1046
 5137TIP3    H237047   0.693   1.981   0.399  0.5758  1.7690 -1.2671
 5138TIP3   OH237048   0.543   0.259   0.164  0.4886  0.4126  0.4203
 5138TIP3    H137049   0.505   0.346   0.174  2.1792  1.1526  0.7357
 5138TIP3    H237050   0.545   0.223   0.252  0.7251  0.4709  0.4395
 5139TIP3   OH237051   1.719   1.028   2.088  0.3707 -0.6226 -0.6586
 5139TIP3    H137052   1.747   1.119   2.076 -0.5648 -0.1477  0.4463
 5139TIP3    H237053   1.677   1.028   2.174 -0.8882 -1.7872 -1.2370
 5140TIP3   OH237054   4.701   5.781   1.726 -0.3037 -0.4282 -0.0370
 5140TIP3    H137055   4.694   5.834   1.805 -1.3250 -0.1042 -0.3231
 5140TIP3    H237056   4.636   5.711   1.737 -1.0203  0.0682 -0.9014
 5141TIP3   OH237057   0.105   4.808   1.953  0.3430 -0.1529  0.0395
 5141TIP3    H137058   0.074   4.898   1.946 -0.5656 -0.4880 -0.4997
 5141TIP3    H237059   0.200   4.815   1.957  0.3028  0.8037 -0.4500
 5142TIP3   OH237060   3.198   1.587   0.238  0.1061  0.7666  0.1709
 5142TIP3    H137061   3.232   1.642   0.168 -2.9839  1.2737 -1.0802
 5142TIP3    H237062   3.151   1.517   0.193 -1.0422  0.4939  1.7191
 5143TIP3   OH237063   5.349   0.842   9.209  0.1674  0.2777  0.1554
 5143TIP3    H137064   5.371   0.809   9.296 -0.3202  2.6122  1.2493
 5143TIP3    H237065   5.258   0.816   9.195  0.1207  0.2469  0.5196
 5144TIP3   OH237066   3.147   0.604   8.966  0.4832 -0.1910 -0.0300
 5144TIP3    H137067   3.234   0.583   8.999  1.7024  2.2710 -1.3928
 5144TIP3    H237068   3.107   0.657   9.035  0.6083 -0.1760  0.0308
 5145TIP3   OH237069   2.066   1.197   9.205 -0.5809  0.2017  0.2670
 5145TIP3    H137070   2.052   1.104   9.186  1.0573  0.2644 -1.5848
 5145TIP3    H237071   1.987   1.240   9.170  0.1912 -0.2111 -2.2039
 5146TIP3   OH237072   2.571   3.283   8.947 -0.6673  0.4446  0.3071
 5146TIP3    H137073   2.545   3.296   8.856  0.3421  0.2409 -0.0174
 5146TIP3    H237074   2.620   3.201   8.947 -0.9796  0.2427  1.1078
 5147TIP3   OH237075   6.261   5.432   0.804  0.0465  0.1737 -0.0055
 5147TIP3    H137076   6.195   5.478   0.753 -0.8536 -0.7962  0.2576
 5147TIP3    H237077   6.331   5.413   0.742  0.6234  2.1707 -0.0509
 5148TIP3   OH237078   3.000   0.019   9.856 -0.0569 -0.0610  0.3941
 5148TIP3    H137079   2.932  -0.047   9.847  1.0482 -1.4439  1.7473
 5148TIP3    H237080   3.006   0.035   9.950  0.8510  0.7306  0.2201
 5149TIP3   OH237081   5.532   2.246   0.634  0.0297  0.4487 -1.0044
 5149TIP3    H137082   5.488   2.302   0.570  1.1005  1.1390 -1.1645
 5149TIP3    H237083   5.517   2.289   0.719  0.1550  0.5409 -1.0277
 5150TIP3   OH237084   1.146   1.451   2.110 -0.3762  0.1009 -0.4152
 5150TIP3    H137085   1.086   1.466   2.183  1.2025 -0.9285  1.1866
 5150TIP3    H237086   1.216   1.515   2.124 -0.9684  1.2325 -2.2070
 5151TIP3   OH237087   1.368   4.253   1.191 -0.2250  0.0883  0.0373
 5151TIP3    H137088   1.296   4.287   1.138 -0.6915 -1.3073 -0.2589
 5151TIP3    H237089   1.446   4.265   1.137 -0.8312 -2.3253 -1.5221
 5152TIP3   OH237090   4.589   2.784   9.010 -0.0903  0.7720  0.2013
 5152TIP3    H137091   4.608   2.738   9.092 -1.7912  1.8163  1.2509
 5152TIP3    H237092   4.514   2.737   8.973  1.4022 -0.4511 -1.4632
 5153TIP3   OH237093   6.031   0.514   1.398  0.2371  0.5992 -0.0856
 5153TIP3    H137094   6.085   0.435   1.385  0.3625  0.6658  0.0282
 5153TIP3    H237095   6.004   0.539   1.310 -0.3360  0.0578 -0.0696
 5154TIP3   OH237096   4.329   2.675   1.524 -0.0175  0.0222  0.6841
 5154TIP3    H137097   4.235   2.664   1.511 -0.0960 -0.5455  1.6124
 5154TIP3    H237098   4.343   2.657   1.617  1.2346 -1.4696  0.2471
 5155TIP3   OH237099   2.166   4.282   1.965 -0.3186 -0.1624 -0.3790
 5155TIP3    H137100   2.240   4.339   1.985 -1.6470  2.5389 -2.5109
 5155TIP3    H237101   2.141   4.245   2.050  1.6049  1.1985  0.8671
 5156TIP3   OH237102   4.492   3.877   9.440 -0.0995 -0.1616 -0.0408
 5156TIP3    H137103   4.541   3.953   9.407 -1.1509  0.9082  0.7947
 5156TIP3    H237104   4.527   3.803   9.390  1.5597  0.7282 -0.2660
 5157TIP3   OH237105   1.317   5.319   8.332 -0.0143 -0.5184  0.3506
 5157TIP3    H137106   1.348   5.259   8.263 -1.4801 -0.2158 -0.6166
 5157TIP3    H237107   1.236   5.279   8.363 -1.1936  1.0666 -0.5392
 5158TIP3   OH237108   0.667   4.611   0.499 -0.2060  0.4345  0.0270
 5158TIP3    H137109   0.688   4.519   0.487 -2.5692  0.0359 -1.9470
 5158TIP3    H237110   0.635   4.618   0.588 -2.8185 -1.3660 -0.6737
 5159TIP3   OH237111   3.550   6.353   8.767  0.7061  0.2999  0.1610
 5159TIP3    H137112   3.537   6.275   8.714 -0.0427  1.2101 -1.0530
 5159TIP3    H237113   3.605   6.324   8.839 -0.1212 -1.5096  0.1303
 5160TIP3   OH237114   0.209   5.837  10.007 -0.1328  0.0311  0.5267
 5160TIP3    H137115   0.182   5.776   9.937 -0.0046 -0.2515  0.7212
 5160TIP3    H237116   0.128   5.882  10.031 -0.3000 -0.3055  0.6148
 5161TIP3   OH237117   0.886   5.789   8.396  0.2674 -0.3324 -0.2642
 5161TIP3    H137118   0.811   5.762   8.449  1.4839 -0.4232  1.5001
 5161TIP3    H237119   0.906   5.877   8.427  1.4565 -0.6672 -0.0334
 5162TIP3   OH237120   2.633   2.534   2.435  0.6124  0.2992  0.4317
 5162TIP3    H137121   2.626   2.612   2.379 -1.2839  1.1469  1.7370
 5162TIP3    H237122   2.614   2.461   2.376 -1.7591  1.1867 -0.0425
 5163TIP3   OH237123   5.860   0.311   9.521  0.0718  0.0444 -0.3948
 5163TIP3    H137124   5.900   0.229   9.490  1.8899  1.0886 -0.9966
 5163TIP3    H237125   5.766   0.294   9.519  0.3327 -1.5797 -1.8649
 5164TIP3   OH237126   1.666   4.156   2.084 -0.0399  0.3989 -0.2123
 5164TIP3    H137127   1.646   4.249   2.077 -0.0407  0.3071 -1.5685
 5164TIP3    H237128   1.586   4.112   2.054 -0.0822 -0.0551  0.5260
 5165TIP3   OH237129   4.549   4.756   8.888 -0.1810  0.0757  0.5995
 5165TIP3    H137130   4.513   4.815   8.821 -1.3726 -0.9561  0.3093
 5165TIP3    H237131   4.606   4.697   8.839 -1.3197 -0.8982  0.4157
 5166TIP3   OH237132   5.483   5.399   2.415 -0.2289  0.1558 -0.5346
 5166TIP3    H137133   5.519   5.348   2.342  0.9621  0.2524 -0.0452
 5166TIP3    H237134   5.388   5.390   2.407 -0.1105  0.0761 -2.0242
 5167TIP3   OH237135   1.084   6.405   1.889  0.6438  0.2368 -0.0103
 5167TIP3    H137136   1.173   6.439   1.880  0.2650  1.0973 -0.6795
 5167TIP3    H237137   1.053   6.396   1.799  0.7793 -2.0987  0.1149
 5168TIP3   OH237138   1.248   3.923   3.505 -0.5617  0.6981 -0.7451
 5168TIP3    H137139   1.321   3.977   3.537  1.1501 -1.0854 -1.4224
 5168TIP3    H237140   1.175   3.984   3.498  1.8084  3.5912 -3.7233
 5169TIP3   OH237141   1.108   2.947   7.932  0.0424  0.6260  0.0409
 5169TIP3    H137142   1.102   2.856   7.905 -1.4864  0.5742  0.5035
 5169TIP3    H237143   1.130   2.994   7.852 -1.6558  0.1361 -0.7449
 5170TIP3   OH237144   2.023   3.148   3.258 -0.3318 -0.1273  0.1962
 5170TIP3    H137145   1.981   3.199   3.327 -0.1333 -1.3287  1.2221
 5170TIP3    H237146   2.110   3.128   3.292 -0.4515 -1.2702 -0.1278
 5171TIP3   OH237147   2.004   4.578   3.428 -0.0514 -0.3752  0.6314
 5171TIP3    H137148   1.912   4.584   3.454 -0.6882 -1.2187 -1.2561
 5171TIP3    H237149   2.030   4.669   3.414 -1.4212 -0.1985 -1.2949
 5172TIP3   OH237150   1.591   6.246   9.291 -0.3616 -0.4518  0.3927
 5172TIP3    H137151   1.615   6.158   9.321 -0.0561 -0.1064  1.1693
 5172TIP3    H237152   1.519   6.231   9.230  1.4718 -1.4981 -1.6791
 5173TIP3   OH237153   5.704   4.515   2.066 -0.1102 -0.2878  0.0073
 5173TIP3    H137154   5.611   4.496   2.078 -0.1108  0.2484  0.9763
 5173TIP3    H237155   5.716   4.517   1.972 -0.9027 -1.2241 -0.1340
 5174TIP3   OH237156   3.942   0.270   8.725  0.1509 -0.1351 -0.7868
 5174TIP3    H137157   3.902   0.275   8.638 -1.6622 -0.2043  0.0126
 5174TIP3    H237158   3.927   0.180   8.754 -0.5968  0.2963  0.2033
 5175TIP3   OH237159   1.165   5.182   9.561 -0.0572  0.7838 -0.4853
 5175TIP3    H137160   1.222   5.219   9.493  0.1985  1.6183  0.1650
 5175TIP3    H237161   1.197   5.221   9.643 -1.4804  1.1645 -0.0859
 5176TIP3   OH237162   5.950   0.760   1.494  0.0991 -0.0612  0.3308
 5176TIP3    H137163   5.985   0.837   1.448 -0.7391  0.7328  0.9628
 5176TIP3    H237164   5.965   0.687   1.435  0.0088  0.7614 -0.7446
 5177TIP3   OH237165   0.058   0.474   8.505 -0.2522  0.3082 -0.0863
 5177TIP3    H137166   0.027   0.557   8.540 -1.3619 -0.2558  0.3251
 5177TIP3    H237167   0.069   0.490   8.411  0.8475  1.2728  0.1783
 5178TIP3   OH237168   6.130   6.022   2.002 -0.5981 -0.0643  0.4178
 5178TIP3    H137169   6.087   6.106   1.991  0.1120  0.2305 -0.2827
 5178TIP3    H237170   6.097   5.987   2.084 -1.6686  0.4322  0.2101
 5179TIP3   OH237171   6.277   1.052   0.242 -0.1876 -0.2726  0.3810
 5179TIP3    H137172   6.280   0.996   0.319 -1.3174 -0.2847  0.4370
 5179TIP3    H237173   6.355   1.107   0.248  0.4198 -1.1661  0.8359
 5180TIP3   OH237174   0.875   2.992   0.059 -0.1431 -0.4342 -0.0109
 5180TIP3    H137175   0.963   3.021   0.084  0.4724 -1.1731 -1.2282
 5180TIP3    H237176   0.821   3.071   0.066  0.4874 -0.0827  1.2504
 5181TIP3   OH237177   3.443   0.425   2.682 -0.4766  0.4607  0.4357
 5181TIP3    H137178   3.379   0.374   2.731 -0.7022  2.1674  2.0577
 5181TIP3    H237179   3.407   0.432   2.594 -0.4215 -2.0958  0.1577
 5182TIP3   OH237180   4.151   3.187   3.348  0.1050  0.0248  0.4738
 5182TIP3    H137181   4.060   3.209   3.330  0.0742  0.2349  0.8658
 5182TIP3    H237182   4.147   3.113   3.408  0.2103 -1.3027 -1.0800
 5183TIP3   OH237183   6.080   3.309   7.886  0.0991  0.3643 -0.0868
 5183TIP3    H137184   5.998   3.357   7.892 -0.0593  0.3710 -1.8087
 5183TIP3    H237185   6.055   3.222   7.854  0.8174  0.7246 -1.7554
 5184TIP3   OH237186   6.402   2.878   9.139 -0.0860 -0.3686  0.2200
 5184TIP3    H137187   6.460   2.811   9.103 -2.2726 -1.6529 -1.1617
 5184TIP3    H237188   6.335   2.890   9.072 -1.1470  1.3964  1.5163
 5185TIP3   OH237189   2.840   2.852   8.720  0.0204 -0.1676  0.1270
 5185TIP3    H137190   2.762   2.844   8.774 -1.0543 -0.0165 -1.3508
 5185TIP3    H237191   2.845   2.945   8.699 -1.4423 -0.6210 -2.6141
 5186TIP3   OH237192   2.540   0.097   8.939 -0.0961 -0.4174 -0.0040
 5186TIP3    H137193   2.457   0.133   8.908  0.2797  1.2890  0.8701
 5186TIP3    H237194   2.524   0.003   8.946 -1.2967 -0.3837 -1.8127
 5187TIP3   OH237195   1.649   2.623   7.405  0.6240 -0.3403  0.5323
 5187TIP3    H137196   1.725   2.572   7.377  1.2297 -0.2925  1.9992
 5187TIP3    H237197   1.686   2.702   7.444 -0.2492  0.3977 -0.0945
 5188TIP3   OH237198   0.214   0.888   0.216 -0.2103 -0.1323 -0.2438
 5188TIP3    H137199   0.310   0.880   0.212 -0.0854  1.3411 -0.4866
 5188TIP3    H237200   0.194   0.890   0.309 -0.2203 -2.4825 -0.1387
 5189TIP3   OH237201   5.402   3.183   1.877  0.2545 -0.2836  0.0540
 5189TIP3    H137202   5.439   3.256   1.827 -1.8504 -0.8346 -2.5201
 5189TIP3    H237203   5.314   3.212   1.900 -0.3530 -1.7151 -0.3746
 5190TIP3   OH237204   5.208   4.436   2.245  0.7553  0.1002 -0.1079
 5190TIP3    H137205   5.168   4.480   2.320 -0.9773 -0.0948 -0.8786
 5190TIP3    H237206   5.205   4.343   2.268 -0.3182 -0.0098 -0.6404
 5191TIP3   OH237207   2.427   0.608   9.203  0.2546 -0.5213 -0.1260
 5191TIP3    H137208   2.500   0.628   9.145 -0.0379  0.5582 -0.1405
 5191TIP3    H237209   2.402   0.519   9.181 -0.5714  0.2264 -2.4594
 5192TIP3   OH237210   0.349   5.606   8.703 -0.0146 -0.1113 -0.5937
 5192TIP3    H137211   0.444   5.597   8.696 -0.1437 -1.3117 -0.9394
 5192TIP3    H237212   0.336   5.655   8.784  0.8534 -1.1534  0.2073
 5193TIP3   OH237213   6.396   4.578   2.018 -0.0067  0.1965  0.4777
 5193TIP3    H137214   6.481   4.608   1.986  0.0580  0.2435  0.6891
 5193TIP3    H237215   6.337   4.651   2.002 -0.0054  0.1684  0.3416
 5194TIP3   OH237216   4.104   0.123   9.550  0.6904 -0.5985  0.1635
 5194TIP3    H137217   4.176   0.102   9.610  1.3332 -0.7003 -0.6182
 5194TIP3    H237218   4.039   0.055   9.565  0.4527 -0.1334  1.3497
 5195TIP3   OH237219   5.962   6.134   8.202 -0.2569 -0.1829 -0.1331
 5195TIP3    H137220   5.925   6.061   8.252  2.1061 -0.3525  1.5464
 5195TIP3    H237221   5.926   6.212   8.243  1.1420 -0.3442  1.5431
 5196TIP3   OH237222   0.230   6.188   1.673 -0.0764 -0.1523 -0.0788
 5196TIP3    H137223   0.137   6.189   1.695 -0.4569  1.4358 -1.5656
 5196TIP3    H237224   0.256   6.280   1.671  1.3325 -0.5228 -0.4962
 5197TIP3   OH237225   1.766   2.705   7.961  0.1749  0.1857 -0.1841
 5197TIP3    H137226   1.861   2.712   7.956  0.3083 -1.4027 -0.2229
 5197TIP3    H237227   1.744   2.636   7.899 -1.1375  1.2952 -1.0174
 5198TIP3   OH237228   2.240   2.757   1.103  0.4397  0.0612  0.0295
 5198TIP3    H137229   2.316   2.756   1.044 -0.3828  1.0155 -1.1066
 5198TIP3    H237230   2.170   2.794   1.050 -0.2791  1.1993  1.7084
 5199TIP3   OH237231   3.831   4.236   9.411 -0.2851  0.7440  0.2955
 5199TIP3    H137232   3.910   4.259   9.460 -0.1986  1.0413  0.0224
 5199TIP3    H237233   3.830   4.297   9.337 -0.1864  0.0157 -0.3119
 5200TIP3   OH237234   5.504   3.668   1.448  0.1799 -0.2141 -0.2192
 5200TIP3    H137235   5.536   3.643   1.362  1.0427  0.7053 -0.1841
 5200TIP3    H237236   5.480   3.760   1.439 -0.7477 -0.3958  0.2500
 5201TIP3   OH237237   4.735   0.660   7.882 -0.0438 -0.6420 -0.4548
 5201TIP3    H137238   4.672   0.607   7.832 -1.2322 -0.4367  0.7724
 5201TIP3    H237239   4.805   0.677   7.820 -1.7246  0.0988 -2.2712
 5202TIP3   OH237240   2.578   0.576   9.476 -0.5440 -0.3762  0.0252
 5202TIP3    H137241   2.569   0.615   9.389 -0.0142  0.0843  0.1682
 5202TIP3    H237242   2.572   0.650   9.536  4.4953  0.2880  0.1613
 5203TIP3   OH237243   2.360   4.844   2.235  0.6747  0.4294  0.0722
 5203TIP3    H137244   2.418   4.920   2.241  0.2436  0.8440 -0.8097
 5203TIP3    H237245   2.309   4.846   2.316  1.0928  0.7205  0.3325
 5204TIP3   OH237246   2.070   5.779   1.247  0.1689  0.2341 -0.0992
 5204TIP3    H137247   1.978   5.757   1.260  0.4727 -0.5319  0.8670
 5204TIP3    H237248   2.088   5.753   1.156 -0.8011  1.2983 -0.6110
 5205TIP3   OH237249   5.972   2.003   9.974 -0.0512  0.4510  0.3343
 5205TIP3    H137250   5.969   1.964   9.887  0.5140  0.9318  0.0901
 5205TIP3    H237251   5.891   1.974  10.017 -0.0889 -0.2014 -0.1665
 5206TIP3   OH237252   0.169   2.020   3.243  0.1174  0.4206  0.1117
 5206TIP3    H137253   0.231   2.064   3.301  0.4871  1.1596 -0.8037
 5206TIP3    H237254   0.102   1.984   3.301  0.6097  0.9174  1.0041
 5207TIP3   OH237255   5.298   1.930   0.563  0.3483 -0.0176  0.0895
 5207TIP3    H137256   5.387   1.937   0.596  1.0690  0.1147 -1.7610
 5207TIP3    H237257   5.287   1.838   0.540  0.2782  0.0977 -0.3597
 5208TIP3   OH237258   3.442   0.940   0.332  0.3510  0.0664 -0.1451
 5208TIP3    H137259   3.521   0.910   0.287  1.0291  1.0129  0.3716
 5208TIP3    H237260   3.462   0.928   0.425 -0.8815 -1.5146 -0.0335
 5209TIP3   OH237261   3.924   3.746   3.165 -0.0417  0.6942  0.2568
 5209TIP3    H137262   3.920   3.832   3.207 -1.1172  1.3638 -1.1429
 5209TIP3    H237263   3.999   3.751   3.106  0.4925  0.3018  0.8781
 5210TIP3   OH237264   6.197   2.619   8.898  0.4742  0.4859 -0.6234
 5210TIP3    H137265   6.154   2.562   8.834 -1.4906 -1.7340  2.4411
 5210TIP3    H237266   6.139   2.695   8.905  0.2174  0.3071 -0.7920
 5211TIP3   OH237267   0.065   2.305   2.842 -0.3661 -0.3136  0.3143
 5211TIP3    H137268  -0.002   2.240   2.821  1.1944 -1.9878  0.2677
 5211TIP3    H237269   0.070   2.304   2.938  1.0606 -1.8318  0.2655
 5212TIP3   OH237270   6.334   2.487   9.101  0.2437 -0.3150  0.3574
 5212TIP3    H137271   6.408   2.546   9.115  0.4589 -0.1460 -1.3013
 5212TIP3    H237272   6.288   2.523   9.025  1.3173 -3.1225 -1.8055
 5213TIP3   OH237273   1.480   3.308   2.862  0.0567 -0.6089 -0.2317
 5213TIP3    H137274   1.447   3.397   2.865  1.7564  0.1366 -1.3527
 5213TIP3    H237275   1.403   3.253   2.850 -0.7968  1.0674 -3.5413
 5214TIP3   OH237276   0.838   2.601   1.606 -0.3033  0.3416 -0.5367
 5214TIP3    H137277   0.831   2.666   1.536 -1.3203  1.2090  0.3387
 5214TIP3    H237278   0.886   2.645   1.676 -1.0041  0.1589  0.0682
 5215TIP3   OH237279   1.743   6.332   1.752  0.0700 -0.2875  0.0552
 5215TIP3    H137280   1.837   6.320   1.743 -0.0806 -1.0245 -0.6753
 5215TIP3    H237281   1.732   6.422   1.781  1.0175 -0.3431  0.6173
 5216TIP3   OH237282   5.661   3.042   0.353 -0.5895  0.5075  0.8034
 5216TIP3    H137283   5.666   2.968   0.292  2.8417  1.8450 -0.8145
 5216TIP3    H237284   5.592   3.098   0.317 -0.0201  0.2816 -0.7187
 5217TIP3   OH237285   0.361   5.182   1.405  0.1565  0.0292 -0.1430
 5217TIP3    H137286   0.375   5.232   1.325 -0.7151  0.4298 -0.0621
 5217TIP3    H237287   0.435   5.121   1.409  0.6678  0.5852 -0.7998
 5218TIP3   OH237288   5.049   0.533   2.707 -0.2459 -0.3563 -0.0687
 5218TIP3    H137289   5.042   0.524   2.612 -0.7372 -1.1837  0.0349
 5218TIP3    H237290   5.080   0.622   2.720  0.1556 -0.3436 -1.0163
 5219TIP3   OH237291   4.862   5.031   3.671  0.9226 -0.0871  0.4766
 5219TIP3    H137292   4.808   5.056   3.745  0.6132  0.7818 -0.0283
 5219TIP3    H237293   4.856   4.935   3.668 -1.2308  0.0060 -0.0190
 5220TIP3   OH237294   2.576   0.506   1.323 -0.2404 -0.1116  0.8274
 5220TIP3    H137295   2.558   0.527   1.231  0.0637 -0.6961  0.6293
 5220TIP3    H237296   2.492   0.477   1.358 -0.4257  0.4011  0.8181
 5221TIP3   OH237297   4.722   2.422   1.355  0.2006 -0.3097 -0.2033
 5221TIP3    H137298   4.770   2.505   1.362  0.3589 -0.5111  1.4915
 5221TIP3    H237299   4.638   2.446   1.316  0.3907  0.5986 -0.0778
 5222TIP3   OH237300   4.108   5.909   9.431 -0.5786  0.4029  0.3374
 5222TIP3    H137301   4.125   5.993   9.389  0.0086 -0.2648 -0.8244
 5222TIP3    H237302   4.155   5.846   9.377  1.8543 -0.3278  3.0571
 5223TIP3   OH237303   3.929   2.291   0.662 -0.4413 -0.1574  0.0771
 5223TIP3    H137304   3.905   2.262   0.574 -1.6928  1.0025  0.0034
 5223TIP3    H237305   4.011   2.339   0.650  0.3403 -1.5019 -0.1582
 5224TIP3   OH237306   5.654   2.538   3.011 -0.7057  0.0166 -0.4614
 5224TIP3    H137307   5.609   2.458   3.038 -1.3412  0.1022 -1.2132
 5224TIP3    H237308   5.744   2.526   3.039 -0.7085 -1.1304 -0.8952
 5225TIP3   OH237309   0.830   2.884   9.266 -0.5540 -0.3659  0.5194
 5225TIP3    H137310   0.786   2.961   9.228  0.5591 -0.1674 -0.4349
 5225TIP3    H237311   0.780   2.810   9.233  1.2077 -0.3022 -2.7249
 5226TIP3   OH237312   4.263   4.009   2.807  0.1043  0.1749  0.2995
 5226TIP3    H137313   4.176   3.978   2.782 -0.0309  1.2603 -0.6633
 5226TIP3    H237314   4.249   4.098   2.840  0.9484  0.7475 -0.8230
 5227TIP3   OH237315   0.256   1.316   9.970  0.1505 -0.0475  0.8962
 5227TIP3    H137316   0.199   1.246  10.001  2.0617 -1.7514  0.7189
 5227TIP3    H237317   0.340   1.300  10.012  1.5386  0.2774 -1.5581
 5228TIP3   OH237318   3.169   4.499   8.058  0.4171 -0.1658 -0.4301
 5228TIP3    H137319   3.261   4.485   8.081  0.6102  0.6180 -0.7219
 5228TIP3    H237320   3.160   4.594   8.050 -0.8490 -0.0619  1.3967
 5229TIP3   OH237321   3.939   6.261   1.346 -0.4955 -0.0326 -0.0297
 5229TIP3    H137322   3.957   6.194   1.413  1.6103 -0.6579 -1.1326
 5229TIP3    H237323   3.845   6.252   1.328 -0.5384 -1.7555  0.8271
 5230TIP3   OH237324   2.384   6.419   9.494  0.1636  0.0902  0.1667
 5230TIP3    H137325   2.337   6.358   9.550 -0.6287  0.6804  0.1598
 5230TIP3    H237326   2.350   6.402   9.406  0.5364 -0.0146  0.0388
 5231TIP3   OH237327   0.777   1.374   0.865  0.1336 -0.9126  0.0985
 5231TIP3    H137328   0.797   1.420   0.783  2.7294 -1.6582  0.2056
 5231TIP3    H237329   0.756   1.443   0.927 -0.9509 -0.2688 -0.9294
 5232TIP3   OH237330   4.143   2.612   8.807 -0.2677  0.1595 -0.3381
 5232TIP3    H137331   4.132   2.518   8.822  2.4734 -0.1500  0.2870
 5232TIP3    H237332   4.113   2.653   8.888 -1.4355 -0.1359 -0.5974
 5233TIP3   OH237333   3.855   5.991   2.413  0.2013  0.0053  0.2552
 5233TIP3    H137334   3.886   6.028   2.496  3.3459  1.3215 -1.3400
 5233TIP3    H237335   3.777   6.042   2.393  0.3460  0.8268  1.6020
 5234TIP3   OH237336   1.088   0.087   1.351  0.2796  0.4470 -0.1153
 5234TIP3    H137337   1.125   0.173   1.371 -1.9104  1.2536  0.6809
 5234TIP3    H237338   1.009   0.105   1.300 -0.2055 -1.0834  0.0372
 5235TIP3   OH237339   3.618   5.716   2.180 -0.1472 -0.0839  0.4994
 5235TIP3    H137340   3.685   5.695   2.114  0.0774  0.8429  0.4108
 5235TIP3    H237341   3.592   5.806   2.160 -0.4402  0.0393  1.3692
 5236TIP3   OH237342   4.617   2.741   1.442 -0.2165 -0.4077 -0.5474
 5236TIP3    H137343   4.687   2.726   1.506 -1.6280  2.2203  1.9012
 5236TIP3    H237344   4.541   2.694   1.478 -0.5593 -0.4567 -1.3241
 5237TIP3   OH237345   4.428   3.487   9.285  0.5060 -0.0744  0.4023
 5237TIP3    H137346   4.446   3.435   9.363  0.8663  0.9691  1.0192
 5237TIP3    H237347   4.388   3.424   9.224 -2.2523 -0.3574  2.3226
 5238TIP3   OH237348   3.050   4.390   2.275 -0.2570 -0.1614 -0.4113
 5238TIP3    H137349   3.070   4.450   2.203 -1.8173  1.7454  0.6451
 5238TIP3    H237350   3.118   4.407   2.340 -0.2861 -0.0826 -0.4023
 5239TIP3   OH237351   3.609   2.471   8.858  0.2634 -0.3019 -0.0520
 5239TIP3    H137352   3.555   2.541   8.823  1.0529  0.7228  0.7142
 5239TIP3    H237353   3.677   2.458   8.793 -0.6433 -1.3181 -0.8297
 5240TIP3   OH237354   3.999   6.146   8.720  0.1184 -0.6189 -0.2841
 5240TIP3    H137355   4.043   6.063   8.735 -0.6660 -0.6442  2.3002
 5240TIP3    H237356   3.956   6.136   8.635  0.4292 -2.6576 -0.2342
 5241TIP3   OH237357   4.434   4.103   2.617 -0.6689 -0.2614  0.1185
 5241TIP3    H137358   4.374   4.048   2.667  0.3828 -1.6506 -0.1005
 5241TIP3    H237359   4.511   4.048   2.602  0.8677  1.5894  0.7651
 5242TIP3   OH237360   0.668   0.220   8.008  0.0955  0.3269 -0.2868
 5242TIP3    H137361   0.600   0.199   8.072  1.0471 -0.3954  0.5173
 5242TIP3    H237362   0.697   0.308   8.031  0.3541  0.1144  0.2091
 5243TIP3   OH237363   5.441   3.393   1.439 -0.5289  0.4247  0.7020
 5243TIP3    H137364   5.503   3.464   1.458 -0.6846  0.4011  1.3368
 5243TIP3    H237365   5.356   3.428   1.465 -0.5362 -0.1770  1.5487
 5244TIP3   OH237366   4.406   2.642   1.804 -0.4540  0.0517 -0.3666
 5244TIP3    H137367   4.412   2.728   1.765 -1.1101  0.6863  0.8671
 5244TIP3    H237368   4.488   2.598   1.779  1.1534  1.9780  1.1731
 5245TIP3   OH237369   2.384   4.704   3.646 -0.0761 -0.1666  0.2416
 5245TIP3    H137370   2.395   4.756   3.567 -0.9809 -0.1461  0.1179
 5245TIP3    H237371   2.383   4.613   3.615  1.3762 -0.2624  0.4427
 5246TIP3   OH237372   2.479   5.922   9.645 -0.0741  0.0958  0.1859
 5246TIP3    H137373   2.525   5.899   9.725 -0.7167  0.4431  0.6686
 5246TIP3    H237374   2.446   5.838   9.611  0.3248 -0.0692  0.2077
 5247TIP3   OH237375   0.378   1.778   8.590  0.2340  0.0424  0.2903
 5247TIP3    H137376   0.342   1.798   8.677 -1.9030 -0.7779 -0.3442
 5247TIP3    H237377   0.387   1.864   8.548  1.7542  0.4970  1.4473
 5248TIP3   OH237378   0.124   4.641   1.701 -0.2504 -0.3293  0.0080
 5248TIP3    H137379   0.092   4.707   1.763  1.6106  0.5238  0.1058
 5248TIP3    H237380   0.175   4.580   1.754  0.8660  0.0736 -0.5730
 5249TIP3   OH237381   1.488   5.425   0.216  0.2776  0.4549 -0.4199
 5249TIP3    H137382   1.441   5.505   0.191  0.8452  0.8299 -0.3037
 5249TIP3    H237383   1.571   5.456   0.250  0.3211 -0.1663  0.0597
 5250TIP3   OH237384   4.778   2.177   0.948  0.2022 -0.1080  0.1460
 5250TIP3    H137385   4.781   2.252   0.890  2.5596  0.7255  1.2040
 5250TIP3    H237386   4.703   2.193   1.006 -0.8417  0.1102 -1.2350
 5251TIP3   OH237387   1.542   1.741   8.494 -0.2911  0.2831 -0.0370
 5251TIP3    H137388   1.485   1.777   8.425  0.8100  2.2190 -0.0008
 5251TIP3    H237389   1.610   1.693   8.446  2.2577  4.1242 -0.7061
 5252TIP3   OH237390   5.042   2.333   0.750  0.2672  0.2478 -0.1761
 5252TIP3    H137391   5.062   2.402   0.687  0.1003 -0.1778 -0.7035
 5252TIP3    H237392   5.002   2.263   0.697 -0.6229  0.2099  0.5192
 5253TIP3   OH237393   1.737   3.301   2.745  0.4682 -0.0062 -0.9051
 5253TIP3    H137394   1.647   3.311   2.778  0.7664 -1.0231  0.2886
 5253TIP3    H237395   1.727   3.276   2.654 -0.5354 -2.0181 -0.2854
 5254TIP3   OH237396   1.272   1.002   0.879 -0.1704  0.2412  0.4799
 5254TIP3    H137397   1.285   0.948   0.957 -1.6889 -0.3237  0.3681
 5254TIP3    H237398   1.188   1.045   0.893 -1.4824 -1.3875 -1.6559
 5255TIP3   OH237399   2.295   2.559   9.816  0.7754 -0.2594 -0.0201
 5255TIP3    H137400   2.336   2.505   9.884 -1.2400 -0.2669  1.2696
 5255TIP3    H237401   2.266   2.638   9.862  1.1734  0.6873 -1.3171
 5256TIP3   OH237402   5.774   0.841   0.924 -0.3093 -0.2714 -0.1661
 5256TIP3    H137403   5.755   0.882   0.840 -0.9302  0.9639  0.5454
 5256TIP3    H237404   5.866   0.864   0.941  0.4759 -2.2603 -1.4202
 5257TIP3   OH237405   3.967   3.229   9.538  0.1171  0.7021 -0.6725
 5257TIP3    H137406   3.982   3.158   9.601 -1.7120 -1.9746 -3.0299
 5257TIP3    H237407   3.879   3.260   9.559  0.2078  1.0587 -0.8146
 5258TIP3   OH237408   2.285   3.820   0.833  0.1897 -0.3524  0.1083
 5258TIP3    H137409   2.254   3.819   0.742  0.8131  0.0581 -0.1166
 5258TIP3    H237410   2.205   3.811   0.885 -0.4598  1.6809 -0.4374
 5259TIP3   OH237411   3.516   6.362   1.893 -0.4657 -0.4170 -0.6996
 5259TIP3    H137412   3.521   6.268   1.879  1.1932 -0.1470 -2.3727
 5259TIP3    H237413   3.500   6.398   1.805 -2.7940  0.8094  0.1370
 5260TIP3   OH237414   6.286   3.237   8.055 -0.1168 -0.3595  0.3148
 5260TIP3    H137415   6.332   3.167   8.010  0.0242 -0.4747  0.6353
 5260TIP3    H237416   6.228   3.274   7.989 -0.3405 -0.9091  0.1944
 5261TIP3   OH237417   5.670   1.737   9.235  0.6956  0.4677  0.2817
 5261TIP3    H137418   5.645   1.667   9.295  2.4807 -0.4577  0.0165
 5261TIP3    H237419   5.752   1.707   9.196  1.5867  2.7474  0.2214
 5262TIP3   OH237420   4.145   3.410   0.265  0.0433  0.5086  1.0888
 5262TIP3    H137421   4.133   3.456   0.349  0.5079 -0.0540  1.4685
 5262TIP3    H237422   4.208   3.463   0.217  0.8981  0.0639  1.6945
 5263TIP3   OH237423   0.798   0.180   2.207  0.2160 -0.6023  0.5123
 5263TIP3    H137424   0.861   0.252   2.201  1.4616 -1.6894  0.0131
 5263TIP3    H237425   0.767   0.168   2.118  0.1409 -0.7796  0.5627
 5264TIP3   OH237426   3.676   4.439   2.696 -0.2498  0.3928  0.7274
 5264TIP3    H137427   3.688   4.395   2.780  0.3114  0.4423  0.6758
 5264TIP3    H237428   3.724   4.385   2.633 -1.2182 -0.0163  0.3128
 5265TIP3   OH237429   6.069   5.114   8.048  0.7806 -0.1102  0.3516
 5265TIP3    H137430   6.162   5.092   8.053  1.1804  1.2962 -0.4388
 5265TIP3    H237431   6.057   5.147   7.959 -1.0058 -2.4575 -0.3917
 5266TIP3   OH237432   0.827   0.432   1.721 -0.1098  0.5949 -0.0073
 5266TIP3    H137433   0.916   0.427   1.757  0.0667 -0.5828 -0.5645
 5266TIP3    H237434   0.782   0.494   1.778  1.6593  2.9298 -0.9788
 5267TIP3   OH237435   5.840   3.271   0.952 -0.0821 -0.3724  0.0412
 5267TIP3    H137436   5.907   3.292   0.887 -1.2769  0.3348 -1.0095
 5267TIP3    H237437   5.882   3.208   1.011  0.8435 -1.5834 -1.8105
 5268TIP3   OH237438   2.901   4.525   2.064 -0.0084  0.1048  0.3078
 5268TIP3    H137439   2.879   4.559   1.978 -3.0580 -1.1631  0.4674
 5268TIP3    H237440   2.889   4.599   2.124 -2.3219 -0.0907  0.1418
 5269TIP3   OH237441   1.106   4.028   0.373 -0.4220  0.0936  0.3746
 5269TIP3    H137442   1.132   3.984   0.293 -1.2280 -1.1421  0.7537
 5269TIP3    H237443   1.013   4.049   0.360 -1.4388 -2.8330  2.0615
 5270TIP3   OH237444   4.259   4.500   3.170 -0.0972  0.0217 -0.2589
 5270TIP3    H137445   4.199   4.574   3.161  3.4548  3.0502 -1.7715
 5270TIP3    H237446   4.264   4.484   3.264 -0.9441  1.7677  0.1235
 5271TIP3   OH237447   4.526   1.858   8.994 -0.1713 -0.4880 -0.7307
 5271TIP3    H137448   4.542   1.839   8.902 -0.6809  0.3425 -0.9950
 5271TIP3    H237449   4.433   1.839   9.006 -0.2458  0.0085 -0.5330
 5272TIP3   OH237450   4.090   5.170   2.947 -0.5007 -0.2161 -0.5487
 5272TIP3    H137451   4.160   5.188   2.884 -1.0970  0.6897 -0.9704
 5272TIP3    H237452   4.099   5.239   3.013 -0.6228 -0.4587 -0.2753
 5273TIP3   OH237453   5.721   0.617   8.726  0.1263 -0.0430  0.1681
 5273TIP3    H137454   5.677   0.625   8.642 -1.0076  0.8337  0.8170
 5273TIP3    H237455   5.814   0.614   8.704 -0.1495  0.2080 -1.1125
 5274TIP3   OH237456   0.655   5.072   1.711  0.2615 -0.0914  0.3928
 5274TIP3    H137457   0.735   5.023   1.730 -0.3544 -0.5949  1.7840
 5274TIP3    H237458   0.687   5.154   1.672  1.4885 -0.1271  1.2390
 5275TIP3   OH237459   4.078   0.303   0.910  0.5059  0.1294 -0.6811
 5275TIP3    H137460   4.037   0.386   0.933  0.0038  0.1288 -1.5216
 5275TIP3    H237461   4.110   0.268   0.993 -0.4425  0.5370 -0.1212
 5276TIP3   OH237462   3.332   3.688   1.229 -0.4381 -0.0289  0.1062
 5276TIP3    H137463   3.309   3.622   1.163 -0.9091 -0.7418  0.9751
 5276TIP3    H237464   3.311   3.772   1.187  0.4847 -0.3868 -1.1364
 5277TIP3   OH237465   5.825   4.310   0.633 -0.0586  0.1842  0.0774
 5277TIP3    H137466   5.777   4.235   0.668 -1.6530 -0.3039 -2.7779
 5277TIP3    H237467   5.799   4.383   0.688 -4.2634 -0.0751 -1.2352
 5278TIP3   OH237468   5.004   2.013   8.330  0.1743  0.2411  0.0102
 5278TIP3    H137469   5.017   2.097   8.375  2.6916  0.6556 -1.3351
 5278TIP3    H237470   4.909   2.003   8.326 -0.1821  2.3224  1.4508
 5279TIP3   OH237471   4.240   1.412   8.587  0.4180  0.1194 -0.2698
 5279TIP3    H137472   4.310   1.360   8.547 -0.5709 -1.0685 -0.5011
 5279TIP3    H237473   4.205   1.355   8.656 -1.7750 -0.2274 -1.6082
 5280TIP3   OH237474   1.671   4.119   9.239  0.6024  0.0372 -0.5129
 5280TIP3    H137475   1.602   4.126   9.306  1.0716  2.4288 -0.2015
 5280TIP3    H237476   1.751   4.143   9.285  1.3539 -0.7705 -1.3643
 5281TIP3   OH237477   1.542   0.550   8.741 -0.7970 -0.5647  0.3923
 5281TIP3    H137478   1.469   0.610   8.724  0.3722  0.6436 -0.5818
 5281TIP3    H237479   1.537   0.533   8.835 -1.8224  0.1644  0.4963
 5282TIP3   OH237480   4.540   3.993   9.723  0.2243 -0.0765  0.2226
 5282TIP3    H137481   4.505   3.984   9.634 -0.1256  0.9226  0.2514
 5282TIP3    H237482   4.633   4.011   9.709  0.3810 -0.9289  0.0976
 5283TIP3   OH237483   5.447   4.482   9.895 -0.0507  0.2978 -0.0301
 5283TIP3    H137484   5.524   4.481   9.952 -0.4146 -0.8782  0.4693
 5283TIP3    H237485   5.480   4.512   9.810  0.6633  1.2181  0.5669
 5284TIP3   OH237486   1.058   0.155   9.828 -0.0089  0.0942 -0.6717
 5284TIP3    H137487   1.091   0.242   9.806 -1.6241  1.1134  0.6968
 5284TIP3    H237488   1.031   0.162   9.920 -0.8627 -1.6305 -0.7558
 5285TIP3   OH237489   1.052   3.921   8.247 -0.4095  0.0112  0.3170
 5285TIP3    H137490   1.069   3.900   8.155 -0.2013  0.3012  0.2893
 5285TIP3    H237491   0.966   3.882   8.264 -0.6021  0.2502 -0.0975
 5286TIP3   OH237492   1.709   3.640   9.913 -0.7152 -0.3785 -0.0757
 5286TIP3    H137493   1.707   3.556   9.959 -1.3008 -0.7158 -0.7136
 5286TIP3    H237494   1.695   3.618   9.821  0.7262  0.2597 -0.4857
 5287TIP3   OH237495   6.268   1.523   1.956 -0.2866 -0.4779 -0.0160
 5287TIP3    H137496   6.177   1.554   1.950 -0.2794  0.0073  1.7862
 5287TIP3    H237497   6.264   1.452   2.020  0.5903 -0.5585 -0.0476
 5288TIP3   OH237498   3.600   4.746   3.018 -0.6219  0.1991  0.0753
 5288TIP3    H137499   3.546   4.807   2.966  0.4408  0.6556 -0.5180
 5288TIP3    H237500   3.567   4.659   2.995  0.9571  0.2340 -2.8074
 5289TIP3   OH237501   1.834   0.708   9.619  0.4278 -0.8586  0.0082
 5289TIP3    H137502   1.923   0.716   9.653  0.2318 -0.8082  0.5183
 5289TIP3    H237503   1.820   0.614   9.611  0.5098 -0.8682 -0.0266
 5290TIP3   OH237504   0.043   2.569   8.321  0.4947  0.4634 -0.5226
 5290TIP3    H137505   0.085   2.508   8.382 -1.0728 -0.3090 -0.1495
 5290TIP3    H237506   0.075   2.543   8.235  1.4479  0.4798 -0.1805
 5291TIP3   OH237507   0.302   4.754   1.173  0.0753  0.4355 -0.0052
 5291TIP3    H137508   0.371   4.690   1.188  1.2951  1.5435 -0.6156
 5291TIP3    H237509   0.249   4.753   1.253  0.0566 -1.3034 -0.0161
 5292TIP3   OH237510   1.524   4.835   3.047  0.0340  0.2308 -0.5951
 5292TIP3    H137511   1.527   4.819   3.141  2.0384 -0.6684 -0.7632
 5292TIP3    H237512   1.608   4.804   3.015 -1.0751 -0.6522 -2.8786
 5293TIP3   OH237513   6.195   4.216   0.815 -0.0548 -0.1448  0.5438
 5293TIP3    H137514   6.185   4.290   0.755 -0.7460 -0.2461  0.5241
 5293TIP3    H237515   6.289   4.208   0.828  0.0472  0.4932  0.2387
 5294TIP3   OH237516   6.306   1.029   0.969  0.0612  0.0569  0.1714
 5294TIP3    H137517   6.284   0.982   1.049  0.1700  0.7260  0.6088
 5294TIP3    H237518   6.400   1.013   0.958  0.3180  0.9634  0.8779
 5295TIP3   OH237519   5.126   4.551   0.971 -0.2855 -0.8710  0.3791
 5295TIP3    H137520   5.126   4.626   0.912  0.3245 -1.9374 -1.0330
 5295TIP3    H237521   5.170   4.583   1.050  1.1485 -0.0780 -0.6828
 5296TIP3   OH237522   0.579   4.305   9.462 -0.1036  0.1151  0.3093
 5296TIP3    H137523   0.508   4.367   9.446  0.2900  0.9228  1.5713
 5296TIP3    H237524   0.535   4.221   9.473 -1.0317  0.8198  2.4317
 5297TIP3   OH237525   2.210   5.638   2.398  0.2385  0.3368 -0.3425
 5297TIP3    H137526   2.239   5.605   2.313  0.1281 -0.9031  0.0737
 5297TIP3    H237527   2.291   5.648   2.449  0.2478  0.4327 -0.3760
 5298TIP3   OH237528   5.330   1.335   8.810 -0.2672  0.0231 -0.1196
 5298TIP3    H137529   5.394   1.316   8.743 -0.9232  0.5775 -0.9235
 5298TIP3    H237530   5.332   1.431   8.820 -0.0152 -0.0709  0.8089
 5299TIP3   OH237531   5.750   0.912   7.911 -0.4004 -0.6001  0.2482
 5299TIP3    H137532   5.768   0.818   7.902  0.2692 -0.5841  1.3183
 5299TIP3    H237533   5.667   0.916   7.960 -0.5967 -0.6313 -0.0791
 5300TIP3   OH237534   1.295   3.872   3.122 -0.0374  0.0980 -0.1961
 5300TIP3    H137535   1.347   3.922   3.060 -2.1711 -0.4510 -2.6248
 5300TIP3    H237536   1.262   3.937   3.184  0.5294  1.0406 -0.8600
 5301TIP3   OH237537   4.192   2.019   1.288 -0.1217 -0.2356 -0.1670
 5301TIP3    H137538   4.279   1.980   1.283  0.6925  1.6018 -1.4070
 5301TIP3    H237539   4.158   2.013   1.199 -0.5182  0.6396 -0.0829
 5302TIP3   OH237540   0.345   2.726   2.294 -0.4044 -0.0670  0.2398
 5302TIP3    H137541   0.269   2.750   2.240  0.4843 -0.8971 -1.4416
 5302TIP3    H237542   0.409   2.795   2.276 -0.1206 -0.3175  0.2982
 5303TIP3   OH237543   1.653   4.169   9.549 -0.5382  0.0030  0.6231
 5303TIP3    H137544   1.710   4.219   9.491 -1.1261  0.2576  0.2463
 5303TIP3    H237545   1.689   4.081   9.549  0.1142  0.2658  0.7540
 5304TIP3   OH237546   5.065   3.833   9.290 -0.1325 -0.2669  0.1660
 5304TIP3    H137547   5.134   3.783   9.245 -1.1048 -1.5636  0.0358
 5304TIP3    H237548   4.996   3.843   9.224  0.4295  2.1736 -0.1238
 5305TIP3   OH237549   0.413   3.996   1.745  0.1285 -0.3297 -0.1604
 5305TIP3    H137550   0.468   4.039   1.680 -0.3497 -1.4944 -1.3817
 5305TIP3    H237551   0.453   3.910   1.758 -0.2521 -0.4206  0.4600
 5306TIP3   OH237552   5.269   2.527   0.761  0.3644 -0.2845  0.2519
 5306TIP3    H137553   5.220   2.527   0.679  1.5166 -1.9485 -0.4745
 5306TIP3    H237554   5.201   2.530   0.829 -0.6320  0.1386 -0.7333
 5307TIP3   OH237555   0.105   0.754   2.197  0.3454  0.2434 -0.0338
 5307TIP3    H137556   0.163   0.698   2.248  2.1288  1.7701 -0.2442
 5307TIP3    H237557   0.140   0.750   2.108 -1.3310 -0.6106 -0.6940
 5308TIP3   OH237558   5.118   5.894   0.209  0.5610  0.5251  0.8877
 5308TIP3    H137559   5.059   5.879   0.283  0.0423  1.1822  0.6159
 5308TIP3    H237560   5.196   5.843   0.230  0.4650  0.7814  1.9415
 5309TIP3   OH237561   6.028   0.314   2.020  0.5346  0.3009 -0.0740
 5309TIP3    H137562   6.101   0.369   1.991 -0.9369  2.2854 -0.2844
 5309TIP3    H237563   5.996   0.358   2.099 -0.8577 -0.1083 -0.3804
 5310TIP3   OH237564   0.723   6.168   1.650 -0.2261  0.2298  0.2848
 5310TIP3    H137565   0.724   6.261   1.628  0.3278  1.1361  3.6123
 5310TIP3    H237566   0.631   6.148   1.667 -0.2047  0.5740  0.8587
 5311TIP3   OH237567   3.626   5.793   1.046  0.2524 -0.2571 -0.0157
 5311TIP3    H137568   3.581   5.781   1.129 -0.2968  1.1681 -0.0934
 5311TIP3    H237569   3.566   5.756   0.981  0.2250 -0.4293  0.1066
 5312TIP3   OH237570   6.198   4.155   1.611 -0.2017 -0.1359 -0.3262
 5312TIP3    H137571   6.162   4.093   1.676 -1.6194  0.6731 -0.3133
 5312TIP3    H237572   6.232   4.099   1.541 -2.4433 -0.9570 -0.8362
 5313TIP3   OH237573   0.758   0.019   9.743  0.4914 -0.1914  0.2577
 5313TIP3    H137574   0.821   0.038   9.812  0.4855 -1.7573  0.7325
 5313TIP3    H237575   0.750   0.101   9.694  3.4375 -0.1300 -0.2877
 5314TIP3   OH237576   4.276   0.902   9.573 -0.1659  0.6818 -0.7435
 5314TIP3    H137577   4.268   0.996   9.586 -1.0327  0.5378 -0.0920
 5314TIP3    H237578   4.187   0.873   9.550  0.2101  0.1023 -1.5238
 5315TIP3   OH237579   0.389   4.879   2.056  0.3260 -0.2377  1.1594
 5315TIP3    H137580   0.415   4.820   2.126  0.7366 -1.4688  0.0144
 5315TIP3    H237581   0.470   4.899   2.009 -0.2450 -1.4674 -0.4622
 5316TIP3   OH237582   6.281   1.915   0.647  0.0119 -0.0588 -0.2542
 5316TIP3    H137583   6.353   1.974   0.625 -0.7535  1.2023  0.5006
 5316TIP3    H237584   6.210   1.973   0.674 -0.9896 -1.3118 -0.1012
 5317TIP3   OH237585   0.645   1.739   0.327  0.1245  0.3337 -0.0372
 5317TIP3    H137586   0.733   1.768   0.302 -0.5334 -0.1750 -3.4082
 5317TIP3    H237587   0.587   1.788   0.269 -1.4778 -2.7009 -1.1818
 5318TIP3   OH237588   4.271   1.174   9.579 -0.1205 -0.3851  0.2849
 5318TIP3    H137589   4.219   1.236   9.527  1.1398 -1.9539 -3.1561
 5318TIP3    H237590   4.359   1.179   9.542  0.4433 -2.9187  1.0847
 5319TIP3   OH237591   3.685   0.778   2.126  0.7195 -0.3024  0.5079
 5319TIP3    H137592   3.748   0.847   2.148  0.9491 -0.6268  0.8742
 5319TIP3    H237593   3.738   0.707   2.091  0.7295 -1.1019  2.0376
 5320TIP3   OH237594   5.830   3.242   0.452  0.4328 -0.4367 -0.0245
 5320TIP3    H137595   5.845   3.293   0.372 -0.2490 -0.6958 -0.3299
 5320TIP3    H237596   5.785   3.163   0.421  1.3074 -1.1467  0.4585
 5321TIP3   OH237597   2.357   4.021   2.116 -0.2553 -0.5577 -0.5227
 5321TIP3    H137598   2.393   4.028   2.027  1.0084 -0.6173 -0.0327
 5321TIP3    H237599   2.404   3.948   2.155 -1.3872 -1.0650 -0.0518
 5322TIP3   OH237600   2.248   0.365   9.234 -0.1031 -0.5513 -0.3889
 5322TIP3    H137601   2.313   0.312   9.281 -0.1927 -0.3666 -0.0562
 5322TIP3    H237602   2.212   0.424   9.301  0.8995  0.8083 -1.0087
 5323TIP3   OH237603   1.820   5.042   1.360 -0.3733  0.6096  0.3509
 5323TIP3    H137604   1.865   5.126   1.370  0.0447  0.3909  0.3598
 5323TIP3    H237605   1.750   5.058   1.297  0.2130  0.7703 -0.2666
 5324TIP3   OH237606   6.236   3.981   2.598 -0.2677 -0.0651  0.1255
 5324TIP3    H137607   6.273   4.062   2.561  0.2147 -0.2564  0.1781
 5324TIP3    H237608   6.181   4.010   2.671  0.2053  0.1910  0.3828
 5325TIP3   OH237609   4.287   1.396   2.655  0.2369 -0.3449  0.1448
 5325TIP3    H137610   4.250   1.484   2.660  0.8349 -0.1344  0.9879
 5325TIP3    H237611   4.349   1.391   2.728  1.9539 -0.6518 -1.2669
 5326TIP3   OH237612   5.368   0.296   9.192 -0.2301  0.1221  0.1686
 5326TIP3    H137613   5.303   0.349   9.146  1.1072  0.8604 -0.9328
 5326TIP3    H237614   5.325   0.271   9.274 -2.8328 -1.4907 -1.5299
 5327TIP3   OH237615   5.133   0.456   2.970  0.3469  0.0351 -0.3139
 5327TIP3    H137616   5.223   0.426   2.954  0.4925  0.0097  0.5267
 5327TIP3    H237617   5.107   0.498   2.888  1.9818  2.1817  0.1771
 5328TIP3   OH237618   3.045   4.089   1.335 -0.1684 -0.3193  0.1662
 5328TIP3    H137619   3.057   4.100   1.241 -0.0373  0.2717  0.2474
 5328TIP3    H237620   3.082   4.003   1.355 -1.6351 -1.1466 -0.5757
 5329TIP3   OH237621   4.449   2.838   2.340 -0.3429  0.4870  0.3194
 5329TIP3    H137622   4.524   2.809   2.287  0.2264 -0.0848  1.4018
 5329TIP3    H237623   4.483   2.911   2.391 -0.3002 -0.2134  1.3243
 5330TIP3   OH237624   2.853   2.641   3.356 -0.3922 -0.0169 -0.2045
 5330TIP3    H137625   2.833   2.622   3.447 -0.2738 -1.7985 -0.5049
 5330TIP3    H237626   2.941   2.604   3.342 -0.1232  0.8308 -0.8665
 5331TIP3   OH237627   0.685   4.971   3.054  0.3939  0.2049 -0.3322
 5331TIP3    H137628   0.645   5.021   3.126  0.1846 -0.7764  0.2418
 5331TIP3    H237629   0.762   5.022   3.031 -0.0255  1.0079 -0.0171
 5332TIP3   OH237630   5.284   4.177   2.588  0.6580 -0.0787 -0.1780
 5332TIP3    H137631   5.321   4.103   2.541  0.3827 -0.5527  0.3278
 5332TIP3    H237632   5.192   4.178   2.563 -0.0507 -1.7414  2.0067
 5333TIP3   OH237633   3.813   2.358   0.298 -0.5095 -0.3230  0.5188
 5333TIP3    H137634   3.761   2.355   0.218 -0.4194 -0.2739  0.4584
 5333TIP3    H237635   3.866   2.437   0.290 -0.1662 -0.5592  0.4190
 5334TIP3   OH237636   5.010   0.106   9.490 -0.2526 -0.2035 -0.3545
 5334TIP3    H137637   4.921   0.101   9.524 -0.6201  3.3532 -0.4399
 5334TIP3    H237638   5.065   0.109   9.568 -0.2067 -1.7577 -0.2968
 5335TIP3   OH237639   4.648   4.487   1.750 -0.1170  0.7008  0.9026
 5335TIP3    H137640   4.646   4.424   1.678 -0.3773 -1.1363  2.4408
 5335TIP3    H237641   4.684   4.567   1.711  1.4157 -0.7473 -0.8572
 5336TIP3   OH237642   6.147   0.628   0.569  0.2374 -0.4776 -0.1689
 5336TIP3    H137643   6.116   0.547   0.529 -0.9885  0.5383 -1.3517
 5336TIP3    H237644   6.070   0.665   0.612  0.6023  0.3955 -0.2431
 5337TIP3   OH237645   0.663   1.913   8.378  0.1423  0.4305  0.0323
 5337TIP3    H137646   0.581   1.959   8.393 -0.9678 -1.7601  1.2238
 5337TIP3    H237647   0.657   1.881   8.288 -0.3754  0.1795  0.1540
 5338TIP3   OH237648   5.825   4.831   2.246 -0.2248 -0.2267  0.2785
 5338TIP3    H137649   5.897   4.852   2.305  0.0133  2.4063 -0.8406
 5338TIP3    H237650   5.747   4.862   2.292 -0.2201  0.2940 -0.0568
 5339TIP3   OH237651   2.044   3.515   9.975 -0.3947  0.2130  0.8009
 5339TIP3    H137652   1.955   3.492  10.003  0.0988  1.7518  4.0217
 5339TIP3    H237653   2.071   3.583  10.035  2.9720 -0.0852 -0.1918
 5340TIP3   OH237654   1.029   0.795   1.689 -0.3960  0.2170  0.5986
 5340TIP3    H137655   1.053   0.741   1.614 -0.7835 -0.1406  0.7248
 5340TIP3    H237656   1.003   0.879   1.650 -1.0507 -0.1203  0.2831
 5341TIP3   OH237657   5.456   3.502   0.675  0.0693  0.3494  0.1011
 5341TIP3    H137658   5.387   3.566   0.655  0.7642  0.8825 -0.6539
 5341TIP3    H237659   5.478   3.465   0.589  1.6397  1.1411  0.1358
 5342TIP3   OH237660   3.511   2.973   3.575 -0.3007 -0.0883 -0.4980
 5342TIP3    H137661   3.557   2.894   3.602  2.0579  1.6653  1.0691
 5342TIP3    H237662   3.462   3.000   3.653  1.3481  1.5457  0.0351
 5343TIP3   OH237663   1.919   1.349   9.857 -0.7037 -0.3108  0.2671
 5343TIP3    H137664   1.977   1.291   9.907 -3.6006 -1.6759  2.3668
 5343TIP3    H237665   1.881   1.292   9.790 -0.5927  0.2515 -0.2818
 5344TIP3   OH237666   1.765   4.272   7.651  0.4639  0.3583 -0.0717
 5344TIP3    H137667   1.680   4.241   7.621  0.5157  0.9710 -0.8873
 5344TIP3    H237668   1.745   4.323   7.730  0.4729 -2.4232  1.8852
 5345TIP3   OH237669   0.325   4.500   0.844 -0.1467 -0.1329 -0.5094
 5345TIP3    H137670   0.344   4.417   0.888 -1.5870 -0.1460  0.1610
 5345TIP3    H237671   0.281   4.475   0.763 -0.5753 -0.0407 -0.3106
 5346TIP3   OH237672   3.968   2.078   8.439 -0.1099  0.5713 -0.1694
 5346TIP3    H137673   3.983   2.030   8.358  0.7038  1.2175 -0.4207
 5346TIP3    H237674   3.985   2.170   8.416  0.0946  0.7667  0.7129
 5347TIP3   OH237675   2.046   5.683   8.405  0.3523 -0.2777 -0.0694
 5347TIP3    H137676   2.063   5.729   8.323 -1.4318 -0.2456 -0.4563
 5347TIP3    H237677   1.954   5.701   8.424  1.1196  1.1431  2.8450
 5348TIP3   OH237678   5.815   3.809   0.530  0.4347 -0.0953  0.2781
 5348TIP3    H137679   5.767   3.754   0.592 -0.4096  0.0342 -0.2602
 5348TIP3    H237680   5.879   3.855   0.585 -1.5514  1.4738  1.3848
 5349TIP3   OH237681   0.199   3.794   8.739  0.2769  0.2779 -0.1829
 5349TIP3    H137682   0.106   3.794   8.718 -0.0797 -0.6891  1.3068
 5349TIP3    H237683   0.208   3.859   8.809  0.6105 -0.1065  0.1357
 5350TIP3   OH237684   4.651   3.360   2.076  0.3652  0.5301 -0.1847
 5350TIP3    H137685   4.624   3.411   2.152 -0.2942 -0.8468  0.5493
 5350TIP3    H237686   4.572   3.314   2.048  1.2994 -1.5952  0.4279
 5351TIP3   OH237687   5.311   5.472   8.062  0.5303  0.5555  0.5200
 5351TIP3    H137688   5.338   5.555   8.024 -0.2900 -0.4032 -2.3917
 5351TIP3    H237689   5.259   5.430   7.994 -0.7528 -1.5157  2.6259
 5352TIP3   OH237690   1.827   1.336   9.092 -0.1869  0.2024 -0.1393
 5352TIP3    H137691   1.834   1.387   9.173 -0.0206 -0.8437  0.5331
 5352TIP3    H237692   1.734   1.336   9.071 -0.3460 -0.2075  0.5290
 5353TIP3   OH237693   3.240   6.258   9.912 -0.4117 -0.0892  0.1953
 5353TIP3    H137694   3.286   6.221   9.837 -0.5430 -0.6952  0.4031
 5353TIP3    H237695   3.169   6.310   9.874  0.2551  0.6118 -0.1183
 5354TIP3   OH237696   1.449   2.994   8.363 -0.0094  0.2511 -0.1354
 5354TIP3    H137697   1.400   3.012   8.283  2.2139  1.1329 -1.3986
 5354TIP3    H237698   1.510   2.924   8.339  0.6989  0.5351  0.7659
 5355TIP3   OH237699   0.511   5.419   8.006 -0.2497 -0.3828  0.0895
 5355TIP3    H137700   0.492   5.501   7.961  0.0720  0.1736  0.9447
 5355TIP3    H237701   0.582   5.379   7.956  0.4897  0.4966  0.4325
 5356TIP3   OH237702   1.564   3.234   9.388 -0.0258 -0.5355 -0.5352
 5356TIP3    H137703   1.612   3.178   9.449 -0.4692  0.8763  1.1903
 5356TIP3    H237704   1.476   3.197   9.386 -0.1233 -0.3457  0.0283
 5357TIP3   OH237705   5.630   5.651   9.167  0.4488  0.3444 -0.4451
 5357TIP3    H137706   5.710   5.701   9.154  1.3083 -1.1935 -1.4239
 5357TIP3    H237707   5.562   5.717   9.180  1.8634  1.6897  0.4796
 5358TIP3   OH237708   6.099   0.525   0.205  0.8236  0.4642  0.1601
 5358TIP3    H137709   6.142   0.519   0.291  1.7924  1.1693 -0.2477
 5358TIP3    H237710   6.089   0.434   0.177 -1.6416  0.0656  2.0052
 5359TIP3   OH237711   6.280   4.181   0.523 -0.1956 -0.5062 -0.0733
 5359TIP3    H137712   6.316   4.232   0.451 -1.7147  1.5400  0.4946
 5359TIP3    H237713   6.201   4.229   0.549  1.2474 -0.0097  4.1956
 5360TIP3   OH237714   5.225   4.845   3.709  0.3423  0.2809 -0.3273
 5360TIP3    H137715   5.172   4.894   3.772  0.1260  1.5185 -1.4214
 5360TIP3    H237716   5.226   4.755   3.743 -1.6633  0.4173  0.2323
 5361TIP3   OH237717   0.650   1.847   8.130  0.1566 -0.0972 -0.1877
 5361TIP3    H137718   0.670   1.937   8.105  0.8072 -0.2884 -0.3778
 5361TIP3    H237719   0.577   1.821   8.074  0.4532  0.0662 -0.6543
 5362TIP3   OH237720   5.676   3.928   9.237  0.3972 -0.5408 -0.1126
 5362TIP3    H137721   5.623   4.001   9.204  1.0494 -0.1522 -0.3109
 5362TIP3    H237722   5.617   3.881   9.297 -0.0874  0.0328 -0.1292
 5363TIP3   OH237723   2.327   0.523   8.180  0.0303 -0.2730 -0.3057
 5363TIP3    H137724   2.422   0.528   8.177  0.0403 -0.4077 -0.2032
 5363TIP3    H237725   2.305   0.545   8.271 -0.0654  0.2599 -0.4535
 5364TIP3   OH237726   4.171   0.759   9.224  0.4552  0.4526  0.0274
 5364TIP3    H137727   4.129   0.707   9.156  1.9702 -0.3771 -0.3167
 5364TIP3    H237728   4.105   0.823   9.249 -0.9653 -0.7470 -0.5249
 5365TIP3   OH237729   3.617   4.702   3.816 -0.5047 -0.3619 -0.5297
 5365TIP3    H137730   3.703   4.720   3.779 -0.4989 -0.2489 -0.4603
 5365TIP3    H237731   3.603   4.771   3.880  0.6499 -2.0090  1.6566
 5366TIP3   OH237732   6.369   5.944  10.008 -0.5548 -0.5857 -0.5081
 5366TIP3    H137733   6.379   6.034  10.040  0.9663 -0.9567  0.1828
 5366TIP3    H237734   6.374   5.952   9.913  0.3356  0.0122 -0.4323
 5367TIP3   OH237735   0.444   5.938   7.550 -0.0824  0.5510 -0.5272
 5367TIP3    H137736   0.426   6.026   7.517 -2.1632  0.3226 -0.1308
 5367TIP3    H237737   0.445   5.883   7.471  0.9516  0.8508 -0.7468
 5368TIP3   OH237738   1.085   3.829   9.814  0.4400 -0.3286  0.0585
 5368TIP3    H137739   1.086   3.766   9.887 -0.9439 -2.7692 -1.8822
 5368TIP3    H237740   1.165   3.809   9.765 -0.1201 -0.7697 -0.6919
 5369TIP3   OH237741   5.777   2.669   8.232  0.6767 -0.3939  0.5232
 5369TIP3    H137742   5.739   2.593   8.189  0.0990  0.0816  0.1687
 5369TIP3    H237743   5.706   2.704   8.286  0.3874  0.8584 -0.6082
 5370TIP3   OH237744   3.835   5.075   9.881  0.2917 -0.4686  0.0836
 5370TIP3    H137745   3.893   5.103   9.951  1.0545 -2.1147  0.1735
 5370TIP3    H237746   3.747   5.076   9.919  0.3202  1.3772  0.1606
 5371TIP3   OH237747   4.379   0.333   1.258  0.0557 -0.2082 -0.2780
 5371TIP3    H137748   4.420   0.405   1.210  0.8558  0.5039  1.3827
 5371TIP3    H237749   4.361   0.369   1.345 -1.5515 -1.3786 -0.0791
 5372TIP3   OH237750   1.526   0.439   1.729 -0.1103  0.4477  0.2938
 5372TIP3    H137751   1.600   0.493   1.701  1.0312 -1.3985 -0.4483
 5372TIP3    H237752   1.567   0.365   1.775 -1.4688 -0.7626 -0.3641
 5373TIP3   OH237753   0.629   0.601   6.709  0.9501 -0.3206  0.6129
 5373TIP3    H137754   0.672   0.642   6.784  1.9149 -1.3211  0.6316
 5373TIP3    H237755   0.623   0.508   6.733 -0.9139 -0.2839  0.4440
 5374TIP3   OH237756   3.424   0.179   2.239  0.2804 -0.3044 -0.4941
 5374TIP3    H137757   3.437   0.192   2.145  1.2066  0.0835 -0.3217
 5374TIP3    H237758   3.486   0.110   2.263  2.0914  1.5057  0.3332
 5375TIP3   OH237759   6.406   6.020   8.904  0.2476  0.3136  0.5170
 5375TIP3    H137760   6.404   5.992   8.813  0.7209 -0.6352  0.7802
 5375TIP3    H237761   6.434   5.942   8.953  1.5013  1.2061  1.3058
 5376TIP3   OH237762   2.764   4.153   1.273  0.2551 -0.3172 -0.4024
 5376TIP3    H137763   2.709   4.182   1.346  1.2374 -0.8344  0.5782
 5376TIP3    H237764   2.853   4.157   1.308  0.6570 -1.5995 -1.2219
 5377TIP3   OH237765   2.988   4.919   1.213  0.0039  0.0004  0.1352
 5377TIP3    H137766   3.068   4.879   1.180 -0.4709 -1.4019  0.5881
 5377TIP3    H237767   3.017   4.998   1.258  1.1753 -0.6543  0.5676
 5378TIP3   OH237768   3.532   1.746   0.160  0.1231  0.4723  0.7708
 5378TIP3    H137769   3.590   1.737   0.085 -0.9575 -0.0730 -0.0375
 5378TIP3    H237770   3.490   1.660   0.167  0.5605  0.3488  2.3208
 5379TIP3   OH237771   4.093   6.411   9.865 -0.1114 -0.0411 -0.2458
 5379TIP3    H137772   4.014   6.382   9.820 -1.8315  1.3606  1.7352
 5379TIP3    H237773   4.078   6.504   9.884  2.0058  0.2676  0.2267
 5380TIP3   OH237774   0.870   0.518   8.269  0.1467 -0.4066 -0.4336
 5380TIP3    H137775   0.902   0.599   8.229 -0.6427  0.6982  1.0605
 5380TIP3    H237776   0.811   0.481   8.204  0.2656  0.4010 -1.0146
 5381TIP3   OH237777   4.352   1.180   1.594  0.0113  0.0425  0.3559
 5381TIP3    H137778   4.414   1.160   1.664  0.9429 -1.3084 -0.7941
 5381TIP3    H237779   4.404   1.223   1.527 -0.4318 -0.4222 -0.3081
 5382TIP3   OH237780   0.708   5.306   8.266 -0.4134 -0.2006  0.1466
 5382TIP3    H137781   0.633   5.250   8.288 -0.4834 -0.1001  0.1671
 5382TIP3    H237782   0.758   5.312   8.348 -1.0878  0.8076  0.5090
 5383TIP3   OH237783   4.256   5.090   2.492  0.3259 -0.1854 -0.5475
 5383TIP3    H137784   4.187   5.146   2.458 -0.8255 -0.8850  0.5196
 5383TIP3    H237785   4.331   5.107   2.436 -0.5203  1.0749 -1.3492
 5384TIP3   OH237786   2.967   0.761   0.920  0.0981  0.1857 -0.9396
 5384TIP3    H137787   2.925   0.679   0.945  0.1732  0.4742  0.2083
 5384TIP3    H237788   3.048   0.735   0.877  2.1330 -0.4129  2.8910
 5385TIP3   OH237789   2.581   2.312   0.873  0.7447  0.2325  0.1891
 5385TIP3    H137790   2.581   2.248   0.944 -1.0798 -0.4362 -0.3411
 5385TIP3    H237791   2.660   2.293   0.823  0.2119 -1.7062  0.0055
 5386TIP3   OH237792   3.488   2.512   9.158  0.3990 -0.0147 -0.1515
 5386TIP3    H137793   3.538   2.573   9.213  0.6703  0.4950 -0.9396
 5386TIP3    H237794   3.552   2.481   9.094 -0.6223  1.9646 -2.2688
 5387TIP3   OH237795   3.926   0.754   0.096 -0.4574  0.2861 -0.2017
 5387TIP3    H137796   3.870   0.677   0.091  0.4955 -0.3626 -1.5442
 5387TIP3    H237797   4.013   0.719   0.118  0.2037  0.8127 -1.8033
 5388TIP3   OH237798   2.741   0.763   0.571  0.0946  0.1885  0.1570
 5388TIP3    H137799   2.699   0.679   0.590  0.4582 -0.4658 -1.6821
 5388TIP3    H237800   2.823   0.761   0.619 -0.1787 -0.2452  0.6084
 5389TIP3   OH237801   2.616   1.984   8.964 -0.0053 -0.7361 -0.0702
 5389TIP3    H137802   2.692   1.943   9.007 -0.5710 -2.8178 -0.9161
 5389TIP3    H237803   2.627   2.077   8.980  1.6396 -1.1515  1.5897
 5390TIP3   OH237804   3.977   5.162   2.123  0.0554  0.7310 -0.6721
 5390TIP3    H137805   3.963   5.244   2.172  1.1107  1.0142 -0.8277
 5390TIP3    H237806   4.072   5.152   2.119 -0.0606 -0.9748  0.1005
 5391TIP3   OH237807   2.580   5.224   8.850  0.9754  0.3331  0.4718
 5391TIP3    H137808   2.665   5.269   8.851  1.7112 -1.0038  0.3335
 5391TIP3    H237809   2.602   5.131   8.860 -0.3435 -0.2326 -1.4039
 5392TIP3   OH237810   1.891   4.389  10.000  0.1982  0.4837 -0.3750
 5392TIP3    H137811   1.829   4.345   9.942  1.1413  0.1974 -1.1810
 5392TIP3    H237812   1.887   4.339  10.082 -0.0745  0.0052 -0.6753
 5393TIP3   OH237813   0.560   1.297   2.580  0.0526  0.1442  0.3572
 5393TIP3    H137814   0.632   1.332   2.633  0.1534  0.8205 -0.2057
 5393TIP3    H237815   0.485   1.352   2.602 -0.3346 -0.6258  1.0207
 5394TIP3   OH237816   0.391   1.659   8.182 -0.4658 -0.4368 -0.2433
 5394TIP3    H137817   0.387   1.601   8.106 -2.2370 -1.4036  0.5405
 5394TIP3    H237818   0.351   1.740   8.153  1.7658  0.3978 -1.2584
 5395TIP3   OH237819   4.069   3.573   9.747  0.2394  0.0347  0.5408
 5395TIP3    H137820   4.153   3.600   9.710  0.2675 -2.0841 -1.1244
 5395TIP3    H237821   4.069   3.611   9.835  2.1445  1.5418 -0.0242
 5396TIP3   OH237822   4.327   6.376   1.520 -0.6491  0.2909  0.0274
 5396TIP3    H137823   4.412   6.406   1.489 -0.5745  0.0167 -0.0412
 5396TIP3    H237824   4.338   6.281   1.531 -0.5506  0.4322  1.2758
 5397TIP3   OH237825   4.496   5.300   3.206 -0.0760 -0.4258  0.7177
 5397TIP3    H137826   4.401   5.295   3.201 -0.1018 -0.0105  0.7867
 5397TIP3    H237827   4.519   5.241   3.278 -0.2034 -1.2651  0.0927
 5398TIP3   OH237828   3.400   1.826   8.673 -0.3378 -0.1958 -0.2738
 5398TIP3    H137829   3.393   1.897   8.609 -0.1638  1.4113  1.4340
 5398TIP3    H237830   3.456   1.861   8.742  2.3011 -3.0521 -0.7378
 5399TIP3   OH237831   3.240   3.496   1.059 -0.7933 -0.2421 -0.1458
 5399TIP3    H137832   3.167   3.540   1.015 -0.6790  0.7240  0.5842
 5399TIP3    H237833   3.219   3.403   1.053 -1.1696 -0.0994 -1.5275
 5400TIP3   OH237834   2.019   6.367   0.629 -0.2435 -0.6253 -0.0260
 5400TIP3    H137835   1.929   6.393   0.607 -0.3369 -0.2828  0.7300
 5400TIP3    H237836   2.025   6.275   0.603 -0.7818 -0.6228 -0.1680
 5401TIP3   OH237837   3.577   1.534   1.227  0.4005 -0.0446  0.2699
 5401TIP3    H137838   3.601   1.599   1.293 -2.2920  0.2608  1.0902
 5401TIP3    H237839   3.552   1.586   1.150  0.7647 -0.2516  0.0085
 5402TIP3   OH237840   5.971   3.812   2.442 -0.2647  0.2222  0.0571
 5402TIP3    H137841   6.022   3.878   2.394 -1.3567  1.1704  0.1584
 5402TIP3    H237842   5.896   3.794   2.387  0.4097 -1.5765 -0.3337
 5403TIP3   OH237843   3.786   5.064   9.607 -0.2134 -0.0542  0.3290
 5403TIP3    H137844   3.811   5.048   9.698 -0.6464  0.0846  0.4752
 5403TIP3    H237845   3.769   5.158   9.602 -0.6596 -0.1346  0.2264
 5404TIP3   OH237846   0.085   2.645   0.282 -0.1993  0.1651  0.5512
 5404TIP3    H137847   0.140   2.641   0.360  0.9535 -1.3319 -0.2908
 5404TIP3    H237848   0.076   2.554   0.254 -0.0631  0.7193 -1.3998
 5405TIP3   OH237849   5.423   2.242   1.147 -0.6506  0.4133  0.3577
 5405TIP3    H137850   5.405   2.210   1.235  0.0589 -2.2751 -0.3779
 5405TIP3    H237851   5.344   2.288   1.120 -1.2274  0.4407  2.0379
 5406TIP3   OH237852   0.515   3.675   3.341 -0.2162  0.4325  0.8144
 5406TIP3    H137853   0.570   3.597   3.338  1.2303  1.4369 -1.2560
 5406TIP3    H237854   0.426   3.641   3.334  0.4352 -1.0295 -1.7279
 5407TIP3   OH237855   4.791   3.497   9.273  0.1984  0.8469  0.9061
 5407TIP3    H137856   4.846   3.501   9.195  1.0485  1.1011  1.4949
 5407TIP3    H237857   4.728   3.569   9.262 -1.5245 -0.8201 -0.8277
 5408TIP3   OH237858   0.959   4.263   1.221  0.1481  0.0888  0.4367
 5408TIP3    H137859   0.910   4.340   1.193  0.0429  0.1023  0.6500
 5408TIP3    H237860   1.006   4.233   1.143  1.5313  1.3613  0.7305
 5409TIP3   OH237861   2.757   5.781   9.616  0.7918 -0.4525  0.7755
 5409TIP3    H137862   2.781   5.796   9.708  0.2944 -0.5163  0.9183
 5409TIP3    H237863   2.799   5.852   9.568 -0.8041  0.9495  1.3291
 5410TIP3   OH237864   1.983   6.057   8.636 -0.2350 -0.2922  0.0870
 5410TIP3    H137865   2.037   5.981   8.614 -1.1831 -1.0230  0.2518
 5410TIP3    H237866   1.893   6.025   8.633 -0.5545  0.1503  2.7020
 5411TIP3   OH237867   3.438   4.241   0.403  0.2016  0.0274  0.0947
 5411TIP3    H137868   3.349   4.233   0.438  0.3823 -1.3777  0.2873
 5411TIP3    H237869   3.449   4.164   0.347  0.9471  0.7198 -0.7495
 5412TIP3   OH237870   3.731   3.860   2.471  0.0681  0.1424  0.2855
 5412TIP3    H137871   3.683   3.927   2.421 -0.7787 -1.2277 -0.8495
 5412TIP3    H237872   3.823   3.878   2.453 -0.0789  1.7084  0.9807
 5413TIP3   OH237873   4.290   3.563   2.282 -0.6208  0.5047 -0.3293
 5413TIP3    H137874   4.333   3.596   2.203  0.4711  0.4174  0.1981
 5413TIP3    H237875   4.250   3.480   2.257  0.2934  0.1477 -0.6355
 5414TIP3   OH237876   1.917   4.103   1.627  0.0690  0.4413 -0.6791
 5414TIP3    H137877   1.920   4.070   1.537  2.2838 -0.4542 -0.3364
 5414TIP3    H237878   1.825   4.124   1.642 -0.6721 -1.2510 -2.4848
 5415TIP3   OH237879   4.104   3.769   2.942  0.5557  0.3132  0.2337
 5415TIP3    H137880   4.152   3.695   2.905  1.7583  0.7252  0.9385
 5415TIP3    H237881   4.071   3.816   2.865  2.1817  0.6184 -0.3175
 5416TIP3   OH237882   2.694   3.345   3.632  0.2296 -0.5049  0.3296
 5416TIP3    H137883   2.781   3.374   3.660  0.5727 -0.6251 -0.5747
 5416TIP3    H237884   2.692   3.252   3.654  1.2921 -1.0946 -1.8742
 5417TIP3   OH237885   4.100   6.370   0.889  0.2860  0.0047  0.1598
 5417TIP3    H137886   4.026   6.312   0.907  1.2403 -0.6232  2.5004
 5417TIP3    H237887   4.096   6.436   0.959  1.1166  0.8026 -0.5215
 5418TIP3   OH237888   5.880   3.138   2.409 -0.0176  0.2665 -0.5608
 5418TIP3    H137889   5.793   3.172   2.388  0.4225  1.2161 -0.9040
 5418TIP3    H237890   5.892   3.064   2.349 -1.1964 -0.8632  0.5466
 5419TIP3   OH237891   3.625   1.623   2.443 -0.0483  0.5443 -0.6640
 5419TIP3    H137892   3.539   1.609   2.482 -0.8677  0.7062 -2.3489
 5419TIP3    H237893   3.665   1.536   2.440 -0.3243  0.4026 -0.2692
 5420TIP3   OH237894   4.547   6.395   0.255 -0.4421  0.3103 -0.6472
 5420TIP3    H137895   4.532   6.300   0.252 -0.1855  0.2299  0.3293
 5420TIP3    H237896   4.642   6.403   0.246 -0.0013  0.2309  2.7652
 5421TIP3   OH237897   2.373   4.302   9.012 -0.1125 -0.1028  0.3820
 5421TIP3    H137898   2.438   4.370   9.025  0.0981  0.2045 -1.8438
 5421TIP3    H237899   2.403   4.229   9.067  1.2828  0.5571  0.5412
 5422TIP3   OH237900   3.089   3.887   0.130  0.5258 -0.4683  0.3904
 5422TIP3    H137901   3.086   3.935   0.047 -0.6352  0.2180  0.8065
 5422TIP3    H237902   3.101   3.955   0.196  1.1114 -0.9792  0.8187
 5423TIP3   OH237903   5.745   2.382   9.504 -0.3678  0.0078  0.2994
 5423TIP3    H137904   5.709   2.394   9.416  3.1838  2.7405 -1.0127
 5423TIP3    H237905   5.836   2.357   9.489  0.3341  0.5055  3.2149
 5424TIP3   OH237906   4.211   5.046   0.585  0.0020  0.4945 -0.0232
 5424TIP3    H137907   4.207   5.111   0.655  0.2736  0.4182  0.0649
 5424TIP3    H237908   4.144   4.982   0.608  1.1449 -0.3773  1.0311
 5425TIP3   OH237909   6.390   1.870   2.765 -0.5643 -0.3983  0.1898
 5425TIP3    H137910   6.306   1.913   2.746 -0.5724  0.1875  1.4090
 5425TIP3    H237911   6.453   1.917   2.711 -1.0568 -1.0985 -1.0381
 5426TIP3   OH237912   3.892   6.105   8.459  0.1589 -1.0852  0.0966
 5426TIP3    H137913   3.974   6.098   8.409  0.0061 -0.6434 -0.2197
 5426TIP3    H237914   3.823   6.098   8.393 -0.0487 -0.6728  0.2642
 5427TIP3   OH237915   3.081   4.883   2.065  0.1941 -0.0422 -0.2578
 5427TIP3    H137916   3.010   4.902   2.004  0.5669 -0.5020 -0.8441
 5427TIP3    H237917   3.087   4.961   2.119 -0.9377 -0.1043 -0.0151
 5428TIP3   OH237918   2.981   6.227   8.609 -0.1949  0.8828 -0.5151
 5428TIP3    H137919   3.054   6.198   8.664  0.1549  1.8428 -0.4516
 5428TIP3    H237920   2.933   6.290   8.663 -1.6537 -0.4341 -0.2022
 5429TIP3   OH237921   5.715   1.614   9.690 -0.4305  0.5287 -0.2632
 5429TIP3    H137922   5.656   1.583   9.621  0.7871  2.3511 -2.2531
 5429TIP3    H237923   5.656   1.650   9.757 -1.6167  0.3038 -1.1535
 5430TIP3   OH237924   6.084   0.078   9.822  0.2450 -0.2125  0.3756
 5430TIP3    H137925   6.151   0.087   9.890 -1.9923  0.5655  2.6008
 5430TIP3    H237926   6.055   0.167   9.804 -1.5941 -0.6565  0.9687
 5431TIP3   OH237927   3.463   1.040   9.795 -0.1365 -0.1921 -0.0923
 5431TIP3    H137928   3.424   1.012   9.878  1.5239 -1.9666  0.1609
 5431TIP3    H237929   3.416   0.989   9.728  1.8591 -2.6872  0.2482
 5432TIP3   OH237930   1.343   5.249   0.354  0.4885  0.1804  0.3999
 5432TIP3    H137931   1.385   5.297   0.282  1.5777  0.2340  1.0390
 5432TIP3    H237932   1.353   5.306   0.430  0.7831 -0.5559  0.9273
 5433TIP3   OH237933   2.506   4.419   2.389 -0.0898  0.0665  0.3898
 5433TIP3    H137934   2.523   4.512   2.400 -0.8134  0.0890  1.5091
 5433TIP3    H237935   2.413   4.409   2.410 -0.8223 -0.4813 -2.6117
 5434TIP3   OH237936   1.365   5.472   8.540 -0.1389 -0.0025  0.1288
 5434TIP3    H137937   1.279   5.514   8.546  0.9653  3.1939 -2.7550
 5434TIP3    H237938   1.357   5.409   8.468 -0.4339 -0.8930  0.9257
 5435TIP3   OH237939   2.204   5.336   9.543 -0.0722 -0.0895 -0.3782
 5435TIP3    H137940   2.132   5.302   9.597 -0.0913 -3.0877 -2.0642
 5435TIP3    H237941   2.163   5.358   9.459  0.6861  0.0374 -0.7237
 5436TIP3   OH237942   1.634   0.620   9.111 -0.0081 -0.2372 -0.0919
 5436TIP3    H137943   1.624   0.533   9.070 -1.9402 -0.5896  0.9961
 5436TIP3    H237944   1.555   0.667   9.085 -0.7579 -0.0870  2.2137
 5437TIP3   OH237945   4.371   0.363   9.019  0.0683  0.0261 -0.1490
 5437TIP3    H137946   4.293   0.385   9.069  1.1095 -1.9358  2.6208
 5437TIP3    H237947   4.346   0.376   8.928 -2.6348  1.8458  0.7308
 5438TIP3   OH237948   4.260   5.514   0.654  0.6088 -0.0032  0.6915
 5438TIP3    H137949   4.278   5.456   0.580  0.9303  0.9620  0.0032
 5438TIP3    H237950   4.166   5.501   0.672 -0.0307  1.3531 -1.3133
 5439TIP3   OH237951   5.439   3.862   2.649  0.3591 -0.4163  0.1225
 5439TIP3    H137952   5.355   3.868   2.604  1.0459 -0.2791 -1.1843
 5439TIP3    H237953   5.501   3.831   2.582  2.0942  2.7964  0.0538
 5440TIP3   OH237954   2.878   2.516   2.982 -0.3295 -0.1171  0.5909
 5440TIP3    H137955   2.945   2.557   2.927 -1.9251 -1.8090 -2.9677
 5440TIP3    H237956   2.926   2.456   3.038  1.2540 -0.7364 -1.3041
 5441TIP3   OH237957   3.946   6.037   2.159 -0.8556 -0.6810  0.7318
 5441TIP3    H137958   3.905   6.122   2.141  0.4688 -0.1079  0.3226
 5441TIP3    H237959   3.932   6.024   2.253  0.0109  0.6227  1.0810
 5442TIP3   OH237960   3.262   3.111   7.934 -0.5105  0.4482 -0.6504
 5442TIP3    H137961   3.201   3.151   7.873 -1.8963  1.1504  1.0935
 5442TIP3    H237962   3.230   3.021   7.944  0.2116  0.0735 -1.5322
 5443TIP3   OH237963   2.652   2.517   9.459 -0.1507  0.0134 -0.8046
 5443TIP3    H137964   2.739   2.482   9.441 -0.9733 -1.6322 -1.7913
 5443TIP3    H237965   2.648   2.522   9.555  0.8507 -0.3058 -0.7349
 5444TIP3   OH237966   2.826   2.877   3.530 -0.0342 -0.2771  0.3144
 5444TIP3    H137967   2.918   2.854   3.542 -0.3633 -1.1127  1.4155
 5444TIP3    H237968   2.795   2.817   3.462  0.6603  1.2365 -1.3961
 5445TIP3   OH237969   5.407   1.752   0.240 -0.5755  0.2109 -0.2267
 5445TIP3    H137970   5.401   1.844   0.218 -0.4599 -0.3298 -2.8157
 5445TIP3    H237971   5.334   1.711   0.194  0.0596 -1.1585 -0.0894
 5446TIP3   OH237972   6.177   6.088   0.238  0.1298 -0.1929 -0.3182
 5446TIP3    H137973   6.193   6.180   0.260  1.0826 -0.2028 -0.9086
 5446TIP3    H237974   6.257   6.060   0.192  0.5972 -1.8306  1.3879
 5447TIP3   OH237975   1.246   1.591   9.690 -0.2065  0.3259 -0.0406
 5447TIP3    H137976   1.301   1.635   9.625 -0.1635 -1.6243 -1.4245
 5447TIP3    H237977   1.302   1.521   9.724 -0.6191  0.6222  1.2918
 5448TIP3   OH237978   5.394   6.241   3.300  0.1059  0.1505 -0.5905
 5448TIP3    H137979   5.309   6.234   3.256  0.9660  0.4490 -2.3731
 5448TIP3    H237980   5.448   6.173   3.260 -0.0600 -2.0546  2.5744
 5449TIP3   OH237981   4.303   5.707   8.953  0.5034  0.0516  0.2131
 5449TIP3    H137982   4.394   5.691   8.929  0.2840  0.4674 -0.9694
 5449TIP3    H237983   4.254   5.635   8.911  0.1916  0.3654  0.0331
 5450TIP3   OH237984   0.949   0.472   7.687 -0.5169  0.3535  0.6699
 5450TIP3    H137985   0.963   0.550   7.742 -0.7884  0.1999  0.9615
 5450TIP3    H237986   0.896   0.504   7.614 -3.6277 -0.2130  2.5393
 5451TIP3   OH237987   2.027   4.024   0.186  0.2377 -0.5049  0.5443
 5451TIP3    H137988   2.063   4.110   0.206 -1.0136 -0.0831  1.0571
 5451TIP3    H237989   2.000   4.031   0.094 -0.4372 -0.1307  0.7635
 5452TIP3   OH237990   3.365   3.034   9.593  0.0793  0.2254  0.6036
 5452TIP3    H137991   3.288   2.976   9.589  0.5262 -0.3352 -0.0674
 5452TIP3    H237992   3.329   3.118   9.621 -0.9207  0.1822 -0.4290
 5453TIP3   OH237993   0.000   0.069   1.548  0.0902 -0.1421 -0.0427
 5453TIP3    H137994  -0.005   0.028   1.461  0.3497 -1.5413  0.5612
 5453TIP3    H237995  -0.082   0.117   1.557 -0.4217 -0.8776 -0.6373
 5454TIP3   OH237996   2.158   5.247   9.191 -0.2017 -1.2299 -0.2013
 5454TIP3    H137997   2.252   5.253   9.172  0.0973 -1.6912  1.0453
 5454TIP3    H237998   2.138   5.328   9.238 -0.5203 -0.9866 -0.7337
 5455TIP3   OH237999   4.575   2.926   0.770 -0.1736 -0.4757  0.7615
 5455TIP3    H138000   4.656   2.977   0.764 -0.8515  0.5826  0.3549
 5455TIP3    H238001   4.538   2.929   0.682  0.2787 -2.5808  0.4488
 5456TIP3   OH238002   1.350   3.716   9.688  0.2839  0.1457 -0.5105
 5456TIP3    H138003   1.376   3.656   9.757  0.0350 -0.4223 -0.9064
 5456TIP3    H238004   1.395   3.798   9.709 -0.8437  0.4102  1.1047
 5457TIP3   OH238005   4.473   0.932   8.671  0.2261  0.1492  0.4474
 5457TIP3    H138006   4.504   0.898   8.755  0.6689  1.6952  0.9437
 5457TIP3    H238007   4.455   0.854   8.619  1.8370 -0.8344  1.2830
 5458TIP3   OH238008   2.172   4.549   9.326  0.0299 -0.0038  0.1825
 5458TIP3    H138009   2.195   4.626   9.274  0.4768 -0.1157  0.2154
 5458TIP3    H238010   2.079   4.561   9.346 -0.1630 -0.0037 -0.7087
 5459TIP3   OH238011   5.603   5.484   0.491  0.2737  0.5214  0.5020
 5459TIP3    H138012   5.553   5.542   0.433 -0.2664 -0.4972 -0.0723
 5459TIP3    H238013   5.691   5.482   0.454  0.0566  0.2642 -0.0145
 5460TIP3   OH238014   0.160   5.502   9.433  0.1771 -0.1340  0.5055
 5460TIP3    H138015   0.113   5.583   9.413 -0.1014 -0.4511 -0.1887
 5460TIP3    H238016   0.246   5.514   9.394  0.4544  0.1968  1.2212
 5461TIP3   OH238017   5.014   2.126   0.406  0.3066 -0.1660 -0.3491
 5461TIP3    H138018   5.108   2.143   0.396 -0.0425  0.9700 -2.1748
 5461TIP3    H238019   5.003   2.104   0.498  2.1706  1.0332  0.2126
 5462TIP3   OH238020   0.953   6.193   9.122  0.1607 -0.2017 -0.4771
 5462TIP3    H138021   0.945   6.275   9.172  1.3042 -0.0066 -0.5929
 5462TIP3    H238022   1.004   6.135   9.179 -4.1190 -2.4702  1.5367
 5463TIP3   OH238023   4.890   2.599   2.639  0.0223  0.4515 -0.1375
 5463TIP3    H138024   4.816   2.543   2.662 -1.4872  2.0940 -0.7420
 5463TIP3    H238025   4.932   2.554   2.566  0.5012 -1.1897  1.1007
 5464TIP3   OH238026   0.579   4.752   9.561  0.4290 -0.2019  0.4326
 5464TIP3    H138027   0.554   4.841   9.584 -1.0203 -0.1610 -1.1131
 5464TIP3    H238028   0.640   4.725   9.630  0.9903  2.0055  0.8585
 5465TIP3   OH238029   5.780   4.145   1.705  0.4936  0.4875  0.0573
 5465TIP3    H138030   5.708   4.163   1.645  0.9540 -0.0643 -0.6755
 5465TIP3    H238031   5.844   4.214   1.687  0.3511  0.7076  0.3836
 5466TIP3   OH238032   6.369   3.192   1.303  0.3272  0.0238  0.7274
 5466TIP3    H138033   6.299   3.247   1.268  0.9817  1.2344  1.3022
 5466TIP3    H238034   6.393   3.135   1.229  1.4380  2.2912 -0.7552
 5467TIP3   OH238035   5.110   3.068   9.187 -0.0141 -0.1652 -0.1178
 5467TIP3    H138036   5.039   3.020   9.229  0.7737 -1.1967  0.0856
 5467TIP3    H238037   5.189   3.043   9.236  0.4996  0.9435 -0.3425
 5468TIP3   OH238038   0.578   2.532   2.040 -0.0670  0.0438  0.0455
 5468TIP3    H138039   0.561   2.513   2.132  1.5888  1.3157  0.6633
 5468TIP3    H238040   0.607   2.623   2.039  1.7067 -0.4663 -1.4701
 5469TIP3   OH238041   3.875   5.458   8.714  0.0047 -0.1266  0.2275
 5469TIP3    H138042   3.923   5.535   8.686  2.9060 -1.1017  2.0333
 5469TIP3    H238043   3.880   5.398   8.639  0.5248  0.2710 -0.0622
 5470TIP3   OH238044   0.367   5.967   2.651  0.4452  0.5495 -0.5153
 5470TIP3    H138045   0.329   5.880   2.647 -0.0821  0.7786 -0.6361
 5470TIP3    H238046   0.376   5.993   2.559  0.9508  0.4758 -0.4890
 5471TIP3   OH238047   3.260   3.765   3.128 -0.4631  0.3089 -0.3840
 5471TIP3    H138048   3.254   3.834   3.194  1.3411  0.3392 -0.2081
 5471TIP3    H238049   3.214   3.800   3.052  0.3241  1.6878 -0.2578
 5472TIP3   OH238050   0.443   3.752   9.366 -0.0232 -0.0290  0.5057
 5472TIP3    H138051   0.519   3.707   9.328 -0.1286  1.2489 -1.3733
 5472TIP3    H238052   0.460   3.752   9.460  2.1849 -0.0448  0.1771
 5473TIP3   OH238053   6.344   2.521   2.457  0.0132  0.8406  0.1395
 5473TIP3    H138054   6.416   2.472   2.498 -0.1398 -0.0060 -0.5824
 5473TIP3    H238055   6.385   2.601   2.427  0.8264  0.0776 -0.8613
 5474TIP3   OH238056   0.409   4.737   2.304 -0.5627  0.4048  0.6033
 5474TIP3    H138057   0.493   4.707   2.338  0.6653  0.5791 -2.0230
 5474TIP3    H238058   0.394   4.821   2.347  1.1991  0.9011  0.3057
 5475TIP3   OH238059   3.413   5.153   3.010 -0.4617  0.2270 -0.2899
 5475TIP3    H138060   3.341   5.091   2.999  1.0800 -1.5863 -0.7416
 5475TIP3    H238061   3.461   5.150   2.928  1.3942 -0.3488  0.7508
 5476TIP3   OH238062   1.008   1.758   0.536 -0.2646 -0.5399 -0.2563
 5476TIP3    H138063   1.060   1.718   0.466 -0.9458 -1.8017 -0.0599
 5476TIP3    H238064   1.014   1.852   0.519  0.3355 -0.7768 -1.4667
 5477TIP3   OH238065   6.406   5.553   0.239  0.6711 -0.8445 -0.5271
 5477TIP3    H138066   6.450   5.468   0.240  1.0814 -0.6351 -0.5131
 5477TIP3    H238067   6.455   5.606   0.302 -0.0188 -0.8116 -0.0019
 5478TIP3   OH238068   0.728   5.397   1.657 -0.4873  0.7698 -0.2847
 5478TIP3    H138069   0.721   5.404   1.753 -0.2967  1.0575 -0.2920
 5478TIP3    H238070   0.821   5.391   1.640 -0.4922  1.2135 -0.4853
 5479TIP3   OH238071   5.670   3.278   2.339 -0.0999 -0.4209  0.3982
 5479TIP3    H138072   5.589   3.248   2.381  0.1957 -0.6980  0.7719
 5479TIP3    H238073   5.661   3.373   2.336 -0.0864 -0.3850  1.1755
 5480TIP3   OH238074   1.206   2.027   0.039 -0.2669 -0.0113  0.2044
 5480TIP3    H138075   1.279   2.046  -0.019 -1.6989  0.3579 -1.5925
 5480TIP3    H238076   1.149   2.104   0.031 -1.0648 -0.4793  1.1815
 5481TIP3   OH238077   3.546   4.072   8.806 -0.3946  0.3210 -0.2631
 5481TIP3    H138078   3.603   4.012   8.757 -0.1707  1.3628 -1.2963
 5481TIP3    H238079   3.538   4.149   8.751 -1.3116  0.9507  0.7110
 5482TIP3   OH238080   4.043   2.750   9.520  1.0413  0.2342  0.7267
 5482TIP3    H138081   4.043   2.660   9.552 -0.5713  0.1510  0.5851
 5482TIP3    H238082   4.107   2.751   9.449  2.2245 -0.3886  1.7546
 5483TIP3   OH238083   5.268   1.503   1.513 -0.4603  0.5369 -0.0253
 5483TIP3    H138084   5.192   1.444   1.519  0.3255 -0.5289 -0.2614
 5483TIP3    H238085   5.256   1.565   1.585 -0.8579 -0.4670  0.7984
 5484TIP3   OH238086   3.175   1.214   2.639 -0.7378 -0.1070  0.5982
 5484TIP3    H138087   3.181   1.138   2.697  1.0942 -0.1395  0.4293
 5484TIP3    H238088   3.207   1.287   2.692 -0.2400  0.0986  0.0205
 5485TIP3   OH238089   5.363   1.587   7.824 -0.1777 -0.3746 -0.3550
 5485TIP3    H138090   5.364   1.543   7.738 -2.6622 -0.7924 -0.2441
 5485TIP3    H238091   5.272   1.582   7.852  0.2257  1.4252  1.4890
 5486TIP3   OH238092   3.088   4.322   0.015  0.1699 -0.4500  0.1191
 5486TIP3    H138093   3.171   4.283   0.043  0.1661 -0.7018 -0.2145
 5486TIP3    H238094   3.108   4.360  -0.070  0.3061  0.7203  0.6560
 5487TIP3   OH238095   4.906   1.210   0.937 -0.5391  0.3703  0.5655
 5487TIP3    H138096   4.885   1.291   0.891 -1.1197 -0.3722 -0.5186
 5487TIP3    H238097   4.863   1.218   1.022 -0.6298  1.1782  0.4452
 5488TIP3   OH238098   6.156   2.285   1.857  0.2839  0.4410 -1.0093
 5488TIP3    H138099   6.067   2.252   1.867 -0.1415  2.0003  0.9460
 5488TIP3    H238100   6.154   2.333   1.774  0.0221 -1.4656 -2.1861
 5489TIP3   OH238101   2.256   1.800   7.908 -0.4881  0.1015  0.4943
 5489TIP3    H138102   2.335   1.835   7.867 -1.5366  1.2255 -0.6535
 5489TIP3    H238103   2.271   1.811   8.002  0.8589 -0.0383  0.3118
 5490TIP3   OH238104   3.832   5.149   0.320  0.1846  0.5128  0.0184
 5490TIP3    H138105   3.877   5.115   0.243  1.2836  1.9528 -0.0058
 5490TIP3    H238106   3.762   5.086   0.336  1.6814 -1.3569 -0.4397
 5491TIP3   OH238107   2.782   3.754   9.439 -0.0803  0.2387  0.8239
 5491TIP3    H138108   2.803   3.718   9.353  0.3190  0.6401  0.7503
 5491TIP3    H238109   2.860   3.804   9.464 -0.4789  0.7309  1.0954
 5492TIP3   OH238110   5.759   1.814   8.935 -0.0236 -0.2794  0.0616
 5492TIP3    H138111   5.686   1.754   8.917  0.3339 -0.7892  0.2981
 5492TIP3    H238112   5.749   1.837   9.028 -0.2484  0.1562 -0.0658
 5493TIP3   OH238113   2.715   4.764   9.490 -0.2071 -0.2059 -0.6084
 5493TIP3    H138114   2.795   4.758   9.542 -0.0453  3.0109 -0.2673
 5493TIP3    H238115   2.648   4.794   9.552 -0.8485  0.3262 -1.5287
 5494TIP3   OH238116   6.233   1.856   8.668 -0.4307 -1.2360  0.0746
 5494TIP3    H138117   6.320   1.860   8.628 -0.2997  4.7104  0.1053
 5494TIP3    H238118   6.249   1.844   8.761  0.4048 -0.2040  0.0752
 5495TIP3   OH238119   3.416   3.312   9.232 -0.2129  0.4872  0.0418
 5495TIP3    H138120   3.470   3.390   9.223 -0.6023  0.7108 -0.3809
 5495TIP3    H238121   3.471   3.241   9.197 -0.3789  0.7928 -0.8504
 5496TIP3   OH238122   1.072   6.276   8.871  0.5017  0.3610 -0.6746
 5496TIP3    H138123   1.013   6.272   8.946  1.1729  0.7547 -0.1055
 5496TIP3    H238124   1.146   6.220   8.896  1.4141  1.6268 -0.3962
 5497TIP3   OH238125   0.952   0.631   0.723 -0.4620  0.0616  0.4950
 5497TIP3    H138126   1.003   0.677   0.790  0.0590  0.1695  0.0366
 5497TIP3    H238127   1.013   0.623   0.649 -1.2248  0.4974 -0.1880
 5498TIP3   OH238128   1.869   4.513   1.568 -0.2000  0.4280  0.6747
 5498TIP3    H138129   1.912   4.443   1.517  1.4363  0.2544  2.2210
 5498TIP3    H238130   1.931   4.535   1.636 -1.9905  1.2501  2.1223
 5499TIP3   OH238131   6.384   2.955   1.893 -0.4567  0.2758 -0.0830
 5499TIP3    H138132   6.341   2.892   1.834  0.2580  0.6277 -1.0089
 5499TIP3    H238133   6.313   3.010   1.925 -0.6001  1.7165 -2.6366
 5500TIP3   OH238134   6.141   1.966   1.320  0.2658 -0.1214 -0.1919
 5500TIP3    H138135   6.154   1.980   1.226  0.4387 -1.2833 -0.3597
 5500TIP3    H238136   6.093   2.043   1.350  0.1497  0.2261 -1.2502
 5501TIP3   OH238137   1.596   4.224   1.028 -0.4542 -0.2586  0.0769
 5501TIP3    H138138   1.687   4.250   1.041 -0.7791  0.6168  0.7268
 5501TIP3    H238139   1.573   4.261   0.942 -0.8382  1.5060  0.8855
 5502TIP3   OH238140   2.394   0.270   0.858 -0.5946  0.1499 -0.3968
 5502TIP3    H138141   2.303   0.249   0.881 -0.8706  1.2476 -0.4321
 5502TIP3    H238142   2.421   0.201   0.798 -1.7700  0.3901 -1.2354
 5503TIP3   OH238143   6.187   0.237   1.579  0.0716  0.3689 -1.0211
 5503TIP3    H138144   6.184   0.248   1.674  1.6959 -1.9945 -0.5999
 5503TIP3    H238145   6.099   0.208   1.556  0.4826 -2.3991  0.3916
 5504TIP3   OH238146   4.583   2.743   1.140 -0.3792  0.3976  0.6301
 5504TIP3    H138147   4.600   2.723   1.232 -1.3446 -0.3967  0.6463
 5504TIP3    H238148   4.669   2.740   1.098 -0.2031 -1.5980  1.0621
 5505TIP3   OH238149   3.356   4.902   8.266 -0.3643  0.5723 -0.6659
 5505TIP3    H138150   3.362   4.836   8.196  2.5996 -0.2430  0.2062
 5505TIP3    H238151   3.407   4.976   8.234  1.0600  0.1741  0.5593
 5506TIP3   OH238152   5.372   3.250   8.931  0.1349  0.9408  0.1938
 5506TIP3    H138153   5.443   3.186   8.933 -1.5592 -1.0560  0.9592
 5506TIP3    H238154   5.409   3.326   8.885  2.2042 -0.6480 -0.9627
 5507TIP3   OH238155   5.179   5.586   0.201  0.1398  0.1628  0.3430
 5507TIP3    H138156   5.100   5.550   0.242  0.0358  0.4021  0.3516
 5507TIP3    H238157   5.199   5.524   0.131  0.6028 -0.5122  1.0629
 5508TIP3   OH238158   2.289   0.808   8.114  0.3490  0.5683 -0.2908
 5508TIP3    H138159   2.338   0.825   8.195 -0.3035 -0.5852  0.3802
 5508TIP3    H238160   2.317   0.720   8.088 -1.1741 -0.0077 -0.0276
 5509TIP3   OH238161   2.439   3.172   2.239  0.2199 -0.0210 -0.0860
 5509TIP3    H138162   2.372   3.120   2.194 -0.6628  1.8227 -1.0086
 5509TIP3    H238163   2.443   3.254   2.189 -0.3756  1.9117  2.8052
 5510TIP3   OH238164   0.058   3.218   2.137  0.0798 -0.3149 -0.0155
 5510TIP3    H138165  -0.020   3.196   2.086  0.8020 -0.0673 -1.2705
 5510TIP3    H238166   0.025   3.274   2.208 -0.6040  2.1403 -2.1031
 5511TIP3   OH238167   0.880   2.688   2.335 -0.3541 -0.7362 -0.1355
 5511TIP3    H138168   0.865   2.604   2.378  1.2664  0.4513  3.0576
 5511TIP3    H238169   0.974   2.701   2.338 -0.3602  0.3230 -2.4691
 5512TIP3   OH238170   5.689   1.981   0.448  0.3150  0.5298  0.1532
 5512TIP3    H138171   5.653   1.999   0.535  1.0455  2.2143  0.1438
 5512TIP3    H238172   5.777   1.948   0.465  0.1603  0.0631  0.0647
 5513TIP3   OH238173   0.874   4.010   8.972  0.4003  0.0856 -0.2173
 5513TIP3    H138174   0.928   4.070   9.023 -0.3281 -0.5774  1.3987
 5513TIP3    H238175   0.785   4.044   8.981  0.1912 -0.3450 -0.6071
 5514TIP3   OH238176   4.747   0.770   1.725  0.3857 -0.0652 -0.0129
 5514TIP3    H138177   4.812   0.701   1.739 -0.5839 -1.1506 -0.7530
 5514TIP3    H238178   4.694   0.771   1.805  0.1360 -0.4659 -0.1742
 5515TIP3   OH238179   3.985   1.166   9.088 -0.2361 -0.1246 -0.0088
 5515TIP3    H138180   3.925   1.208   9.027 -0.6653 -0.5411  0.1205
 5515TIP3    H238181   3.976   1.216   9.169  0.4356  0.5143 -0.3124
 5516TIP3   OH238182   4.929   0.506   8.951  0.3016 -0.0623  0.4664
 5516TIP3    H138183   4.894   0.595   8.965  0.5309  0.0432  0.3695
 5516TIP3    H238184   4.851   0.450   8.948  0.2074 -0.0197  1.6571
 5517TIP3   OH238185   1.581   3.001   2.035 -0.3610  0.5192 -0.3502
 5517TIP3    H138186   1.612   2.945   1.964 -0.2120  1.4544 -1.0429
 5517TIP3    H238187   1.630   2.972   2.112  0.9822  0.8441 -1.0626
 5518TIP3   OH238188   4.893   0.195   1.808 -0.3185  0.1029 -0.1382
 5518TIP3    H138189   4.933   0.166   1.726  1.2229  0.2142  0.5363
 5518TIP3    H238190   4.957   0.171   1.876 -2.3017 -1.5493  1.2727
 5519TIP3   OH238191   5.536   3.930   8.482 -0.4735  0.0470  0.4864
 5519TIP3    H138192   5.519   3.836   8.478 -0.6114  0.0145  1.5069
 5519TIP3    H238193   5.582   3.942   8.565  1.3476  0.6193 -0.5585
 5520TIP3   OH238194   1.270   4.141   9.840 -0.9372  0.2923 -0.2720
 5520TIP3    H138195   1.256   4.163   9.932  1.0523 -0.6125  0.3000
 5520TIP3    H238196   1.350   4.088   9.839 -2.0031 -1.4637 -2.2946
 5521TIP3   OH238197   0.596   3.315   2.224 -0.0695  0.2173 -0.2143
 5521TIP3    H138198   0.617   3.228   2.190  0.1121 -0.3382  1.2708
 5521TIP3    H238199   0.677   3.346   2.262 -0.7984 -0.1665  1.7592
 5522TIP3   OH238200   3.699   3.097   9.612 -0.1260 -0.3011  0.2020
 5522TIP3    H138201   3.772   3.067   9.666 -0.6857 -0.1757  1.0564
 5522TIP3    H238202   3.629   3.117   9.675 -0.9215 -0.4817 -0.5919
 5523TIP3   OH238203   1.371   5.132   0.926  0.6047  0.2768 -0.0524
 5523TIP3    H138204   1.401   5.112   0.837  0.3450  1.9595 -0.5701
 5523TIP3    H238205   1.346   5.048   0.964 -0.4591 -0.3444 -2.0146
 5524TIP3   OH238206   3.436   5.081   1.070 -0.9176 -0.2837  0.1914
 5524TIP3    H138207   3.449   4.992   1.038  0.2270  0.0192 -0.2197
 5524TIP3    H238208   3.524   5.119   1.073 -1.4817  1.1651 -0.6225
 5525TIP3   OH238209   0.284   2.054   1.154  0.4033  0.5721  0.3933
 5525TIP3    H138210   0.201   2.100   1.170  1.0885  1.3125  2.0886
 5525TIP3    H238211   0.284   2.037   1.060 -0.6931  2.4695 -0.0075
 5526TIP3   OH238212   3.409   3.436   1.800  0.2038  0.0645 -0.7276
 5526TIP3    H138213   3.459   3.366   1.759  0.3810  0.2294 -0.7911
 5526TIP3    H238214   3.402   3.504   1.733  0.5709  0.3711 -0.4620
 5527TIP3   OH238215   0.451   6.405   8.984  0.2836 -0.6080 -0.2522
 5527TIP3    H138216   0.418   6.471   8.923 -0.3513 -2.0947 -1.5786
 5527TIP3    H238217   0.518   6.451   9.035  0.8472  0.6901 -2.0678
 5528TIP3   OH238218   4.621   4.177   3.369  0.6223  0.4903  0.0692
 5528TIP3    H138219   4.657   4.265   3.354  1.4250 -0.1335 -1.9109
 5528TIP3    H238220   4.546   4.172   3.310  0.0121  0.1558  0.8651
 5529TIP3   OH238221   3.699   0.881   9.416 -0.0731  0.8355  0.1141
 5529TIP3    H138222   3.769   0.899   9.353  0.2816  0.2747  0.3401
 5529TIP3    H238223   3.688   0.786   9.412 -2.5152  1.0829 -1.7344
 5530TIP3   OH238224   4.383   2.761   0.382  0.3353 -0.9602  0.4806
 5530TIP3    H138225   4.318   2.830   0.398  1.8165  0.6600 -0.1855
 5530TIP3    H238226   4.336   2.680   0.401 -1.9036  0.1209 -0.0569
 5531TIP3   OH238227   0.478   1.411   7.697 -0.7106  0.1820  0.5283
 5531TIP3    H138228   0.422   1.338   7.720 -1.3914  0.3026 -0.6686
 5531TIP3    H238229   0.493   1.402   7.603  0.7371  0.5352  0.6879
 5532TIP3   OH238230   3.426   4.495   8.112  0.5722 -0.7081  0.0093
 5532TIP3    H138231   3.455   4.508   8.202 -0.2510 -1.1276  0.3503
 5532TIP3    H238232   3.494   4.535   8.058  1.0512 -0.4161  0.8180
 5533TIP3   OH238233   0.345   1.760   0.036  0.0723  0.2215 -0.1717
 5533TIP3    H138234   0.408   1.813   0.086  1.4156 -0.6087 -0.9169
 5533TIP3    H238235   0.289   1.721   0.102  0.9544  0.2227  0.5998
 5534TIP3   OH238236   0.325   3.487   9.282 -0.7566 -0.1092 -0.2201
 5534TIP3    H138237   0.235   3.479   9.252 -0.1274 -0.7551 -2.0794
 5534TIP3    H238238   0.352   3.574   9.253 -0.3069 -0.5356 -1.1278
 5535TIP3   OH238239   6.309   1.053   8.844 -0.7902 -0.3465  0.2246
 5535TIP3    H138240   6.217   1.079   8.842 -0.2414  1.7868  0.3625
 5535TIP3    H238241   6.334   1.042   8.753 -0.9643 -0.0675  0.1436
 5536TIP3   OH238242   0.278   5.835   9.429 -0.1413  0.0407  0.1602
 5536TIP3    H138243   0.285   5.919   9.384  0.7399  0.0738  0.3381
 5536TIP3    H238244   0.261   5.771   9.359 -0.0850  0.2673 -0.0609
 5537TIP3   OH238245   2.110   0.423   1.400 -0.0354 -0.4466  0.4858
 5537TIP3    H138246   2.139   0.369   1.326 -1.9466 -0.2406 -0.4821
 5537TIP3    H238247   2.038   0.373   1.439 -0.9998  0.8000  0.3494
 5538TIP3   OH238248   4.844   0.312   9.926  0.0746  0.1526  0.1978
 5538TIP3    H138249   4.776   0.248   9.907 -0.5037  0.2739  1.7731
 5538TIP3    H238250   4.925   0.261   9.928  0.0559 -0.0189 -1.4955
 5539TIP3   OH238251   4.693   3.016   1.180  0.4481 -0.3289 -0.3050
 5539TIP3    H138252   4.702   3.107   1.153 -1.1246 -0.4326 -1.3047
 5539TIP3    H238253   4.643   3.021   1.262 -0.2899 -0.3262 -0.7533
 5540TIP3   OH238254   4.046   4.813   0.860 -0.2604 -0.0593  0.7171
 5540TIP3    H138255   4.044   4.894   0.809 -1.5356  0.0983  0.9914
 5540TIP3    H238256   4.042   4.743   0.795 -1.3892  0.1376  0.5505
 5541TIP3   OH238257   6.285   1.721   1.251  0.4998  0.1855  0.2932
 5541TIP3    H138258   6.353   1.670   1.295 -0.4798 -0.3864  1.1973
 5541TIP3    H238259   6.266   1.793   1.311 -0.2122 -0.0858  0.4040
 5542TIP3   OH238260   5.095   0.380   1.564  0.0543  0.3224 -0.1764
 5542TIP3    H138261   5.081   0.326   1.487 -0.7115 -0.5587  0.5634
 5542TIP3    H238262   5.110   0.318   1.635 -0.1093  1.0910  0.5549
 5543TIP3   OH238263   5.237   5.742   2.421 -0.0190 -0.0790 -0.3440
 5543TIP3    H138264   5.308   5.769   2.479  0.1968  0.3108 -0.7848
 5543TIP3    H238265   5.158   5.745   2.475  0.4470 -1.6654  0.4879
 5544TIP3   OH238266   5.306   5.239   8.293 -0.1578  0.0190 -0.2826
 5544TIP3    H138267   5.250   5.225   8.369 -0.2833 -0.4926 -0.4612
 5544TIP3    H238268   5.354   5.156   8.283  1.9664  1.0203  0.9334
 5545TIP3   OH238269   2.299   4.920   1.089 -0.6908 -0.3780  0.5250
 5545TIP3    H138270   2.392   4.941   1.087 -1.0135  1.2260 -2.2361
 5545TIP3    H238271   2.257   5.000   1.121 -1.2255 -0.6199  0.4441
 5546TIP3   OH238272   4.262   2.436   9.846 -0.6835 -0.4468 -0.1417
 5546TIP3    H138273   4.265   2.373   9.774 -1.9434 -2.4678  1.4802
 5546TIP3    H238274   4.349   2.430   9.886 -0.7717 -1.1334 -0.0397
 5547TIP3   OH238275   0.393   4.704   9.911 -0.0607 -0.5304 -0.5402
 5547TIP3    H138276   0.368   4.788   9.948 -2.4132 -1.5362  0.3151
 5547TIP3    H238277   0.487   4.696   9.932 -0.1311  1.2064  0.6375
 5548TIP3   OH238278   3.211   6.107   7.661  0.3305  0.3266  0.5090
 5548TIP3    H138279   3.183   6.030   7.711 -0.6526  0.2098 -0.1862
 5548TIP3    H238280   3.185   6.088   7.571  0.2520  1.3918  0.2912
 5549TIP3   OH238281   4.173   4.238   3.303  0.2213  0.4395  0.2305
 5549TIP3    H138282   4.084   4.246   3.339 -0.5889  0.8290 -1.7629
 5549TIP3    H238283   4.225   4.298   3.356 -0.8303  0.7019  1.0109
 5550TIP3   OH238284   1.621   4.447   0.599 -0.2346  0.0130 -0.3129
 5550TIP3    H138285   1.617   4.529   0.647  0.4272 -0.5147  0.6929
 5550TIP3    H238286   1.670   4.388   0.657  0.0555 -0.8278 -1.3802
 5551TIP3   OH238287   2.771   5.622   9.387  0.3788  0.0975  0.2883
 5551TIP3    H138288   2.728   5.666   9.460  0.9902  0.5847  0.3687
 5551TIP3    H238289   2.861   5.657   9.388  0.7820 -0.9044  0.1409
 5552TIP3   OH238290   5.581   4.329   3.092  0.1013  0.6162 -0.0259
 5552TIP3    H138291   5.591   4.235   3.075  0.3925  0.5116  0.6854
 5552TIP3    H238292   5.552   4.333   3.183  0.7205  1.2459  0.1463
 5553TIP3   OH238293   0.819   2.088   0.977  0.1711 -0.2864 -0.4566
 5553TIP3    H138294   0.819   1.992   0.973 -1.1504 -0.2744 -1.2937
 5553TIP3    H238295   0.735   2.110   1.018  0.1764  0.5248 -0.8716
 5554TIP3   OH238296   0.273   0.031   0.286  0.2407  0.0207  0.2791
 5554TIP3    H138297   0.217   0.087   0.233 -0.0178  0.7338  1.2698
 5554TIP3    H238298   0.310   0.089   0.352  0.7521 -0.7861  0.7291
 5555TIP3   OH238299   5.820   4.204   2.221 -0.0088  0.0281 -0.3345
 5555TIP3    H138300   5.730   4.190   2.194 -0.1387  0.7322 -0.2821
 5555TIP3    H238301   5.819   4.289   2.267  0.6327 -0.0585 -0.1456
 5556TIP3   OH238302   0.441   2.848   1.165 -0.2623  0.3814 -0.0207
 5556TIP3    H138303   0.507   2.786   1.196 -0.6872 -1.0883 -1.8956
 5556TIP3    H238304   0.373   2.847   1.233 -0.0660 -0.9130  0.1695
 5557TIP3   OH238305   0.455   5.777   0.027 -0.1082 -0.5342  0.4349
 5557TIP3    H138306   0.362   5.792   0.008 -0.3140 -2.1425  0.0674
 5557TIP3    H238307   0.500   5.846  -0.022 -1.1912  2.1639  2.9581
 5558TIP3   OH238308   4.081   4.025   9.165 -0.0351 -0.6878  0.3558
 5558TIP3    H138309   4.109   4.089   9.101  0.9209 -0.7260  0.7115
 5558TIP3    H238310   4.142   4.036   9.238 -0.0656 -1.7526  0.5639
 5559TIP3   OH238311   1.318   0.977   8.349 -0.2094 -0.3907  0.0199
 5559TIP3    H138312   1.315   0.922   8.270  0.6928  3.0191 -2.6574
 5559TIP3    H238313   1.412   0.986   8.368 -0.3961 -0.6338  1.0901
 5560TIP3   OH238314   4.262   6.052   9.019  0.0207  0.3017  0.1155
 5560TIP3    H138315   4.352   6.063   9.049 -0.1484  2.9503 -0.0491
 5560TIP3    H238316   4.209   6.065   9.098 -0.2357  0.9756 -0.1515
 5561TIP3   OH238317   5.878   6.341   8.894 -0.0815 -0.1188  0.3347
 5561TIP3    H138318   5.839   6.254   8.891  0.3129 -0.3875  2.0229
 5561TIP3    H238319   5.804   6.401   8.896 -0.3574 -0.4184 -0.4975
 5562TIP3   OH238320   6.042   3.596   2.068  0.3109  0.1802  0.4076
 5562TIP3    H138321   6.129   3.601   2.106 -0.8544  1.1982  3.1877
 5562TIP3    H238322   6.012   3.507   2.087 -0.2993  0.7094  2.1061
 5563TIP3   OH238323   5.243   1.963   9.548 -0.1248  0.1241  0.3362
 5563TIP3    H138324   5.149   1.972   9.564  0.0840 -1.3121  2.9422
 5563TIP3    H238325   5.260   1.869   9.554  1.3755  0.2624 -0.9859
 5564TIP3   OH238326   5.006   3.505   3.067  0.4678  0.8144  0.4347
 5564TIP3    H138327   5.000   3.573   3.000  1.0308  2.0940  1.6306
 5564TIP3    H238328   5.100   3.488   3.075  0.3341 -0.0651  0.1971
 5565TIP3   OH238329   3.067   0.151   8.731  0.5314  0.1204  0.3364
 5565TIP3    H138330   3.144   0.103   8.760  1.7292 -0.7210 -3.5662
 5565TIP3    H238331   2.994   0.090   8.745  1.5540 -1.6601 -1.4626
 5566TIP3   OH238332   4.271   3.275   1.755  0.3730  0.3428 -0.3627
 5566TIP3    H138333   4.212   3.206   1.787  0.5478  0.1905 -0.3726
 5566TIP3    H238334   4.336   3.229   1.703 -0.1667  0.6284 -1.3226
 5567TIP3   OH238335   5.451   5.960   1.165  0.0210 -0.2429 -0.2717
 5567TIP3    H138336   5.498   5.891   1.118  0.0501 -0.0203 -0.5716
 5567TIP3    H238337   5.362   5.927   1.173  0.0482 -0.3383 -0.3662
 5568TIP3   OH238338   4.697   5.732   0.233 -0.0060 -0.5041 -0.1903
 5568TIP3    H138339   4.673   5.763   0.145 -0.2516 -0.3832 -0.0829
 5568TIP3    H238340   4.630   5.667   0.255  1.1122 -1.9379 -0.8508
 5569TIP3   OH238341   4.704   5.532   1.035  0.0919 -0.2608 -0.1501
 5569TIP3    H138342   4.715   5.441   1.063  2.2898  0.3725  1.2873
 5569TIP3    H238343   4.614   5.553   1.057 -0.0543 -1.6856  0.7450
 5570TIP3   OH238344   1.695   4.313   2.322 -0.3220  0.1833  0.1491
 5570TIP3    H138345   1.764   4.262   2.364  0.8977  2.8565  1.6418
 5570TIP3    H238346   1.651   4.250   2.265  1.3997 -2.3534  1.3973
 5571TIP3   OH238347   2.157   6.228   9.603  0.0461 -0.5109 -0.1612
 5571TIP3    H138348   2.103   6.203   9.678  2.0252 -2.3373  0.7357
 5571TIP3    H238349   2.094   6.262   9.539 -2.0232 -1.5186  1.2266
 5572TIP3   OH238350   3.336   4.048   9.381 -0.2252 -0.4742  0.0488
 5572TIP3    H138351   3.251   4.004   9.377 -0.6682  0.4291 -0.7306
 5572TIP3    H238352   3.335   4.110   9.308  0.7218  0.2361  0.6143
 5573TIP3   OH238353   0.374   1.956   0.912 -0.2010 -0.5644 -0.0494
 5573TIP3    H138354   0.463   1.984   0.889 -0.5730 -0.8537 -2.0178
 5573TIP3    H238355   0.355   1.885   0.851 -1.7794 -0.5016  0.3374
 5574TIP3   OH238356   2.713   5.454   1.751  0.5742  0.0730 -0.1379
 5574TIP3    H138357   2.650   5.492   1.812  1.3144  0.4128  0.4441
 5574TIP3    H238358   2.669   5.454   1.666 -0.5369 -0.5570  0.4228
 5575TIP3   OH238359   6.043   1.633   1.802 -0.2986 -0.2787 -0.4087
 5575TIP3    H138360   5.993   1.632   1.721 -0.3584  0.2115 -0.3806
 5575TIP3    H238361   6.102   1.708   1.793 -1.4947  0.8429  0.7062
 5576TIP3   OH238362   0.513   0.633   2.144 -0.3179 -0.3715  0.4274
 5576TIP3    H138363   0.594   0.632   2.194 -0.3201 -0.5294  0.4267
 5576TIP3    H238364   0.517   0.714   2.093  0.6668 -1.2461 -0.9434
 5577TIP3   OH238365   6.291   3.168   2.407  0.4184  0.0574  0.7040
 5577TIP3    H138366   6.302   3.256   2.369 -0.5526  1.0695  2.6136
 5577TIP3    H238367   6.364   3.159   2.468  0.7842 -0.6903  0.1740
 5578TIP3   OH238368   4.277   4.324   0.141  0.3143 -0.2314 -0.7657
 5578TIP3    H138369   4.278   4.416   0.167  1.7432 -0.7427  1.2152
 5578TIP3    H238370   4.339   4.320   0.068  1.9253  0.0638  0.5273
 5579TIP3   OH238371   4.773   1.067   1.176 -0.0059 -0.3357  0.0540
 5579TIP3    H138372   4.696   1.122   1.196  1.0697  1.7447 -1.2407
 5579TIP3    H238373   4.846   1.112   1.219  0.8715 -0.9042 -0.8095
 5580TIP3   OH238374   5.511   6.184   8.811  0.2314  0.0688 -0.2161
 5580TIP3    H138375   5.456   6.134   8.750 -0.0457  1.2708 -0.9854
 5580TIP3    H238376   5.479   6.274   8.803 -0.2481  0.1656  2.2086
 5581TIP3   OH238377   4.113   5.675   4.109 -0.1441 -0.0631  0.8865
 5581TIP3    H138378   4.106   5.746   4.044 -1.3465 -1.1366 -0.2259
 5581TIP3    H238379   4.193   5.695   4.158  1.6326  0.1018 -1.8303
 5582TIP3   OH238380   5.101   2.668   2.189 -0.1991  0.5241  0.2334
 5582TIP3    H138381   5.040   2.742   2.188 -2.4325 -1.1948  0.4259
 5582TIP3    H238382   5.076   2.617   2.267 -2.6908 -3.3262 -2.6424
 5583TIP3   OH238383   3.199   2.965   7.615  0.4650  0.0610 -0.0723
 5583TIP3    H138384   3.151   3.038   7.653  0.9449 -0.0281  0.7184
 5583TIP3    H238385   3.206   2.901   7.685 -2.4305 -2.0479 -1.4975
 5584TIP3   OH238386   1.528   0.807   2.088 -0.1966 -0.3415  0.0594
 5584TIP3    H138387   1.447   0.820   2.137 -0.7103 -0.9257 -0.6104
 5584TIP3    H238388   1.579   0.887   2.104 -1.5266  0.6888 -0.6794
 5585TIP3   OH238389   4.710   0.633   8.157  0.4387  0.1922 -0.3016
 5585TIP3    H138390   4.736   0.643   8.065  0.0616  0.2698 -0.3996
 5585TIP3    H238391   4.778   0.577   8.195  0.2159 -0.4377 -0.8036
 5586TIP3   OH238392   2.524   1.613   9.183 -0.3913 -0.7780 -0.2687
 5586TIP3    H138393   2.487   1.692   9.145 -1.4376 -0.4371  1.3419
 5586TIP3    H238394   2.551   1.639   9.271  0.1495 -1.9761 -0.0592
 5587TIP3   OH238395   5.936   6.232   0.859  0.2798  0.4426 -0.1466
 5587TIP3    H138396   5.841   6.239   0.849  0.0878 -0.6088  0.6828
 5587TIP3    H238397   5.948   6.196   0.947  1.4356  0.2765 -0.3526
 5588TIP3   OH238398   5.837   0.942   0.088  0.4598  0.0917  0.2000
 5588TIP3    H138399   5.797   0.856   0.095  1.7362 -0.4073  2.3473
 5588TIP3    H238400   5.894   0.937   0.011  1.3045 -1.3640  0.8859
 5589TIP3   OH238401   1.947   2.400   8.516  0.3389 -0.2506 -0.3520
 5589TIP3    H138402   1.872   2.345   8.539  1.3144 -1.5727 -0.2598
 5589TIP3    H238403   2.000   2.346   8.458  1.1868  0.6953 -0.4865
 5590TIP3   OH238404   1.227   5.048   0.130  0.0646 -0.0354 -0.1011
 5590TIP3    H138405   1.260   5.069   0.042  1.0171  1.0304  0.4879
 5590TIP3    H238406   1.232   5.130   0.178  0.2672 -0.7666  1.1736
 5591TIP3   OH238407   4.954   1.503   0.952  0.1494  0.2871  0.0930
 5591TIP3    H138408   5.014   1.572   0.982  0.5608 -0.0579  0.0766
 5591TIP3    H238409   4.937   1.525   0.860  1.5061 -0.4611 -0.3756
 5592TIP3   OH238410   2.884   5.480   8.668  0.2216  0.2176 -0.0062
 5592TIP3    H138411   2.825   5.554   8.683 -0.4698  0.5418 -3.5221
 5592TIP3    H238412   2.970   5.521   8.658  0.1034  0.4007 -0.3194
 5593TIP3   OH238413   0.385   5.632   0.654 -0.2319 -0.6337  0.7528
 5593TIP3    H138414   0.291   5.636   0.669 -0.3793 -0.8542 -0.0912
 5593TIP3    H238415   0.423   5.624   0.742 -0.8688  1.5228  1.2677
 5594TIP3   OH238416   3.295   4.641   9.479  0.1049  0.2099 -0.0695
 5594TIP3    H138417   3.292   4.649   9.384  0.4682 -0.8098 -0.1766
 5594TIP3    H238418   3.228   4.701   9.510  1.3310  2.0704 -0.8597
 5595TIP3   OH238419   0.173   5.703   0.361  0.3107 -0.1296  0.0745
 5595TIP3    H138420   0.196   5.791   0.391  1.2571 -0.2177 -0.3746
 5595TIP3    H238421   0.248   5.674   0.309 -0.9486 -0.2466 -1.8225
 5596TIP3   OH238422   1.553   4.517   9.481  0.5815  0.5146  0.1838
 5596TIP3    H138423   1.489   4.456   9.516  0.6165  0.1376 -0.4017
 5596TIP3    H238424   1.504   4.569   9.417  1.0461 -0.3855 -0.9457
 5597TIP3   OH238425   5.348   6.077   8.608 -0.7539 -0.0614  0.1357
 5597TIP3    H138426   5.366   5.984   8.623  0.2706 -0.0160 -0.6879
 5597TIP3    H238427   5.369   6.090   8.515 -0.1970  1.1555  0.4177
 5598TIP3   OH238428   5.697   1.424   0.195  0.1673 -0.2882 -0.4690
 5598TIP3    H138429   5.677   1.498   0.252  1.0226 -0.1377 -0.3552
 5598TIP3    H238430   5.792   1.425   0.186  0.0206  0.0950 -2.4317
 5599TIP3   OH238431   1.439   1.671   1.561  0.7388  0.7933  0.2996
 5599TIP3    H138432   1.385   1.736   1.516 -1.2844  1.6557  3.6257
 5599TIP3    H238433   1.486   1.722   1.628 -0.6759 -0.9865  2.8127
 5600TIP3   OH238434   3.743   0.228   0.200  0.1619  0.2274  0.4144
 5600TIP3    H138435   3.791   0.235   0.118 -0.3131  0.4091  0.1476
 5600TIP3    H238436   3.756   0.313   0.242 -1.0930  0.8103 -0.3168
 5601TIP3   OH238437   3.808   0.556   9.266 -0.1583  0.2954  0.0374
 5601TIP3    H138438   3.778   0.510   9.187 -0.5391 -0.4372  0.5959
 5601TIP3    H238439   3.878   0.502   9.300 -0.5073  0.2025  0.6193
 5602TIP3   OH238440   3.599   5.382   1.130  0.4139 -0.3531 -0.5881
 5602TIP3    H138441   3.692   5.376   1.105  0.4519 -1.3940 -0.2098
 5602TIP3    H238442   3.554   5.400   1.047  0.9140 -0.2115 -0.8377
 5603TIP3   OH238443   4.583   2.575   9.177  0.5068 -0.5183 -0.4717
 5603TIP3    H138444   4.516   2.586   9.245  2.2096  0.7909  1.1002
 5603TIP3    H238445   4.603   2.481   9.178  0.0307 -0.6202  0.3780
 5604TIP3   OH238446   1.869   1.283   9.520  0.0456 -0.0905 -0.1687
 5604TIP3    H138447   1.797   1.277   9.457  0.6447  0.0305 -0.8868
 5604TIP3    H238448   1.919   1.359   9.491  1.6028 -1.3479 -0.9097
 5605TIP3   OH238449   2.090   5.865   8.973 -0.1447  0.2863  0.0463
 5605TIP3    H138450   2.004   5.907   8.976  0.1234  0.8409  0.1700
 5605TIP3    H238451   2.127   5.878   9.061  0.5128  1.0462 -0.3182
 5606TIP3   OH238452   1.350   5.848   7.515 -0.0982  0.6141  0.0043
 5606TIP3    H138453   1.370   5.776   7.574  0.7100  1.3621  0.6777
 5606TIP3    H238454   1.352   5.809   7.427 -0.2830 -0.2957  0.3971
 5607TIP3   OH238455   2.322   5.797   8.022  0.0794  1.3252 -0.2266
 5607TIP3    H138456   2.258   5.785   8.092 -0.3815 -2.0495 -1.0316
 5607TIP3    H238457   2.278   5.853   7.958 -1.1323  1.0526  0.3352
 5608TIP3   OH238458   4.571   4.733   2.678 -0.4412 -0.1646  0.0228
 5608TIP3    H138459   4.504   4.760   2.741  0.0607  1.4170 -0.0928
 5608TIP3    H238460   4.648   4.784   2.701  0.2222 -0.7036 -0.9216
 5609TIP3   OH238461   0.188   4.795   2.639  0.1601  0.4234  0.5257
 5609TIP3    H138462   0.099   4.815   2.608  0.2431 -1.1037 -0.7965
 5609TIP3    H238463   0.245   4.847   2.582  0.1552  0.7798  0.8427
 5610TIP3   OH238464   0.022   1.695   0.719 -0.2937  0.0576 -0.1306
 5610TIP3    H138465  -0.043   1.625   0.724  0.7600 -1.3233 -3.1895
 5610TIP3    H238466  -0.030   1.774   0.703 -1.3289 -0.6179 -0.2216
 5611TIP3   OH238467   5.293   3.972   0.727  0.1552 -0.0491  0.0837
 5611TIP3    H138468   5.332   4.049   0.685 -1.9818  0.5350 -0.9615
 5611TIP3    H238469   5.258   4.006   0.810 -1.7698  0.4384 -0.8690
 5612TIP3   OH238470   5.043   2.879   1.705 -0.3729  0.5817 -0.1842
 5612TIP3    H138471   5.136   2.903   1.706 -0.5953  1.4608 -0.1272
 5612TIP3    H238472   5.007   2.927   1.630 -0.6628 -0.2256 -0.5722
 5613TIP3   OH238473   2.155   4.798   3.435 -0.0250 -0.3798  0.2140
 5613TIP3    H138474   2.139   4.821   3.527 -1.1952 -2.0867  0.4812
 5613TIP3    H238475   2.249   4.807   3.424  0.0649  0.3734  1.4235
 5614TIP3   OH238476   4.271   3.576   3.513  0.7765  0.6319  0.0928
 5614TIP3    H138477   4.193   3.628   3.532  0.9269  0.4669  1.2081
 5614TIP3    H238478   4.343   3.624   3.556  1.1087  0.1634  0.0660
 5615TIP3   OH238479   6.019   1.380   1.622 -0.1365 -0.3670  0.2799
 5615TIP3    H138480   5.931   1.371   1.658 -0.1820 -0.8327  0.0668
 5615TIP3    H238481   6.073   1.323   1.678 -0.3754 -1.8610 -0.9359
 5616TIP3   OH238482   2.844   2.522   1.791 -0.0060  0.4692  0.2567
 5616TIP3    H138483   2.776   2.568   1.741  1.0313  1.9236  0.1010
 5616TIP3    H238484   2.821   2.430   1.785 -0.6950  0.7208 -1.7642
 5617TIP3   OH238485   2.713   3.442   8.188  0.0268  0.2341  0.7635
 5617TIP3    H138486   2.745   3.423   8.276 -0.0387  0.1468  0.7687
 5617TIP3    H238487   2.660   3.366   8.165  0.2038  0.1658  0.5729
 5618TIP3   OH238488   2.936   5.846   1.202  0.0435 -0.1201 -0.1499
 5618TIP3    H138489   2.857   5.827   1.150  0.8057 -1.2967 -0.9434
 5618TIP3    H238490   2.952   5.939   1.189 -0.6160 -0.0954 -0.8648
 5619TIP3   OH238491   1.071   3.229   9.571 -0.6454 -0.1275 -0.1245
 5619TIP3    H138492   1.013   3.153   9.566 -0.7151 -0.0061 -1.3412
 5619TIP3    H238493   1.126   3.223   9.493  0.2434  0.3622  0.4459
 5620TIP3   OH238494   3.123   0.406   1.370 -0.3808  0.1846 -0.1806
 5620TIP3    H138495   3.173   0.465   1.426 -1.7564  1.6675 -0.4604
 5620TIP3    H238496   3.032   0.428   1.386 -0.9422 -1.7107 -0.5015
 5621TIP3   OH238497   6.100   5.554   0.597  0.2160 -0.0420  0.5322
 5621TIP3    H138498   6.048   5.595   0.528  1.2977 -1.2881 -1.1174
 5621TIP3    H238499   6.180   5.607   0.603  0.4003 -0.2982  0.3669
 5622TIP3   OH238500   0.910   3.775   0.369 -0.6876 -0.8407 -0.0787
 5622TIP3    H138501   0.876   3.801   0.283 -1.6030  0.3889  0.6268
 5622TIP3    H238502   0.965   3.849   0.396 -0.8383 -0.9872  0.6325
 5623TIP3   OH238503   0.555   6.113   8.925  0.2910 -0.2417  0.1581
 5623TIP3    H138504   0.516   6.198   8.946  2.0683  0.4606  0.8206
 5623TIP3    H238505   0.485   6.064   8.881 -1.5300  0.6591  1.9019
 5624TIP3   OH238506   2.430   5.306   9.241  0.3850  0.3151 -0.2190
 5624TIP3    H138507   2.447   5.400   9.241  1.1427  0.1788 -0.6159
 5624TIP3    H238508   2.482   5.273   9.314 -0.4197  0.2913  0.3575
 5625TIP3   OH238509   2.892   0.471   9.022 -0.6100 -0.6056 -0.0204
 5625TIP3    H138510   2.966   0.527   9.000  0.0164 -1.4113 -0.0354
 5625TIP3    H238511   2.914   0.386   8.982 -1.0447 -1.1517  0.8610
 5626TIP3   OH238512   4.932   4.129   0.628  0.3840  0.2318 -0.2453
 5626TIP3    H138513   4.981   4.167   0.701  2.1056 -1.2435 -0.5484
 5626TIP3    H238514   4.997   4.076   0.582 -1.5784 -2.0997 -0.5011
 5627TIP3   OH238515   4.586   2.047   7.858 -0.0549  0.4519 -0.9441
 5627TIP3    H138516   4.658   2.054   7.921  0.4717 -1.9793 -1.1797
 5627TIP3    H238517   4.626   2.068   7.774  0.4208 -0.8731 -1.0721
 5628TIP3   OH238518   0.237   2.035   0.266 -0.3386  0.8202 -0.4376
 5628TIP3    H138519   0.186   1.958   0.292  1.6280 -0.6153 -0.6165
 5628TIP3    H238520   0.211   2.050   0.175 -1.1078  0.6717 -0.2472
 5629TIP3   OH238521   0.733   0.645   2.290  0.0097 -0.0408  0.4026
 5629TIP3    H138522   0.823   0.645   2.255 -0.1184 -0.4125  0.0679
 5629TIP3    H238523   0.735   0.579   2.359 -0.3008 -0.8898 -0.3867
 5630TIP3   OH238524   2.572   3.758   9.053  0.5844  0.0699  0.4449
 5630TIP3    H138525   2.545   3.814   8.980  0.7585 -0.6530 -0.1901
 5630TIP3    H238526   2.491   3.724   9.089  0.4865  0.5896  0.7256
 5631TIP3   OH238527   3.882   0.114   8.237 -0.0051  0.1257  0.3726
 5631TIP3    H138528   3.864   0.024   8.210  1.7199 -0.4919  1.1057
 5631TIP3    H238529   3.855   0.167   8.162  2.0862 -1.3113 -1.5524
 5632TIP3   OH238530   1.758   4.765   3.213 -0.4984  0.1640  0.2272
 5632TIP3    H138531   1.845   4.782   3.177 -1.6072  0.6494 -2.4393
 5632TIP3    H238532   1.753   4.821   3.290  1.6990 -0.2480  0.7391
 5633TIP3   OH238533   1.143   5.804   8.542  0.2722  0.1348 -0.3238
 5633TIP3    H138534   1.060   5.847   8.522  0.7560  1.0152 -0.4677
 5633TIP3    H238535   1.209   5.859   8.502  1.1246  0.7855  1.8264
 5634TIP3   OH238536   2.225   2.457   0.997  0.1139 -0.2221  0.2512
 5634TIP3    H138537   2.236   2.542   0.954  3.1025  0.1119  1.4968
 5634TIP3    H238538   2.251   2.472   1.087 -2.7366 -1.7224  1.4691
 5635TIP3   OH238539   4.809   5.335   2.304  0.3529 -0.0331  0.2477
 5635TIP3    H138540   4.822   5.410   2.247 -0.6318  0.8451  1.1439
 5635TIP3    H238541   4.876   5.272   2.277 -1.5554 -0.7188 -3.5574
 5636TIP3   OH238542   3.023   3.065   0.342 -0.8097 -1.1958 -0.0160
 5636TIP3    H138543   3.096   3.007   0.322  0.7673  1.1784 -1.6359
 5636TIP3    H238544   2.971   3.067   0.261 -0.4267  0.1293 -0.2597
 5637TIP3   OH238545   4.176   4.353   1.000  0.2227  0.3423  0.3913
 5637TIP3    H138546   4.182   4.259   1.017  1.0168  0.2738 -0.2232
 5637TIP3    H238547   4.263   4.377   0.968  0.2087  1.4013  1.0904
 5638TIP3   OH238548   0.066   1.926   1.367  0.2992  0.1134 -0.2888
 5638TIP3    H138549   0.090   1.924   1.460  2.8125  0.0073 -0.8811
 5638TIP3    H238550   0.100   1.843   1.332  1.4277  1.1285 -1.7228
 5639TIP3   OH238551   1.487   5.012   0.692 -0.0673 -0.1944 -0.6094
 5639TIP3    H138552   1.420   5.023   0.624 -0.3173 -2.8559 -0.9124
 5639TIP3    H238553   1.490   4.917   0.707  1.8695  0.0867  1.2125
 5640TIP3   OH238554   6.053   2.040   0.741 -0.4274 -0.0310 -0.0554
 5640TIP3    H138555   6.015   1.961   0.702  0.2197 -1.2667  1.6586
 5640TIP3    H238556   5.983   2.104   0.741 -1.5056 -1.1773  0.0206
 5641TIP3   OH238557   4.853   1.683   1.533  0.1057 -0.4444  0.2536
 5641TIP3    H138558   4.780   1.740   1.509  0.2007  0.4072  1.8698
 5641TIP3    H238559   4.834   1.655   1.622  0.8473 -1.7009  0.0410
 5642TIP3   OH238560   1.839   2.185   9.182  0.0022 -0.4351 -0.3767
 5642TIP3    H138561   1.768   2.122   9.177  0.6899 -1.1995 -0.6815
 5642TIP3    H238562   1.915   2.139   9.148  0.7899  0.1621  0.5123
 5643TIP3   OH238563   6.280   3.762   3.090  0.0673  0.6520 -0.0668
 5643TIP3    H138564   6.259   3.820   3.017  1.0674  0.2554 -0.6792
 5643TIP3    H238565   6.282   3.821   3.166  0.4723  1.3272 -0.5845
 5644TIP3   OH238566   1.357   6.329   9.996  0.3171 -0.4230 -0.1339
 5644TIP3    H138567   1.383   6.338   9.905  0.7744  0.7886  0.1066
 5644TIP3    H238568   1.380   6.239  10.019  1.7175 -0.2276 -0.7296
 5645TIP3   OH238569   5.697   1.968   2.326  0.2355  0.5517  0.0306
 5645TIP3    H138570   5.609   1.987   2.294  0.4977  0.8076 -0.5439
 5645TIP3    H238571   5.691   1.982   2.420  0.1038  2.2890 -0.2116
 5646TIP3   OH238572   5.241   5.545   7.689 -0.5025  0.0754  0.1373
 5646TIP3    H138573   5.288   5.587   7.760 -0.3044 -0.7992  0.5282
 5646TIP3    H238574   5.165   5.505   7.730 -0.6781  0.0252 -0.2258
 5647TIP3   OH238575   5.918   4.954   2.026 -0.0789  0.3674 -0.3075
 5647TIP3    H138576   6.007   4.929   2.001  0.5456  1.9755  0.1466
 5647TIP3    H238577   5.902   4.909   2.108  0.5376  0.4653 -0.1261
 5648TIP3   OH238578   0.796   6.172   2.680 -0.0540  0.4791 -0.0412
 5648TIP3    H138579   0.759   6.087   2.655  1.5675 -0.0671 -0.7581
 5648TIP3    H238580   0.890   6.157   2.682  0.3360  2.4614 -0.9420
 5649TIP3   OH238581   1.218   4.254   0.119 -0.0479 -0.1416  0.0082
 5649TIP3    H138582   1.177   4.171   0.143 -0.8087  0.1711 -0.1608
 5649TIP3    H238583   1.145   4.316   0.115  0.4189  0.3870 -0.5242
 5650TIP3   OH238584   1.612   4.768   0.398 -0.1376 -0.1424 -0.7413
 5650TIP3    H138585   1.570   4.850   0.374 -1.3227 -0.7138 -0.6939
 5650TIP3    H238586   1.581   4.705   0.333  0.2125 -0.7053 -0.3738
 5651TIP3   OH238587   5.207   1.096   8.802  0.0423  0.6597  0.1126
 5651TIP3    H138588   5.238   1.185   8.787 -0.9224  0.9793 -0.0497
 5651TIP3    H238589   5.181   1.064   8.716  0.1303  0.3181  0.2085
 5652TIP3   OH238590   6.098   3.434   1.070 -0.1286 -0.0254 -0.2423
 5652TIP3    H138591   6.092   3.339   1.085  2.0347  0.0519  1.4796
 5652TIP3    H238592   6.182   3.447   1.028 -0.1053  1.2020  0.1430
 5653TIP3   OH238593   5.605   0.569   8.448 -0.0789 -0.5026 -0.2200
 5653TIP3    H138594   5.626   0.486   8.405  1.3467 -0.5710  0.5675
 5653TIP3    H238595   5.637   0.636   8.388  2.2345 -0.6026  0.8268
 5654TIP3   OH238596   5.191   0.985   1.570  0.3406  0.1375  0.0969
 5654TIP3    H138597   5.263   0.981   1.633  2.5122 -1.2544 -2.3200
 5654TIP3    H238598   5.192   1.075   1.537  0.0369  0.5044  1.0546
 5655TIP3   OH238599   0.062   1.156   8.646  0.3708  0.1245  0.3355
 5655TIP3    H138600   0.052   1.109   8.563  0.4479  0.6128  0.0439
 5655TIP3    H238601  -0.007   1.223   8.643 -0.0416 -0.2621  0.9553
 5656TIP3   OH238602   0.787   1.182   9.033 -0.0848  0.1298  0.3816
 5656TIP3    H138603   0.825   1.208   9.117 -0.4463  1.2519  0.2259
 5656TIP3    H238604   0.800   1.259   8.977 -2.1498  0.3994  0.1970
 5657TIP3   OH238605   0.382   0.896   7.541  0.2988  0.8432  0.0249
 5657TIP3    H138606   0.291   0.873   7.558  0.7724 -1.2546 -0.0536
 5657TIP3    H238607   0.428   0.812   7.534  1.9911  1.8128 -1.3517
 5658TIP3   OH238608   2.408   5.196   8.496 -0.2351  0.1484  0.3382
 5658TIP3    H138609   2.317   5.170   8.478 -0.0489  0.2974 -0.9239
 5658TIP3    H238610   2.449   5.199   8.409  1.3282 -1.1329  1.0000
 5659TIP3   OH238611   3.717   1.810   9.279 -0.3448  0.1223  0.6723
 5659TIP3    H138612   3.724   1.774   9.367  0.3160 -0.0011  0.5749
 5659TIP3    H238613   3.794   1.868   9.271 -1.0648  1.1003  0.6205
 5660TIP3   OH238614   2.097   1.593   0.804  0.4732 -0.2990  0.4261
 5660TIP3    H138615   2.182   1.557   0.779 -0.2500 -0.9548 -1.2528
 5660TIP3    H238616   2.100   1.599   0.899  2.4210 -0.2284  0.3960
 5661TIP3   OH238617   2.110   4.704   8.525  0.6972 -0.2360 -0.6604
 5661TIP3    H138618   2.158   4.684   8.605  1.7835 -0.8149 -1.4330
 5661TIP3    H238619   2.153   4.782   8.490 -1.8565  2.1018  0.9688
 5662TIP3   OH238620   1.847   0.735   1.025  0.0442  0.3878  0.4517
 5662TIP3    H138621   1.907   0.806   1.050 -1.1873  1.0227  1.7547
 5662TIP3    H238622   1.882   0.658   1.070  1.5720  0.0315 -1.2213
 5663TIP3   OH238623   5.403   2.444   9.251 -0.3188 -0.0322  0.3459
 5663TIP3    H138624   5.339   2.465   9.183 -1.5427 -2.9364  0.4356
 5663TIP3    H238625   5.468   2.513   9.245 -2.6850  2.2805 -0.7537
 5664TIP3   OH238626   3.962   1.732   1.837 -0.0007 -0.0310 -0.6322
 5664TIP3    H138627   4.029   1.670   1.809  0.3605 -0.2053  0.5376
 5664TIP3    H238628   3.879   1.693   1.810  0.2979 -0.4535 -0.9342
 5665TIP3   OH238629   4.700   5.415   9.336 -0.4606  0.6100  0.3079
 5665TIP3    H138630   4.618   5.460   9.317 -0.3533  0.7354  0.1373
 5665TIP3    H238631   4.696   5.397   9.430  0.7853  3.6014  1.0444
 5666TIP3   OH238632   4.313   5.658   9.912  0.2047  0.4768 -0.4914
 5666TIP3    H138633   4.332   5.747   9.942  0.8770  0.1089  0.2317
 5666TIP3    H238634   4.398   5.613   9.914 -0.0415 -0.0404 -1.3373
 5667TIP3   OH238635   3.722   4.376   8.468  0.1531 -0.4230  0.2888
 5667TIP3    H138636   3.678   4.307   8.418  0.1917  0.6541 -1.3272
 5667TIP3    H238637   3.809   4.340   8.486  0.5869 -0.4168 -1.5535
 5668TIP3   OH238638   6.019   3.988   1.735 -0.1598  0.0466  0.2468
 5668TIP3    H138639   6.016   3.895   1.755  0.8636 -0.3358 -1.2506
 5668TIP3    H238640   5.929   4.010   1.708 -0.7319 -0.1668  1.8721
 5669TIP3   OH238641   1.989   2.098   9.612  0.1112 -0.0869 -0.5983
 5669TIP3    H138642   2.063   2.116   9.554  0.4744 -1.6516 -0.6554
 5669TIP3    H238643   2.021   2.122   9.699  0.2934  0.2646 -0.7564
 5670TIP3   OH238644   6.144   5.276   8.288  0.3170 -0.0073  0.3904
 5670TIP3    H138645   6.108   5.262   8.376  0.5225  2.1221  0.8614
 5670TIP3    H238646   6.074   5.247   8.230 -1.2529  1.6776  1.2999
 5671TIP3   OH238647   1.322   2.407   8.278 -0.2554  0.2541  0.0120
 5671TIP3    H138648   1.288   2.469   8.214  0.5598  0.7741  0.0762
 5671TIP3    H238649   1.390   2.359   8.231 -0.1435  0.1509  0.2759
 5672TIP3   OH238650   5.987   5.635   0.904  0.0457  0.3152  0.0574
 5672TIP3    H138651   5.928   5.561   0.895 -1.2892  1.3703 -0.1670
 5672TIP3    H238652   6.029   5.623   0.990 -0.7069 -0.2977  0.3452
 5673TIP3   OH238653   4.821   2.895   9.568 -0.1509 -0.8189  0.3195
 5673TIP3    H138654   4.893   2.958   9.578  0.0729 -0.9485 -0.4428
 5673TIP3    H238655   4.743   2.942   9.597 -0.4448  0.7165 -2.6056
 5674TIP3   OH238656   1.770   3.242   1.225  0.0974 -0.1063  0.1805
 5674TIP3    H138657   1.829   3.183   1.179  0.8624  1.5160 -1.0022
 5674TIP3    H238658   1.709   3.273   1.158 -1.2325 -0.6308  1.0870
 5675TIP3   OH238659   2.079   0.475   9.859  0.4468 -0.3212 -0.6980
 5675TIP3    H138660   2.152   0.458   9.918  0.5495 -0.7821 -0.9549
 5675TIP3    H238661   2.088   0.410   9.790 -0.5554 -0.7792 -0.4195
 5676TIP3   OH238662   2.326   5.744   9.520 -0.2667 -0.3407 -0.1941
 5676TIP3    H138663   2.241   5.725   9.560 -0.5517 -0.3923 -0.8136
 5676TIP3    H238664   2.377   5.663   9.534 -0.2447 -0.2382  0.3515
 5677TIP3   OH238665   3.405   2.544   1.247  0.3636  0.5859  0.2291
 5677TIP3    H138666   3.486   2.510   1.208  0.1857  1.5288 -1.0382
 5677TIP3    H238667   3.391   2.489   1.324  1.2765 -0.7156 -0.4858
 5678TIP3   OH238668   5.055   5.134   3.144  0.4595  0.3128  0.0871
 5678TIP3    H138669   5.140   5.124   3.102  0.7618  0.2767  0.7065
 5678TIP3    H238670   5.044   5.055   3.197  1.5478  1.7773  2.6610
 5679TIP3   OH238671   4.705   5.217   1.894  0.4720  0.3088 -0.0379
 5679TIP3    H138672   4.792   5.208   1.853  0.1420 -2.1305 -0.3494
 5679TIP3    H238673   4.645   5.177   1.831 -0.5458 -0.2236  1.2317
 5680TIP3   OH238674   1.798   3.471   0.895  0.1040 -0.5693 -0.6661
 5680TIP3    H138675   1.793   3.376   0.886 -1.2455 -0.3253 -3.7434
 5680TIP3    H238676   1.707   3.499   0.905  0.5937  0.3705  1.8592
 5681TIP3   OH238677   0.171   3.922   9.363  0.2391  0.5357 -0.2757
 5681TIP3    H138678   0.242   3.943   9.303 -0.3019  0.5352 -0.9250
 5681TIP3    H238679   0.187   3.832   9.389  2.6081  1.6083  2.5646
 5682TIP3   OH238680   5.033   1.821   7.808 -0.2751 -0.3251 -0.5388
 5682TIP3    H138681   5.116   1.866   7.824 -0.9768  0.1523  2.1911
 5682TIP3    H238682   5.050   1.729   7.829  0.0366 -0.6277 -1.9741
 5683TIP3   OH238683   2.892   2.846   2.648  0.2425 -0.0157  0.0951
 5683TIP3    H138684   2.839   2.874   2.723 -2.2850  0.5217 -1.7325
 5683TIP3    H238685   2.862   2.757   2.629 -2.4568  1.2831 -2.7368
 5684TIP3   OH238686   4.044   4.746   9.470  0.0752 -0.3875  0.0632
 5684TIP3    H138687   4.127   4.791   9.455  0.5749 -1.6470 -1.1565
 5684TIP3    H238688   3.978   4.815   9.467  1.1039  0.6936  1.5250
 5685TIP3   OH238689   4.024   3.905   2.475 -0.0733  0.3614 -0.2528
 5685TIP3    H138690   4.066   3.979   2.432  2.0518  0.4807  1.8533
 5685TIP3    H238691   4.065   3.828   2.437 -1.5059  0.2299 -1.6518
 5686TIP3   OH238692   3.115   2.510   3.576  0.8574  0.3544  0.0123
 5686TIP3    H138693   3.169   2.432   3.589  0.1713  0.0095  0.8830
 5686TIP3    H238694   3.166   2.582   3.613  0.1042 -0.1964  2.2255
 5687TIP3   OH238695   1.951   5.243   9.671 -0.0620  0.2161  0.8697
 5687TIP3    H138696   1.863   5.278   9.659  0.0449  0.3595  0.5012
 5687TIP3    H238697   1.945   5.190   9.751 -1.0781 -1.7001 -0.3755
 5688TIP3   OH238698   1.008   5.247   9.023  0.7122  0.0905 -0.3854
 5688TIP3    H138699   0.929   5.300   9.021  0.8699  0.3391 -0.0446
 5688TIP3    H238700   0.977   5.157   9.031  0.4851  0.2409  0.4711
 5689TIP3   OH238701   5.071   6.036   0.531  0.9271 -0.2599  0.0607
 5689TIP3    H138702   5.066   5.947   0.567  0.8631  0.1776  1.1655
 5689TIP3    H238703   5.013   6.034   0.455  0.9535 -1.1716  0.0530
 5690TIP3   OH238704   3.773   5.055   0.922  0.6308  0.1359  0.1696
 5690TIP3    H138705   3.811   5.001   0.991 -0.9699  0.5456  1.4288
 5690TIP3    H238706   3.834   5.128   0.912  0.2867  0.7420  2.0775
 5691TIP3   OH238707   6.184   4.041   0.119 -0.4120  0.1478  0.5046
 5691TIP3    H138708   6.103   4.028   0.168 -0.7237  0.7139  0.1496
 5691TIP3    H238709   6.248   3.985   0.163 -1.3267 -1.3750 -0.0559
 5692TIP3   OH238710   0.143   0.095   9.983 -0.0816 -1.1575  0.0156
 5692TIP3    H138711   0.111   0.123  10.069  2.3172  0.9702  0.3481
 5692TIP3    H238712   0.064   0.065   9.937 -2.6048  3.2999  0.8345
 5693TIP3   OH238713   1.090   0.571   2.522  0.9914 -0.1290 -0.6178
 5693TIP3    H138714   1.071   0.478   2.513 -3.9016  0.2772  2.3608
 5693TIP3    H238715   1.060   0.610   2.440  0.9967 -0.9540 -1.0181
 5694TIP3   OH238716   5.686   3.645   1.661 -0.3426 -0.6849  0.6560
 5694TIP3    H138717   5.748   3.589   1.615  2.3458  2.9748 -0.6576
 5694TIP3    H238718   5.620   3.667   1.595  0.5161  0.3260  0.1118
 5695TIP3   OH238719   3.832   1.399   2.459 -0.4869  0.1017  0.1263
 5695TIP3    H138720   3.767   1.383   2.527  1.7904 -0.9595  2.2118
 5695TIP3    H238721   3.832   1.320   2.405 -1.1860  0.2932 -0.1687
 5696TIP3   OH238722   3.131   1.851   1.973  0.2134 -0.0683  0.0412
 5696TIP3    H138723   3.164   1.795   2.044  0.7032  0.0748 -0.0680
 5696TIP3    H238724   3.138   1.796   1.894 -0.4287 -0.2639  0.1168
 5697TIP3   OH238725   4.410   3.253   2.033 -0.1349  0.2723  0.0956
 5697TIP3    H138726   4.352   3.273   1.960 -0.9836  0.7937  0.9017
 5697TIP3    H238727   4.353   3.250   2.110  0.7424 -0.2648  0.7416
 5698TIP3   OH238728   1.378   4.896   1.035  0.2804 -0.2730  0.4772
 5698TIP3    H138729   1.447   4.841   0.998  2.1891  0.6232  2.5170
 5698TIP3    H238730   1.380   4.877   1.129  1.2857  3.4345  1.3725
 5699TIP3   OH238731   2.915   0.911   9.040 -0.0223 -0.1404  0.3086
 5699TIP3    H138732   2.828   0.881   9.014  0.1608  0.0985 -0.6194
 5699TIP3    H238733   2.898   0.976   9.108 -0.5626 -0.1449  0.1870
 5700TIP3   OH238734   0.069   3.953   1.285 -0.0947 -1.0286  0.2653
 5700TIP3    H138735   0.143   3.893   1.273  0.5029 -0.3432  0.4690
 5700TIP3    H238736   0.091   4.004   1.363 -1.6300 -2.0421  1.4232
 5701TIP3   OH238737   2.018   2.437   8.177  0.3829  0.4295 -0.2665
 5701TIP3    H138738   2.084   2.503   8.156  0.2921  0.7491  0.4247
 5701TIP3    H238739   2.068   2.361   8.204  0.5688 -0.6325 -3.2954
 5702TIP3   OH238740   2.413   4.825   3.388 -0.1352  0.1870 -0.0347
 5702TIP3    H138741   2.387   4.869   3.307 -2.0505  0.2985  0.6117
 5702TIP3    H238742   2.440   4.737   3.359  0.5956  0.6905 -0.9405
 5703TIP3   OH238743   3.536   3.178   0.854 -0.2806  0.0826 -1.1442
 5703TIP3    H138744   3.618   3.225   0.864 -0.3999 -0.1797  2.0014
 5703TIP3    H238745   3.468   3.245   0.862 -0.3867 -0.1016 -0.3875
 5704TIP3   OH238746   0.213   1.557   2.247  0.5672  0.0987 -0.8783
 5704TIP3    H138747   0.254   1.643   2.243 -1.1500  0.9637 -1.2898
 5704TIP3    H238748   0.276   1.501   2.292  0.8439  2.1103  1.4364
 5705TIP3   OH238749   0.735   0.095  10.008  0.1631 -0.4940 -0.2202
 5705TIP3    H138750   0.702   0.142  10.085 -2.1086 -2.0822 -0.1448
 5705TIP3    H238751   0.689   0.135   9.934  1.5811  0.3369 -0.7049
 5706TIP3   OH238752   5.970   4.047   9.244 -0.3314 -0.3223  0.0489
 5706TIP3    H138753   5.898   4.110   9.239  0.2847  0.5078  1.3293
 5706TIP3    H238754   5.978   4.014   9.154 -2.3137 -0.4648 -0.1382
 5707TIP3   OH238755   0.169   2.338   1.123 -0.2729 -0.0318 -0.1414
 5707TIP3    H138756   0.111   2.386   1.182 -1.6409  0.0798 -1.4959
 5707TIP3    H238757   0.123   2.257   1.104  0.9890 -0.8953  0.3534
 5708TIP3   OH238758   4.163   4.964   3.133  0.5660  0.0020 -0.1518
 5708TIP3    H138759   4.138   5.018   3.058  0.2728  1.3657  0.8706
 5708TIP3    H238760   4.114   4.883   3.122  0.8303  0.0152 -1.6147
 5709TIP3   OH238761   3.591   3.232   3.538 -0.0777 -0.2163 -0.1521
 5709TIP3    H138762   3.686   3.229   3.540 -0.0888 -0.7217 -0.0571
 5709TIP3    H238763   3.564   3.145   3.568 -0.5717  0.1497  0.5144
 5710TIP3   OH238764   2.626   0.551   0.248 -0.0930 -0.4244  0.3977
 5710TIP3    H138765   2.561   0.600   0.299 -1.1980 -0.1941 -1.1758
 5710TIP3    H238766   2.646   0.608   0.174  1.7825 -0.5937  0.7261
 5711TIP3   OH238767   0.032   0.185   9.665  0.2604 -0.1894 -0.1818
 5711TIP3    H138768   0.013   0.101   9.707  2.1979 -2.0296 -2.6713
 5711TIP3    H238769  -0.013   0.180   9.581  0.1595  1.4384 -0.2428
 5712TIP3   OH238770   1.945   3.708   3.038 -0.1149 -0.2949  0.1825
 5712TIP3    H138771   1.929   3.614   3.043 -1.3108 -0.0663  1.0090
 5712TIP3    H238772   1.861   3.745   3.009  0.1540  0.5804  0.4855
 5713TIP3   OH238773   1.567   2.781   9.274  0.3166  0.0353 -0.3175
 5713TIP3    H138774   1.527   2.711   9.326 -0.0580 -0.2647 -0.9933
 5713TIP3    H238775   1.503   2.798   9.204  1.7949 -1.1953 -2.0623
 5714TIP3   OH238776   1.978   1.531   0.333  0.4236  0.2428  0.1579
 5714TIP3    H138777   2.031   1.505   0.409 -0.9642 -0.1614  1.0291
 5714TIP3    H238778   1.991   1.625   0.326  0.5082  0.3005  0.9514
 5715TIP3   OH238779   4.798   3.915   3.138  0.1288 -0.3850 -0.3217
 5715TIP3    H138780   4.726   3.858   3.110  0.2764 -0.7491  0.0332
 5715TIP3    H238781   4.769   4.003   3.116 -0.6247 -0.4887  0.2431
 5716TIP3   OH238782   2.010   4.170   3.575 -0.3072 -0.3668 -0.2424
 5716TIP3    H138783   2.036   4.251   3.617  0.3373 -0.9959  0.6024
 5716TIP3    H238784   2.008   4.105   3.646 -3.0411 -0.6328 -0.4498
 5717TIP3   OH238785   3.413   3.418   9.868  0.1801 -0.2850  0.4234
 5717TIP3    H138786   3.376   3.482   9.807 -1.2321 -1.7072 -0.2730
 5717TIP3    H238787   3.485   3.465   9.910  0.7072  0.9955 -1.7457
 5718TIP3   OH238788   2.370   2.513   2.235  0.2840 -0.1752  0.0383
 5718TIP3    H138789   2.349   2.585   2.175  0.4239 -0.0719  0.1155
 5718TIP3    H238790   2.458   2.486   2.210  0.1135 -0.5289 -0.2011
 5719TIP3   OH238791   2.666   1.005   1.307  0.0507  0.9749 -0.1597
 5719TIP3    H138792   2.727   0.991   1.379  1.8951 -1.9903 -2.0271
 5719TIP3    H238793   2.695   1.087   1.267  2.7591 -0.1418 -0.7603
 5720TIP3   OH238794   2.750   3.428   8.763 -0.1436  0.0961  0.3568
 5720TIP3    H138795   2.835   3.471   8.764  0.4969 -1.1473  0.9794
 5720TIP3    H238796   2.739   3.394   8.852 -0.2733 -1.7002 -0.3048
 5721TIP3   OH238797   5.350   4.597   1.308  0.0289 -0.1031  0.2072
 5721TIP3    H138798   5.399   4.640   1.238  0.0673 -1.4782 -0.6611
 5721TIP3    H238799   5.312   4.668   1.358  1.0123  0.9494 -0.4871
 5722TIP3   OH238800   3.045   5.503   2.130 -0.3730  0.4936 -0.0930
 5722TIP3    H138801   2.968   5.544   2.171 -0.5057 -1.0639  1.2933
 5722TIP3    H238802   3.020   5.412   2.117  0.9888  0.1367 -0.3390
 5723TIP3   OH238803   2.674   1.821  10.003  0.4719 -0.0062 -0.2473
 5723TIP3    H138804   2.677   1.917  10.010 -0.7570 -0.0087  0.5294
 5723TIP3    H238805   2.674   1.790  10.093 -0.8762 -0.6565 -0.4431
 5724TIP3   OH238806   5.643   1.594   8.806  0.7299 -0.1918  0.5037
 5724TIP3    H138807   5.733   1.576   8.834  1.1770  1.2408  0.0625
 5724TIP3    H238808   5.633   1.546   8.724  1.5237  0.6187 -0.0826
 5725TIP3   OH238809   3.451   4.252   0.951 -0.7785  0.0425  0.0857
 5725TIP3    H138810   3.375   4.282   0.901 -1.1054 -2.0798 -0.7937
 5725TIP3    H238811   3.455   4.158   0.933  0.5541 -0.3383  2.1564
 5726TIP3   OH238812   2.751   4.856   1.588 -0.7952 -0.1649  0.4907
 5726TIP3    H138813   2.808   4.803   1.532 -0.1580  0.6660  0.3328
 5726TIP3    H238814   2.790   4.850   1.675 -1.0802 -0.4591  0.5983
 5727TIP3   OH238815   4.570   5.109   2.531  0.1527  0.0229  0.3029
 5727TIP3    H138816   4.654   5.112   2.484 -1.1205 -1.4978 -2.3086
 5727TIP3    H238817   4.546   5.200   2.543  0.2946  0.5655 -2.7112
 5728TIP3   OH238818   3.980   4.095   0.504 -0.0372 -0.1318 -0.8225
 5728TIP3    H138819   3.992   4.190   0.500 -0.9833  0.0313  0.0370
 5728TIP3    H238820   3.893   4.081   0.466 -0.4314 -0.5273  0.2142
 5729TIP3   OH238821   2.305   0.817   0.556  0.4469  0.1490 -0.0475
 5729TIP3    H138822   2.324   0.798   0.464  0.5042  0.2094 -0.0480
 5729TIP3    H238823   2.264   0.904   0.555 -1.5639 -0.7502 -0.2467
 5730TIP3   OH238824   6.128   3.084   1.493  0.0028 -0.4412 -0.0761
 5730TIP3    H138825   6.140   3.103   1.586 -1.6221 -1.4080  0.3854
 5730TIP3    H238826   6.129   3.170   1.450  0.8955  0.0001  0.8131
 5731TIP3   OH238827   1.946   2.858   0.289  0.3308  0.3693  0.2452
 5731TIP3    H138828   2.001   2.840   0.213 -0.0842 -1.4231  0.3319
 5731TIP3    H238829   1.899   2.938   0.266  0.3461 -0.0488 -1.3098
 5732TIP3   OH238830   6.248   5.934   1.398  0.1139 -0.5226 -0.2343
 5732TIP3    H138831   6.186   5.960   1.466 -0.8566 -1.4285 -0.7319
 5732TIP3    H238832   6.324   5.990   1.412  0.6291 -1.7526  2.5865
 5733TIP3   OH238833   2.197   5.435   0.853 -0.0573  0.0547  0.2066
 5733TIP3    H138834   2.174   5.380   0.778  1.2973 -0.9091  0.4713
 5733TIP3    H238835   2.292   5.432   0.857 -0.0670  0.7354  1.5128
 5734TIP3   OH238836   6.408   3.607   1.103 -0.3334  0.7775 -0.0039
 5734TIP3    H138837   6.398   3.514   1.086  2.8156  0.6200 -1.7613
 5734TIP3    H238838   6.478   3.612   1.168  0.9821  1.8828 -1.4275
 5735TIP3   OH238839   3.418   2.325   0.425 -0.2338  0.4017  0.5202
 5735TIP3    H138840   3.494   2.288   0.381 -1.9489  0.4353 -2.7860
 5735TIP3    H238841   3.423   2.292   0.515  2.7803 -0.8632 -0.0083
 5736TIP3   OH238842   3.790   2.573   1.050 -0.3450 -0.5491 -0.3822
 5736TIP3    H138843   3.872   2.540   1.015 -0.0231 -0.3474  0.1696
 5736TIP3    H238844   3.722   2.537   0.992  0.1984  0.1608 -1.5016
 5737TIP3   OH238845   0.225   2.725   2.559  0.4537  1.0073 -0.5942
 5737TIP3    H138846   0.234   2.732   2.464 -1.3081  1.1160 -0.7721
 5737TIP3    H238847   0.176   2.803   2.585 -0.3571  0.2570  0.2004
 5738TIP3   OH238848   1.538   2.611   8.292  0.1680  0.4507  0.1670
 5738TIP3    H138849   1.611   2.551   8.275  0.7248  0.6222  1.7399
 5738TIP3    H238850   1.463   2.553   8.310  0.2381  0.2545 -0.1694
 5739TIP3   OH238851   3.877   1.100   1.584 -0.3738  0.2354  0.3803
 5739TIP3    H138852   3.801   1.143   1.623  0.6662  1.6344  0.9601
 5739TIP3    H238853   3.949   1.162   1.598  0.7924 -0.8723 -0.5033
 5740TIP3   OH238854   1.449   2.919   0.186  0.4613 -0.4959 -0.5021
 5740TIP3    H138855   1.396   2.925   0.265  0.6648 -1.9605 -0.2353
 5740TIP3    H238856   1.386   2.933   0.115  0.1293 -0.0163 -0.1256
 5741TIP3   OH238857   1.349   1.703   1.101 -0.0417 -0.8876 -0.0613
 5741TIP3    H138858   1.394   1.675   1.181 -0.7511  1.1787  1.1479
 5741TIP3    H238859   1.415   1.753   1.053  0.0661 -1.1943 -0.2357
 5742TIP3   OH238860   6.184   5.593   9.604 -0.0039 -0.0710  0.1960
 5742TIP3    H138861   6.235   5.524   9.647  0.1504  0.3309  0.6600
 5742TIP3    H238862   6.152   5.647   9.675 -0.8560 -0.1579 -0.1157
 5743TIP3   OH238863   1.215   3.832   2.827  0.3941  0.2159 -0.1194
 5743TIP3    H138864   1.145   3.861   2.884 -0.0840 -2.4753  0.8011
 5743TIP3    H238865   1.184   3.852   2.739  0.5506  3.1894  0.3997
 5744TIP3   OH238866   5.663   0.708   0.332  0.1023  0.6076 -0.1674
 5744TIP3    H138867   5.607   0.773   0.375 -0.9080 -1.1594  1.3773
 5744TIP3    H238868   5.624   0.696   0.246 -0.1345  1.5212 -0.1939
 5745TIP3   OH238869   4.257   4.798   2.605  0.3082  0.2071 -0.2380
 5745TIP3    H138870   4.294   4.811   2.692  0.1888 -0.0992 -0.1379
 5745TIP3    H238871   4.212   4.880   2.585  0.6882  0.4284 -0.1864
 5746TIP3   OH238872   5.036   0.640   9.743  0.6432  0.0824  0.4470
 5746TIP3    H138873   5.103   0.574   9.757  1.1630  1.0101  2.7963
 5746TIP3    H238874   5.059   0.682   9.660  1.9564 -0.7512  0.3762
 5747TIP3   OH238875   5.355   3.435   9.399  0.6640 -0.8588 -0.5683
 5747TIP3    H138876   5.394   3.507   9.447 -0.6409 -1.5111  1.6029
 5747TIP3    H238877   5.414   3.422   9.324  1.5588  1.6433 -0.4012
 5748TIP3   OH238878   2.159   5.241   0.651  0.3064 -0.2482 -0.0764
 5748TIP3    H138879   2.144   5.318   0.596  0.7921 -0.1755 -0.1086
 5748TIP3    H238880   2.086   5.182   0.630  0.4752 -0.2150 -0.7883
 5749TIP3   OH238881   1.540   1.432   9.111 -0.1892 -0.1753  0.0344
 5749TIP3    H138882   1.444   1.436   9.109 -0.1815  0.9672  1.0292
 5749TIP3    H238883   1.567   1.478   9.032 -0.4473 -2.5649 -1.5490
 5750TIP3   OH238884   2.006   6.258   0.280  0.3017 -0.0373  0.4675
 5750TIP3    H138885   1.961   6.307   0.349  0.2259 -1.8101  1.7576
 5750TIP3    H238886   1.944   6.254   0.208 -0.0844  0.8283  0.7365
 5751TIP3   OH238887   5.059   4.787   1.838 -0.4478  0.0930  0.8374
 5751TIP3    H138888   5.044   4.787   1.933 -0.7645 -1.3213  0.8126
 5751TIP3    H238889   5.029   4.873   1.809 -0.1702  0.6215  2.0405
 5752TIP3   OH238890   4.701   5.419   0.191  0.2138 -0.3797 -0.0670
 5752TIP3    H138891   4.618   5.454   0.222 -1.5044 -3.8170 -0.3719
 5752TIP3    H238892   4.716   5.463   0.107 -1.2876  0.3150  0.0010
 5753TIP3   OH238893   5.591   1.611   2.274 -0.5039  0.1142 -0.6269
 5753TIP3    H138894   5.503   1.640   2.298 -0.8043 -1.4138  0.2407
 5753TIP3    H238895   5.594   1.519   2.300  1.0231 -0.1353 -1.5585
 5754TIP3   OH238896   0.903   0.342   9.357 -0.4607 -0.2380  0.2917
 5754TIP3    H138897   0.869   0.338   9.267 -1.5426  1.9514  0.5340
 5754TIP3    H238898   0.997   0.328   9.347 -0.6230 -0.5418 -1.1137
 5755TIP3   OH238899   2.142   4.168   2.229 -0.5991  0.1786  0.4687
 5755TIP3    H138900   2.124   4.138   2.318  0.2216 -0.6255  0.3746
 5755TIP3    H238901   2.231   4.136   2.210 -0.9380 -0.0596 -0.8044
 5756TIP3   OH238902   5.530   3.922   8.970 -0.3745  0.2312 -0.3781
 5756TIP3    H138903   5.577   3.839   8.956  2.0784  1.3918  0.4993
 5756TIP3    H238904   5.494   3.915   9.058  3.5150  1.6132  1.5322
 5757TIP3   OH238905   4.387   1.808   1.140  0.2210  0.2557 -0.2615
 5757TIP3    H138906   4.337   1.833   1.062 -0.9719  1.4528  0.8239
 5757TIP3    H238907   4.477   1.803   1.110 -0.4336 -1.5059 -2.1917
 5758TIP3   OH238908   5.295   5.178   1.003  0.8922 -0.3862 -0.0287
 5758TIP3    H138909   5.280   5.271   1.016  0.0270 -0.2087 -1.8792
 5758TIP3    H238910   5.273   5.163   0.911  0.2319 -2.5661  0.4180
 5759TIP3   OH238911   3.195   6.186   1.555  0.3154  0.3590 -0.0939
 5759TIP3    H138912   3.290   6.193   1.564  0.2124  1.2956  0.3837
 5759TIP3    H238913   3.160   6.243   1.624 -0.5675  1.4642 -1.4030
 5760TIP3   OH238914   4.716   4.808   9.129  0.5177 -0.3851 -0.3201
 5760TIP3    H138915   4.682   4.757   9.055 -0.0344  2.4761 -2.1693
 5760TIP3    H238916   4.810   4.794   9.127  0.4528 -0.7493 -1.2422
 5761TIP3   OH238917   2.938   0.741   9.443  0.2824  0.7329 -0.2404
 5761TIP3    H138918   3.015   0.723   9.497 -1.1932 -3.0408  0.9367
 5761TIP3    H238919   2.897   0.817   9.484 -0.2841 -1.3877  3.6456
 5762TIP3   OH238920   4.480   5.325   3.719 -0.1204 -0.4638  0.2869
 5762TIP3    H138921   4.573   5.303   3.730  0.1824  0.0668 -1.0198
 5762TIP3    H238922   4.475   5.418   3.740 -0.3885 -0.5148  0.4566
 5763TIP3   OH238923   1.305   5.531   9.556  0.1224 -0.8252 -0.2509
 5763TIP3    H138924   1.288   5.568   9.642 -1.6820 -0.5350 -0.6968
 5763TIP3    H238925   1.329   5.440   9.573 -1.7672 -1.2331  0.5187
 5764TIP3   OH238926   6.293   1.687   7.541 -0.0124 -0.1355 -0.3112
 5764TIP3    H138927   6.264   1.768   7.500 -0.9231 -0.6407 -0.6929
 5764TIP3    H238928   6.269   1.618   7.478 -0.7808 -0.8548  0.7402
 5765TIP3   OH238929   6.388   3.511   1.498  0.0361 -0.9522  0.1038
 5765TIP3    H138930   6.443   3.568   1.444  0.1391  0.5531  1.7017
 5765TIP3    H238931   6.366   3.564   1.575 -1.9724 -2.2236  0.4929
 5766TIP3   OH238932   5.877   3.419   1.727 -0.1325  0.1030  0.3080
 5766TIP3    H138933   5.830   3.402   1.809  2.3882 -2.6801  1.3642
 5766TIP3    H238934   5.966   3.387   1.743  1.5200  2.8322 -2.3708
 5767TIP3   OH238935   6.268   6.161   7.751  0.5741  0.0003 -0.1025
 5767TIP3    H138936   6.184   6.169   7.796  1.0570 -2.4668  1.4388
 5767TIP3    H238937   6.251   6.192   7.662 -1.8619 -0.1418  0.2548
 5768TIP3   OH238938   4.397   2.273   9.392  0.0082 -0.4982  0.5346
 5768TIP3    H138939   4.379   2.248   9.302 -0.4596  0.3777  0.3748
 5768TIP3    H238940   4.480   2.229   9.413 -0.1265 -1.1017 -0.1470
 5769TIP3   OH238941   2.144   1.634   1.054 -0.2394  0.4455  0.7216
 5769TIP3    H138942   2.141   1.669   1.143 -0.2969 -0.5273  1.1162
 5769TIP3    H238943   2.201   1.557   1.061 -1.3620 -0.4674  0.2340
 5770TIP3   OH238944   1.629   5.783   1.514  0.0229  0.4159  0.5321
 5770TIP3    H138945   1.537   5.760   1.523 -0.2858  1.3700 -0.1294
 5770TIP3    H238946   1.663   5.780   1.604 -0.6241 -0.0173  0.7705
 5771TIP3   OH238947   0.800   0.853   9.822 -0.3557  0.5979  0.5778
 5771TIP3    H138948   0.764   0.940   9.801  0.3055  0.4178 -1.4915
 5771TIP3    H238949   0.740   0.791   9.781  1.1620  0.2431 -1.2700
 5772TIP3   OH238950   5.992   3.826   0.291 -0.0857  0.1718  0.1963
 5772TIP3    H138951   5.920   3.806   0.351  0.6893  0.1888  1.1614
 5772TIP3    H238952   6.057   3.757   0.308  1.1613  1.5112  1.1079
 5773TIP3   OH238953   3.644   1.935   9.661 -0.0804  0.1048 -0.1444
 5773TIP3    H138954   3.598   1.967   9.584 -0.6611 -0.5551 -0.0881
 5773TIP3    H238955   3.677   1.849   9.635 -0.6318 -0.2979  0.4718
 5774TIP3   OH238956   2.696   4.185   1.542  0.0961 -0.3983  0.3388
 5774TIP3    H138957   2.625   4.242   1.571 -0.9876 -0.8622 -1.2556
 5774TIP3    H238958   2.670   4.098   1.570  0.5580 -0.4290  0.6726
 5775TIP3   OH238959   4.825   4.851   8.692 -0.4728 -0.2372  0.3487
 5775TIP3    H138960   4.823   4.812   8.604 -0.6599 -0.9441  0.6624
 5775TIP3    H238961   4.840   4.778   8.751 -0.2320  0.2516  0.9073
 5776TIP3   OH238962   4.829   1.790   0.096 -0.0947  0.3619  0.1069
 5776TIP3    H138963   4.770   1.720   0.069  1.1300 -0.4433 -0.5763
 5776TIP3    H238964   4.891   1.797   0.024  0.1381  1.7904  0.4159
 5777TIP3   OH238965   1.516   3.061   7.907  0.3492  0.1301  0.2715
 5777TIP3    H138966   1.495   3.012   7.828  0.7160 -0.5706  0.6020
 5777TIP3    H238967   1.612   3.056   7.914  0.1971 -1.4680  1.7894
 5778TIP3   OH238968   2.975   5.566  10.026  0.2789  0.0458  0.0759
 5778TIP3    H138969   2.950   5.657  10.040 -0.1972  0.4978 -3.0962
 5778TIP3    H238970   2.898   5.516  10.053 -1.7643  1.0432 -3.2765
 5779TIP3   OH238971   3.802   1.250   9.902  0.1640 -0.0685 -0.0703
 5779TIP3    H138972   3.835   1.285   9.820  2.3628 -0.8676  0.4051
 5779TIP3    H238973   3.766   1.164   9.880 -1.0289  0.5239 -0.4871
 5780TIP3   OH238974   3.755   1.923   2.043  0.1775 -0.4125 -0.0106
 5780TIP3    H138975   3.830   1.983   2.049 -0.2267  0.2351 -1.1970
 5780TIP3    H238976   3.753   1.879   2.128  1.5071  0.0336  0.2744
 5781TIP3   OH238977   0.249   3.910   2.769 -0.7521 -0.2901 -0.0001
 5781TIP3    H138978   0.235   3.983   2.829  0.1622 -0.2158  0.1279
 5781TIP3    H238979   0.162   3.873   2.756 -1.4090  1.4198 -0.8255
 5782TIP3   OH238980   0.697   0.636   1.850 -0.3081  0.7634 -0.3795
 5782TIP3    H138981   0.604   0.616   1.840 -0.0376  0.0017 -1.5962
 5782TIP3    H238982   0.700   0.701   1.920 -1.6115 -0.3180  0.7481
 5783TIP3   OH238983   0.296   5.964   9.112 -0.3559  0.4891 -0.4742
 5783TIP3    H138984   0.345   6.045   9.095  1.7667 -0.4025  0.9568
 5783TIP3    H238985   0.237   5.988   9.183  0.7828  0.6516  0.4561
 5784TIP3   OH238986   5.994   2.232   0.063  0.6824 -0.4086 -0.4453
 5784TIP3    H138987   5.962   2.150   0.025  0.6460 -0.2356 -0.7924
 5784TIP3    H238988   5.944   2.300   0.018  0.0530 -0.2321  0.4781
 5785TIP3   OH238989   0.722   1.181   2.865  0.2871 -0.4216  0.4803
 5785TIP3    H138990   0.728   1.185   2.960  2.0863 -1.0571  0.4296
 5785TIP3    H238991   0.704   1.271   2.838 -0.7632 -0.3199  1.4212
 5786TIP3   OH238992   3.962   4.564   2.233 -0.2955 -0.0950 -0.3676
 5786TIP3    H138993   3.934   4.562   2.325  0.7436 -0.8248 -0.0450
 5786TIP3    H238994   4.057   4.576   2.237 -0.0730 -1.2807 -1.2996
 5787TIP3   OH238995   4.417   5.942   9.439 -0.4200  0.6092 -0.1412
 5787TIP3    H138996   4.460   5.880   9.497 -1.0774 -0.2213 -0.5305
 5787TIP3    H238997   4.420   5.901   9.352 -0.6859  1.2105 -0.4434
 5788TIP3   OH238998   5.840   4.837   3.372  0.1189 -0.0106  0.1510
 5788TIP3    H138999   5.877   4.895   3.306  1.1360 -0.8216 -0.0136
 5788TIP3    H239000   5.789   4.895   3.429 -0.9811  0.6775 -1.4517
 5789TIP3   OH239001   0.619   2.362   2.928 -0.3414  0.2624  0.4211
 5789TIP3    H139002   0.630   2.268   2.915 -3.0932 -0.4844  2.5292
 5789TIP3    H239003   0.707   2.393   2.949  0.4199 -2.1418  1.1569
 5790TIP3   OH239004   4.050   2.751   3.450 -0.5367 -0.4986 -0.0242
 5790TIP3    H139005   4.053   2.840   3.485  0.7945  0.2579 -1.8794
 5790TIP3    H239006   3.960   2.740   3.418 -0.8829 -0.0817  0.7748
 5791TIP3   OH239007   1.557   3.889   1.479 -1.0055  0.1672  0.3368
 5791TIP3    H139008   1.597   3.920   1.561 -1.0751 -1.4893  1.0284
 5791TIP3    H239009   1.583   3.955   1.414  1.3125  0.1470  1.1373
 5792TIP3   OH239010   4.513   0.488   0.192 -0.1796 -0.0986 -0.1046
 5792TIP3    H139011   4.514   0.409   0.247  0.1631  1.2140  1.8654
 5792TIP3    H239012   4.426   0.487   0.152 -0.5780 -0.9374  0.7302
 5793TIP3   OH239013   2.140   4.257   1.161  0.2594 -0.5098 -0.2079
 5793TIP3    H139014   2.148   4.350   1.138 -1.0606 -0.7524 -1.9063
 5793TIP3    H239015   2.229   4.223   1.153  0.6795  0.5025 -0.0781
 5794TIP3   OH239016   2.472   6.105   1.313 -0.1632  0.7714  0.2329
 5794TIP3    H139017   2.490   6.199   1.309  0.7981  0.5469 -2.1253
 5794TIP3    H239018   2.427   6.085   1.231  1.6521 -1.1772 -0.3857
 5795TIP3   OH239019   2.178   2.746   8.936  0.7808  0.1528 -0.8339
 5795TIP3    H139020   2.162   2.686   8.863  0.6965  0.1102 -0.7809
 5795TIP3    H239021   2.248   2.705   8.986  0.3827 -0.1537 -0.5178
 5796TIP3   OH239022   2.261   2.153   8.963  0.0640  0.3863  0.1288
 5796TIP3    H139023   2.265   2.138   9.057  0.5216  0.2494  0.0869
 5796TIP3    H239024   2.185   2.210   8.951 -0.9793 -0.9087  0.4088
 5797TIP3   OH239025   1.680   4.546   3.069 -0.0067 -0.8594 -0.1627
 5797TIP3    H139026   1.719   4.623   3.111  1.4623 -0.6643 -1.7663
 5797TIP3    H239027   1.646   4.579   2.986 -3.0921 -1.1813  0.8494
 5798TIP3   OH239028   6.131   2.864   1.782 -0.5083  0.3665 -0.2173
 5798TIP3    H139029   6.072   2.820   1.721  0.6811 -1.1210 -0.3737
 5798TIP3    H239030   6.150   2.798   1.849 -0.0957  1.2664  0.5844
 5799TIP3   OH239031   3.250   1.960   0.952  0.1817 -0.4335  0.3988
 5799TIP3    H139032   3.327   1.914   0.986  1.0351 -0.8293 -1.8944
 5799TIP3    H239033   3.204   1.895   0.899 -0.3154  0.4884 -0.3440
 5800TIP3   OH239034   3.665   5.236   3.282 -0.3136 -0.8192  0.2362
 5800TIP3    H139035   3.646   5.185   3.360  1.9141 -0.4966  1.0645
 5800TIP3    H239036   3.621   5.189   3.211 -0.4719 -2.4356  1.3601
 5801TIP3   OH239037   3.313   6.255   2.212  0.1350  0.2240 -0.5574
 5801TIP3    H139038   3.276   6.170   2.238  1.3145 -0.1953 -0.1508
 5801TIP3    H239039   3.335   6.297   2.295  0.8281  0.3262 -0.7874
 5802TIP3   OH239040   0.425   4.242   0.927  0.3369 -0.7854  0.2234
 5802TIP3    H139041   0.368   4.168   0.947  0.0711 -1.1043 -1.5691
 5802TIP3    H239042   0.460   4.223   0.840 -0.5495  1.6378 -0.7637
 5803TIP3   OH239043   0.461   5.172   0.609  0.1478  0.5135  0.0537
 5803TIP3    H139044   0.507   5.210   0.684  0.9153 -0.7594  0.2674
 5803TIP3    H239045   0.426   5.247   0.562  1.7681  1.5125  0.3317
 5804TIP3   OH239046   0.480   4.035   0.529  0.0531  0.1764  0.2455
 5804TIP3    H139047   0.460   4.050   0.436  0.1221  2.2589  0.5187
 5804TIP3    H239048   0.575   4.034   0.533  0.0614  1.0920  0.4168
 5805TIP3   OH239049   4.191   1.373   9.828  0.1042 -0.1675  0.4484
 5805TIP3    H139050   4.127   1.312   9.863 -1.3609  1.2445  0.3612
 5805TIP3    H239051   4.201   1.439   9.897  0.5612  0.2507 -0.0125
 5806TIP3   OH239052   5.405   4.021   0.161 -0.1483 -0.2218 -0.5717
 5806TIP3    H139053   5.467   4.090   0.139  0.8580 -0.5815  0.9556
 5806TIP3    H239054   5.329   4.067   0.196  1.0080  0.1440  1.6245
 5807TIP3   OH239055   0.535   3.582   2.495 -0.0729  0.2815  0.1599
 5807TIP3    H139056   0.499   3.561   2.408 -2.0946  0.9383  0.7803
 5807TIP3    H239057   0.630   3.582   2.482 -0.2522 -1.1851 -1.6763
 5808TIP3   OH239058   4.509   1.842   0.088 -0.5174  0.6652  0.4577
 5808TIP3    H139059   4.545   1.776   0.029 -0.3799  1.6893 -0.6556
 5808TIP3    H239060   4.456   1.793   0.150 -0.0913 -0.5238 -0.0815
 5809TIP3   OH239061   5.253   5.607   1.253 -0.2341  0.2749 -0.0089
 5809TIP3    H139062   5.345   5.583   1.258 -0.2946 -0.5214 -2.0113
 5809TIP3    H239063   5.248   5.670   1.181 -1.3865 -0.3793 -0.5135
 5810TIP3   OH239064   2.180   2.198   9.430 -0.4418 -0.1390  0.3317
 5810TIP3    H139065   2.233   2.278   9.434 -3.4605  2.2644 -2.2779
 5810TIP3    H239066   2.155   2.191   9.338 -2.2827 -2.7861  0.9273
 5811TIP3   OH239067   5.631   1.162   1.299 -0.2025  0.6028 -1.2803
 5811TIP3    H139068   5.639   1.080   1.250 -2.0227 -0.8539  0.6916
 5811TIP3    H239069   5.708   1.164   1.356  0.2978  0.7440 -1.9445
 5812TIP3   OH239070   0.896   2.412   1.200 -0.4403 -0.1670 -0.0210
 5812TIP3    H139071   0.925   2.418   1.290  0.3107  0.9468 -0.3172
 5812TIP3    H239072   0.932   2.490   1.157 -3.4065  1.0772 -0.5510
 5813TIP3   OH239073   6.017   0.946   0.974 -0.2405  0.6816  0.4079
 5813TIP3    H139074   6.072   0.896   0.914 -1.2812 -0.5259  0.4229
 5813TIP3    H239075   6.079   0.995   1.028  0.7821  0.0694 -0.1710
 5814TIP3   OH239076   3.661   4.849   8.418 -0.1178  0.0464 -0.4019
 5814TIP3    H139077   3.600   4.921   8.400  0.2042  0.1750 -1.0496
 5814TIP3    H239078   3.748   4.889   8.408  0.0947  0.0268  1.1556
 5815TIP3   OH239079   1.890   2.783   2.907  0.0177 -0.6196 -0.0723
 5815TIP3    H139080   1.897   2.873   2.875  2.4409 -0.7133  0.0121
 5815TIP3    H239081   1.807   2.751   2.873 -0.1638  1.1519 -1.4059
 5816TIP3   OH239082   4.385   0.857   9.074  0.3760 -0.5271 -0.3765
 5816TIP3    H139083   4.467   0.821   9.110 -0.1338 -0.2171  1.1758
 5816TIP3    H239084   4.317   0.822   9.132 -0.3306  1.3083 -0.0516
 5817TIP3   OH239085   5.016   3.272   9.745  0.0193  0.5841 -0.6531
 5817TIP3    H139086   5.011   3.363   9.716  3.5410  0.7337 -1.3012
 5817TIP3    H239087   5.101   3.266   9.789 -0.4510 -2.2434  0.0744
 5818TIP3   OH239088   4.044   6.103   0.177  0.1216 -0.3626 -0.1531
 5818TIP3    H139089   4.078   6.192   0.184 -1.2299  0.0907  1.1976
 5818TIP3    H239090   3.971   6.100   0.239 -0.7350 -2.0011 -1.1553
 5819TIP3   OH239091   6.019   4.887   2.605 -0.7998 -0.0042 -0.6946
 5819TIP3    H139092   6.064   4.827   2.546  0.7731 -1.1918  1.5692
 5819TIP3    H239093   5.931   4.852   2.612 -0.7550 -0.3385 -1.6291
 5820TIP3   OH239094   3.480   4.846   9.875 -0.3686  0.5238  0.0709
 5820TIP3    H139095   3.538   4.857   9.799 -0.1953 -3.0648 -0.4879
 5820TIP3    H239096   3.536   4.865   9.950  0.2438  1.4217 -0.5903
 5821TIP3   OH239097   0.633   4.365   7.994  0.4043 -0.2333  0.1441
 5821TIP3    H139098   0.605   4.277   7.970  0.5681  0.2019 -1.8616
 5821TIP3    H239099   0.725   4.370   7.966  0.1669  0.7985 -0.5295
 5822TIP3   OH239100   6.376   6.029   9.756 -0.7278 -0.4346  0.3551
 5822TIP3    H139101   6.429   6.078   9.693 -0.1336 -0.8003  0.5538
 5822TIP3    H239102   6.289   6.026   9.718 -0.4891 -0.2301 -0.2128
 5823TIP3   OH239103   4.506   0.064   0.712  0.2292  0.2173 -0.0347
 5823TIP3    H139104   4.454   0.003   0.765 -1.6924  0.2878 -1.7400
 5823TIP3    H239105   4.587   0.075   0.762  0.3043 -3.0141  0.7949
 5824TIP3   OH239106   5.900   1.713   0.311 -0.1055  0.8252  0.0649
 5824TIP3    H139107   5.862   1.752   0.233  0.2136  0.7060 -0.1524
 5824TIP3    H239108   5.961   1.647   0.278 -1.8629 -1.0990  0.4020
 5825TIP3   OH239109   4.496   6.048   3.518 -0.0914  0.5205 -0.1137
 5825TIP3    H139110   4.434   6.019   3.451  1.6362 -0.0399 -1.5383
 5825TIP3    H239111   4.508   5.971   3.574 -0.5207  0.5773  0.0653
 5826TIP3   OH239112   0.926   4.007   9.405  0.3368 -0.0753 -0.6245
 5826TIP3    H139113   0.991   3.977   9.342 -0.5812 -0.6378 -1.3244
 5826TIP3    H239114   0.931   4.103   9.402  1.2330 -0.1088 -0.5393
 5827TIP3   OH239115   0.147   1.704   2.840  0.3275 -0.2696  0.2014
 5827TIP3    H139116   0.130   1.617   2.804  3.4702 -0.2143 -1.7674
 5827TIP3    H239117   0.085   1.761   2.796 -1.5222 -1.3666  1.2443
 5828TIP3   OH239118   1.379   5.308   2.296  0.2984 -0.7749 -0.4539
 5828TIP3    H139119   1.347   5.398   2.304 -1.3517 -0.9687 -3.3130
 5828TIP3    H239120   1.450   5.301   2.359 -1.1823  1.7263  1.6742
 5829TIP3   OH239121   3.498   5.645   0.268 -0.5773 -0.7381  0.0899
 5829TIP3    H139122   3.491   5.551   0.249 -0.6177 -0.6155 -0.5288
 5829TIP3    H239123   3.576   5.673   0.219  0.2694 -0.7243  1.3988
 5830TIP3   OH239124   0.757   5.231   9.290 -0.1769 -0.0898  0.1039
 5830TIP3    H139125   0.835   5.181   9.314  0.6363  2.2311  2.8705
 5830TIP3    H239126   0.747   5.216   9.196  2.5185 -1.8942 -0.0150
 5831TIP3   OH239127   3.245   3.166   0.603  0.4346 -0.4199  0.5396
 5831TIP3    H139128   3.255   3.195   0.513  1.2162  0.5420  0.9135
 5831TIP3    H239129   3.261   3.245   0.656 -4.2455  0.1646  1.4875
 5832TIP3   OH239130   5.880   5.698   1.859  0.5221  0.8577  0.4939
 5832TIP3    H139131   5.831   5.746   1.925  0.1823  0.9396  0.1835
 5832TIP3    H239132   5.908   5.617   1.903 -2.7781 -0.8660 -0.2561
 5833TIP3   OH239133   4.264   3.903   0.084  0.0567 -0.0328 -0.2795
 5833TIP3    H139134   4.238   3.971   0.146  0.7533 -0.2251  0.2305
 5833TIP3    H239135   4.358   3.894   0.097  0.0549 -0.7228 -0.7220
 5834TIP3   OH239136   3.595   3.042   2.898 -0.3739  0.0969  0.2461
 5834TIP3    H139137   3.591   3.099   2.975 -1.2292  0.0295  0.2616
 5834TIP3    H239138   3.536   2.970   2.919  0.8031 -0.8905  0.2817
 5835TIP3   OH239139   5.993   3.715   1.113  0.5919  0.2373  0.4140
 5835TIP3    H139140   5.902   3.728   1.088  0.4515 -0.1344  0.7294
 5835TIP3    H239141   6.006   3.620   1.107  0.8301  0.2432  0.8246
 5836TIP3   OH239142   4.532   2.261   0.772  0.1631  0.3195 -0.2180
 5836TIP3    H139143   4.581   2.328   0.725 -0.5265  1.4371  0.5995
 5836TIP3    H239144   4.591   2.185   0.776  1.7067  1.5184  0.5057
 5837TIP3   OH239145   2.542   1.077   9.731 -0.3961 -0.4533  0.0917
 5837TIP3    H139146   2.480   1.132   9.683  1.1390  1.6902  0.4336
 5837TIP3    H239147   2.491   1.000   9.756 -1.9389 -0.4911 -2.7197
 5838TIP3   OH239148   2.399   4.306   3.243  0.1873 -0.6891  0.2332
 5838TIP3    H139149   2.361   4.276   3.160 -0.6092  0.4160  0.1821
 5838TIP3    H239150   2.389   4.231   3.302  0.7939 -1.5034 -0.6532
 5839TIP3   OH239151   3.149   5.929   9.396  0.7590  0.1759 -0.2606
 5839TIP3    H139152   3.234   5.928   9.440  0.7346 -0.8622 -0.2238
 5839TIP3    H239153   3.147   6.013   9.350  1.9161  0.1040 -0.4720
 5840TIP3   OH239154   3.568   1.263   2.541 -0.4464 -0.4507 -0.1614
 5840TIP3    H139155   3.604   1.181   2.577 -1.6730 -0.7928  0.3233
 5840TIP3    H239156   3.521   1.235   2.462  0.7573  0.0706 -1.1028
 5841TIP3   OH239157   2.311   2.667   3.040 -0.4362 -0.0855  0.4502
 5841TIP3    H139158   2.381   2.725   3.011 -0.7778  1.0103  1.7316
 5841TIP3    H239159   2.306   2.600   2.972  2.7579 -1.0035  0.9249
 5842TIP3   OH239160   5.446   0.024   2.389 -0.6366 -0.3238  0.5499
 5842TIP3    H139161   5.398  -0.052   2.421 -0.5652  0.5558  2.9090
 5842TIP3    H239162   5.538  -0.003   2.390 -0.5396 -0.0009  2.1210
 5843TIP3   OH239163   0.366   5.719   1.689 -0.1576  0.0311  0.1761
 5843TIP3    H139164   0.280   5.677   1.684 -1.6831  3.0259 -1.3780
 5843TIP3    H239165   0.357   5.784   1.758  0.3151  1.3047 -0.9034
 5844TIP3   OH239166   4.251   2.298   0.263  0.1956  0.0161 -0.0771
 5844TIP3    H139167   4.318   2.355   0.226  1.1965 -1.4009 -0.5184
 5844TIP3    H239168   4.277   2.210   0.238 -1.6434 -0.6196  0.0598
 5845TIP3   OH239169   5.219   1.367   0.406  0.0598 -0.0882  0.2047
 5845TIP3    H139170   5.308   1.390   0.435  0.1721  0.7087 -0.7241
 5845TIP3    H239171   5.231   1.288   0.353  0.1537 -0.1943  0.3793
 5846TIP3   OH239172   6.361   6.188   1.712  0.1848  0.0899  0.1717
 5846TIP3    H139173   6.327   6.207   1.799 -0.7668 -0.9790  0.0569
 5846TIP3    H239174   6.327   6.258   1.657  3.1027  2.4396  1.0970
 5847TIP3   OH239175   5.810   2.283   1.487 -0.3155  0.5498 -0.5326
 5847TIP3    H139176   5.889   2.244   1.450 -0.4302  1.5709 -1.9080
 5847TIP3    H239177   5.740   2.260   1.426 -1.4244 -1.5543  1.3852
 5848TIP3   OH239178   1.202   0.614   1.518  0.0742 -0.0166  0.2078
 5848TIP3    H139179   1.217   0.557   1.593  0.3815 -0.6067 -0.2990
 5848TIP3    H239180   1.289   0.635   1.485 -0.0688  0.0700 -0.1186
 5849TIP3   OH239181   0.474   4.584   0.318  0.6717 -0.4086 -0.0869
 5849TIP3    H139182   0.493   4.572   0.411  0.1673  0.3450  0.1229
 5849TIP3    H239183   0.384   4.615   0.316  0.5912 -0.6827 -0.8485
 5850TIP3   OH239184   2.057   0.120   1.349  0.3594 -0.6431 -0.3631
 5850TIP3    H139185   1.962   0.119   1.360  0.3928  1.5158  0.4836
 5850TIP3    H239186   2.091   0.094   1.435  0.5288  0.7114 -0.0086
 5851TIP3   OH239187   0.660   0.778   8.237 -0.1590 -0.2448 -0.2338
 5851TIP3    H139188   0.752   0.757   8.220  0.2514  0.0848  1.3931
 5851TIP3    H239189   0.654   0.783   8.332 -1.3227  2.1354 -0.3675
 5852TIP3   OH239190   3.367   3.030   2.686  0.2836  0.0574  0.3775
 5852TIP3    H139191   3.330   3.045   2.773 -1.1240 -0.5632 -0.0933
 5852TIP3    H239192   3.434   3.098   2.677 -1.3837  1.8710  0.8972
 5853TIP3   OH239193   3.059   3.367   2.338  0.0069  0.5151  0.7455
 5853TIP3    H139194   3.070   3.287   2.389  0.7569  0.2234  0.1428
 5853TIP3    H239195   3.147   3.405   2.334 -0.3720  1.4653  1.1772
 5854TIP3   OH239196   5.865   4.453   9.800 -0.2666 -0.7061 -1.0976
 5854TIP3    H139197   5.849   4.359   9.804  1.1817 -0.9691 -0.8093
 5854TIP3    H239198   5.811   4.484   9.728 -1.2285 -1.6510 -0.8035
 5855TIP3   OH239199   5.265   0.171   2.507  0.1482  0.2196 -0.2554
 5855TIP3    H139200   5.321   0.119   2.449  0.1200 -0.9221  0.6873
 5855TIP3    H239201   5.321   0.191   2.582 -0.2036  0.5689 -0.0857
 5856TIP3   OH239202   4.232   5.206   9.383  0.0287 -0.2076  0.1246
 5856TIP3    H139203   4.278   5.143   9.328  0.8402 -0.4401  1.0273
 5856TIP3    H239204   4.302   5.249   9.433 -0.7675 -1.2705  2.2789
 5857TIP3   OH239205   5.420   1.744   9.915 -0.2102  0.0065 -0.0175
 5857TIP3    H139206   5.429   1.658   9.954 -0.0262  0.1360  0.2250
 5857TIP3    H239207   5.367   1.729   9.836  0.8740 -0.5191 -0.6582
 5858TIP3   OH239208   1.543   4.633   0.964  0.0584 -0.1733  0.1346
 5858TIP3    H139209   1.486   4.633   0.887 -0.2853 -1.0468  0.3660
 5858TIP3    H239210   1.631   4.651   0.929  0.2260 -2.3535 -0.7532
 5859TIP3   OH239211   2.100   3.843   0.342  0.5048  0.5292 -0.7253
 5859TIP3    H139212   2.103   3.776   0.273  1.9048 -0.3680  0.1723
 5859TIP3    H239213   2.094   3.925   0.294  0.6595 -0.1230 -1.9034
 5860TIP3   OH239214   0.231   1.337   1.261 -0.2547  0.2978  0.2908
 5860TIP3    H139215   0.236   1.265   1.198 -1.9628 -0.4638  0.9525
 5860TIP3    H239216   0.319   1.343   1.297  0.1666 -0.8285 -0.4675
 5861TIP3   OH239217   2.869   5.960   9.453  0.1358  0.0322  0.1016
 5861TIP3    H139218   2.958   5.937   9.428  0.5013 -0.3679  1.6394
 5861TIP3    H239219   2.868   6.056   9.451  0.8296  0.0636  0.7624
 5862TIP3   OH239220   2.147   2.685   8.175 -0.0645  0.2039  0.6209
 5862TIP3    H139221   2.227   2.731   8.148  0.9723 -1.7732  0.0689
 5862TIP3    H239222   2.154   2.680   8.271  0.2070  0.5024  0.6203
 5863TIP3   OH239223   4.360   1.821   8.765 -0.3500 -0.0303  0.0867
 5863TIP3    H139224   4.343   1.915   8.777  0.2782  0.2269 -0.9506
 5863TIP3    H239225   4.318   1.780   8.840 -1.1843  1.0293  0.2352
 5864TIP3   OH239226   3.812   1.123   2.354  0.5551  0.0000  0.1537
 5864TIP3    H139227   3.827   1.056   2.287 -0.1489 -0.9139  0.8859
 5864TIP3    H239228   3.763   1.078   2.423 -1.5192  1.6824 -0.1074
 5865TIP3   OH239229   5.278   4.028   3.336  0.7264 -0.4548  0.4036
 5865TIP3    H139230   5.363   4.024   3.380  1.4893 -0.4202 -1.0239
 5865TIP3    H239231   5.295   3.995   3.248 -0.5556  0.4023 -0.1850
 5866TIP3   OH239232   4.475   3.190   1.591  0.3975  0.5225 -0.5422
 5866TIP3    H139233   4.504   3.120   1.531  0.5039 -0.9592  1.1658
 5866TIP3    H239234   4.550   3.248   1.598  0.3701  0.7553 -1.8619
 5867TIP3   OH239235   2.986   4.347   1.088 -0.5228  0.4962  0.2974
 5867TIP3    H139236   2.915   4.333   1.025  0.2571 -1.9551 -0.1410
 5867TIP3    H239237   3.036   4.265   1.086 -0.2585  0.4130  3.8765
 5868TIP3   OH239238   2.183   3.539   0.287  0.5201  0.8254 -0.1640
 5868TIP3    H139239   2.238   3.556   0.363 -0.8610 -1.1463  1.3946
 5868TIP3    H239240   2.238   3.563   0.212  3.4883 -0.8128  1.2635
 5869TIP3   OH239241   2.882   3.339   1.655  0.3121 -0.5055  0.0952
 5869TIP3    H139242   2.835   3.406   1.705  0.9666  0.0666 -0.0340
 5869TIP3    H239243   2.911   3.275   1.720  0.3249 -0.2735  0.3192
 5870TIP3   OH239244   3.533   2.838   0.346  0.2849  0.3902  0.7343
 5870TIP3    H139245   3.585   2.766   0.381 -0.4070  0.7516  2.6503
 5870TIP3    H239246   3.561   2.847   0.255 -0.0358 -2.6895  0.2216
 5871TIP3   OH239247   2.113   0.616   7.503 -0.1976 -0.0757 -0.1072
 5871TIP3    H139248   2.023   0.597   7.477 -0.6634 -0.8807  1.8993
 5871TIP3    H239249   2.122   0.710   7.493 -0.7753 -0.1571 -1.6881
 5872TIP3   OH239250   3.969   1.633   2.429 -0.7080 -0.1042 -0.2159
 5872TIP3    H139251   3.964   1.539   2.416 -0.7224  0.0263 -1.2048
 5872TIP3    H239252   3.918   1.649   2.508  0.2873 -1.0633  0.6550
 5873TIP3   OH239253   2.917   5.162   9.166  0.1644  0.3060  0.5854
 5873TIP3    H139254   2.959   5.108   9.234 -0.9997  0.8794  1.8045
 5873TIP3    H239255   2.886   5.239   9.213 -0.7429  0.6827 -0.5992
 5874TIP3   OH239256   5.368   5.668   7.886 -0.8530  0.0704 -0.2648
 5874TIP3    H139257   5.440   5.697   7.830 -0.5225  0.0571  0.1464
 5874TIP3    H239258   5.342   5.746   7.935 -0.9081  0.0017 -0.1848
 5875TIP3   OH239259   4.545   0.355   0.687 -0.0548 -0.3739 -0.0979
 5875TIP3    H139260   4.551   0.426   0.623  0.6733 -1.1110 -0.8548
 5875TIP3    H239261   4.500   0.285   0.642  0.0895 -0.7495  0.3359
 5876TIP3   OH239262   4.272   1.386   8.156  0.0640 -0.1487 -0.4584
 5876TIP3    H139263   4.290   1.463   8.102  0.6059  0.0848  0.0349
 5876TIP3    H239264   4.359   1.352   8.178 -0.0944  0.3628  1.1072
 5877TIP3   OH239265   2.838   3.525   3.305  0.0041  0.5544 -0.0581
 5877TIP3    H139266   2.758   3.573   3.285 -1.3170 -1.5587 -0.0924
 5877TIP3    H239267   2.901   3.593   3.331 -1.3491  2.3956 -1.3439
 5878TIP3   OH239268   2.936   2.768   1.370 -0.1230 -0.5346 -0.3336
 5878TIP3    H139269   3.028   2.794   1.377 -0.9008  2.1936  1.6348
 5878TIP3    H239270   2.909   2.752   1.461 -1.8768  0.0170 -0.7131
 5879TIP3   OH239271   5.518   0.103   1.465 -0.2289  0.0877  0.0263
 5879TIP3    H139272   5.494   0.169   1.530 -0.5997 -0.2989  0.2853
 5879TIP3    H239273   5.489   0.140   1.381  0.6756  0.8015  0.0095
 5880TIP3   OH239274   5.874   5.289   0.348 -0.3267 -0.0401  0.2022
 5880TIP3    H139275   5.824   5.208   0.352  0.7156 -0.7718 -1.0501
 5880TIP3    H239276   5.943   5.278   0.414 -1.2112  0.5662  1.2482
 5881TIP3   OH239277   6.102   3.166   1.087  0.1813  0.6294  0.4931
 5881TIP3    H139278   6.100   3.109   1.010 -1.5060  1.2122  0.0660
 5881TIP3    H239279   6.094   3.106   1.162  3.5874 -0.1183  0.4166
 5882TIP3   OH239280   4.850   4.391   9.434 -0.3965  0.4037 -0.2329
 5882TIP3    H139281   4.809   4.476   9.446  1.5425  1.6510 -1.8620
 5882TIP3    H239282   4.843   4.349   9.520 -1.9027  1.9332  0.4585
 5883TIP3   OH239283   3.437   2.695   2.829 -0.8543 -0.6892 -0.0924
 5883TIP3    H139284   3.403   2.659   2.747  0.0993  0.1490 -0.8834
 5883TIP3    H239285   3.502   2.631   2.858  1.0243  0.3766 -1.6294
 5884TIP3   OH239286   4.227   0.983   0.059  0.1999 -0.4815  0.0658
 5884TIP3    H139287   4.282   0.929   0.116  0.7844 -0.8308 -0.8031
 5884TIP3    H239288   4.230   0.939  -0.026  2.8411  2.2309 -1.4402
 5885TIP3   OH239289   5.098   0.236   0.127 -0.0638  0.2317 -0.3328
 5885TIP3    H139290   5.115   0.212   0.218  3.1411  0.9702 -0.6135
 5885TIP3    H239291   5.050   0.318   0.133  0.0729  0.2511  0.6952
 5886TIP3   OH239292   2.601   5.973   9.404 -0.0544 -0.5538  0.4714
 5886TIP3    H139293   2.693   5.953   9.415  0.6909  2.5489  0.6623
 5886TIP3    H239294   2.563   5.964   9.491  0.6556  0.6319  0.9214
 5887TIP3   OH239295   6.242   0.396   9.213 -0.0698 -0.5204 -0.8330
 5887TIP3    H139296   6.178   0.358   9.153 -1.6292  1.9068 -0.8401
 5887TIP3    H239297   6.194   0.406   9.295  0.2451  1.3993 -0.8528
 5888TIP3   OH239298   4.984   0.955   2.043  0.5258 -0.2561  0.0886
 5888TIP3    H139299   4.940   1.039   2.032  2.1991  0.7858  1.0295
 5888TIP3    H239300   5.055   0.956   1.979 -0.7193 -1.9047 -1.4007
 5889TIP3   OH239301   0.606   1.946   2.656 -0.2514 -0.3555 -0.1014
 5889TIP3    H139302   0.532   1.890   2.682  0.3871 -1.0720  0.2223
 5889TIP3    H239303   0.606   2.017   2.719 -1.2656  0.1910 -0.7035
 5890TIP3   OH239304   0.445   1.658   2.568  0.4344 -0.7254  0.4991
 5890TIP3    H139305   0.379   1.590   2.554  1.3918 -1.1276 -3.1770
 5890TIP3    H239306   0.492   1.630   2.647 -1.3317 -2.4554  1.0280
 5891TIP3   OH239307   1.872   0.253   9.343 -0.3547  0.9271 -0.5648
 5891TIP3    H139308   1.937   0.250   9.273  0.6134 -0.6112  0.3424
 5891TIP3    H239309   1.882   0.340   9.382  1.8466  0.4031  0.1442
 5892TIP3   OH239310   0.116   1.187   0.849  0.6013  0.8309 -0.0818
 5892TIP3    H139311   0.186   1.213   0.788  1.7438  0.7863  1.1693
 5892TIP3    H239312   0.060   1.264   0.855  1.2986  1.3437 -0.0619
 5893TIP3   OH239313   0.722   4.924   0.760  0.3610 -0.1986  0.5122
 5893TIP3    H139314   0.627   4.909   0.763  0.1775  0.8837  0.8460
 5893TIP3    H239315   0.747   4.936   0.851  0.2710  2.3959  0.2784
 5894TIP3   OH239316   1.307   0.888   1.144  0.0142 -0.3060 -0.1825
 5894TIP3    H139317   1.258   0.826   1.199  0.1458 -0.0415  0.2335
 5894TIP3    H239318   1.390   0.844   1.128  0.0482 -0.3037 -0.0148
 5895TIP3   OH239319   4.554   3.084   9.133  0.1068  0.0123  0.1336
 5895TIP3    H139320   4.556   3.017   9.064 -1.3043  0.4977 -0.4319
 5895TIP3    H239321   4.645   3.103   9.151  0.5275  0.1713 -1.9266
 5896TIP3   OH239322   1.945   4.666   7.994 -0.3369 -0.0858  0.5110
 5896TIP3    H139323   2.040   4.658   7.982  0.1764  1.6113  2.7082
 5896TIP3    H239324   1.907   4.622   7.918  2.2220  0.8633 -1.4705
 5897TIP3   OH239325   1.834   3.631   2.029 -0.4021 -0.0058 -0.0947
 5897TIP3    H139326   1.928   3.643   2.042 -0.2398 -1.0554 -0.2389
 5897TIP3    H239327   1.800   3.720   2.020  0.5381  0.3974  0.2021
 5898TIP3   OH239328   1.237   5.435   1.484 -0.0494  0.1552  0.0709
 5898TIP3    H139329   1.279   5.518   1.463 -0.2868 -0.1860 -1.9261
 5898TIP3    H239330   1.309   5.374   1.498  0.1230  0.6172  1.4171
 5899TIP3   OH239331   0.327   3.812   0.826  0.1282 -0.1841 -0.2778
 5899TIP3    H139332   0.278   3.883   0.866 -0.1174 -0.9149  0.7540
 5899TIP3    H239333   0.415   3.847   0.815  0.2522 -0.0181  1.0930
 5900TIP3   OH239334   3.018   0.131   8.160  0.5212 -0.3044 -0.0787
 5900TIP3    H139335   3.032   0.039   8.186 -0.7494 -1.0224 -1.7364
 5900TIP3    H239336   3.092   0.150   8.102 -0.7268 -1.3198 -2.1124
 5901TIP3   OH239337   5.762   6.054   1.848  0.3559 -0.1710 -0.0704
 5901TIP3    H139338   5.778   5.976   1.902  0.4670 -2.0456 -2.6051
 5901TIP3    H239339   5.669   6.071   1.856  0.6407  0.6300  1.9535
 5902TIP3   OH239340   1.872   3.840   1.223 -0.7208  0.1028 -0.0829
 5902TIP3    H139341   1.938   3.853   1.155  0.7389  2.2422  1.6310
 5902TIP3    H239342   1.867   3.744   1.233 -1.0390 -0.2990 -3.1386
 5903TIP3   OH239343   2.504   1.829   1.298 -0.1415  0.0477 -0.0619
 5903TIP3    H139344   2.541   1.916   1.284  1.4763 -0.4152  1.0716
 5903TIP3    H239345   2.498   1.820   1.393  1.6866 -1.8098 -0.0525
 5904TIP3   OH239346   0.027   2.497   1.279  0.4589  0.3853 -0.0950
 5904TIP3    H139347  -0.059   2.531   1.253 -0.2740  0.0131  1.7257
 5904TIP3    H239348   0.024   2.495   1.374  1.8253 -1.3829 -0.0491
 5905TIP3   OH239349   2.038   2.837   9.480 -0.2566  0.5890  0.2079
 5905TIP3    H139350   1.953   2.802   9.453 -0.6555  0.7290  1.2270
 5905TIP3    H239351   2.086   2.761   9.511 -0.4347  0.6713  0.6902
 5906TIP3   OH239352   2.928   4.670   8.929  0.1068 -0.0578  0.1785
 5906TIP3    H139353   2.841   4.685   8.893  0.4336 -1.4467 -1.3086
 5906TIP3    H239354   2.921   4.587   8.975  0.6154 -0.1199  0.1529
 5907TIP3   OH239355   0.604   5.751   9.144 -0.4480  0.0249 -0.1751
 5907TIP3    H139356   0.598   5.799   9.226 -1.4946 -1.5775  0.7368
 5907TIP3    H239357   0.572   5.812   9.078  1.9640  1.9428  0.2810
 5908TIP3   OH239358   1.149   0.929   0.614  0.5696  0.2568  0.2528
 5908TIP3    H139359   1.126   0.973   0.696 -1.0486 -0.7722  0.3961
 5908TIP3    H239360   1.072   0.875   0.593  1.0716  0.2630 -1.7921
 5909TIP3   OH239361   3.797   5.236   2.564 -0.0394 -0.1615  0.1123
 5909TIP3    H139362   3.790   5.316   2.615 -1.2502 -0.8925  1.1359
 5909TIP3    H239363   3.727   5.243   2.498  0.6462  0.1632 -0.5993
 5910TIP3   OH239364   5.457   4.523   0.859 -0.1020 -0.5333 -0.2237
 5910TIP3    H139365   5.383   4.540   0.918  0.5428 -0.8777  0.7008
 5910TIP3    H239366   5.416   4.510   0.774 -0.8721  2.5570 -0.4331
 5911TIP3   OH239367   4.888   4.890   0.503 -0.4975  0.4499  0.3954
 5911TIP3    H139368   4.900   4.913   0.411 -0.1618  1.0632  0.5909
 5911TIP3    H239369   4.820   4.822   0.501 -1.2965  1.2442 -0.2090
 5912TIP3   OH239370   4.038   4.662   1.693 -0.0220 -0.3357  0.6956
 5912TIP3    H139371   3.997   4.741   1.728 -0.4241 -1.2356  2.3460
 5912TIP3    H239372   4.067   4.614   1.770 -0.4285 -2.1579 -0.2386
 5913TIP3   OH239373   2.236   0.539   9.494  0.6046  0.1896  0.1370
 5913TIP3    H139374   2.292   0.617   9.496 -0.3667  0.8804  1.5661
 5913TIP3    H239375   2.297   0.466   9.481  1.7427  0.9956  0.8022
 5914TIP3   OH239376   2.847   3.968   1.663  0.3683  0.1231  0.4784
 5914TIP3    H139377   2.900   3.890   1.647  1.6079  1.2833 -1.5580
 5914TIP3    H239378   2.901   4.022   1.720  0.9101  0.7929 -0.6350
 5915TIP3   OH239379   2.142   4.906   2.082  0.0733  0.1432 -0.2325
 5915TIP3    H139380   2.231   4.871   2.074  0.2045  0.0725  1.1706
 5915TIP3    H239381   2.124   4.947   1.998  1.4423  0.1812 -0.5287
 5916TIP3   OH239382   5.378   3.979   9.265 -0.2411 -0.2605  0.4711
 5916TIP3    H139383   5.369   4.060   9.315  0.3930 -0.0363  0.2277
 5916TIP3    H239384   5.297   3.974   9.213  0.0236  0.5996 -0.0610
 5917TIP3   OH239385   2.184   1.157   1.203  0.4526  0.7771  0.8054
 5917TIP3    H139386   2.111   1.146   1.263  0.9206  0.2628  1.2942
 5917TIP3    H239387   2.261   1.129   1.253  0.5033 -2.8238 -1.0084
 5918TIP3   OH239388   5.873   3.098   9.596  0.1931  0.0263  0.2762
 5918TIP3    H139389   5.967   3.093   9.615  0.9041  1.5424 -2.2930
 5918TIP3    H239390   5.844   3.179   9.637  0.0709 -0.2679  0.7789
 5919TIP3   OH239391   6.077   0.454   9.443  0.3652  0.2388 -0.6030
 5919TIP3    H139392   6.018   0.504   9.385  0.5156 -2.2079 -3.0566
 5919TIP3    H239393   6.018   0.397   9.493  0.4747 -0.6127 -1.4261
 5920TIP3   OH239394   0.771   6.226   9.936 -0.1674 -0.2232 -0.4446
 5920TIP3    H139395   0.739   6.314   9.914  0.4329 -0.1548 -1.0998
 5920TIP3    H239396   0.864   6.229   9.914 -0.0755 -0.9290 -0.1646
 5921TIP3   OH239397   5.570   1.102   7.338 -0.1190 -0.6877  0.3272
 5921TIP3    H139398   5.555   1.126   7.246  2.4207 -0.1172 -0.0263
 5921TIP3    H239399   5.495   1.138   7.384 -0.8446  0.1199 -1.3789
 5922TIP3   OH239400   3.123   6.004   9.940 -0.5936  0.3283 -0.2847
 5922TIP3    H139401   3.171   6.086   9.930 -0.2233  0.4102  1.6450
 5922TIP3    H239402   3.088   5.985   9.853  1.4581  1.1794 -1.3606
 5923TIP3   OH239403   3.893   1.310   0.318 -0.3742  0.1441  0.1057
 5923TIP3    H139404   3.975   1.318   0.366  0.9361  1.6079 -2.2142
 5923TIP3    H239405   3.833   1.370   0.364  1.1422  2.2890 -0.5830
 5924TIP3   OH239406   1.899   3.918   8.180  0.6326 -0.1216 -0.2037
 5924TIP3    H139407   1.946   3.971   8.243 -0.6122  0.8343 -0.0476
 5924TIP3    H239408   1.958   3.911   8.105  1.0217  1.0749 -0.0258
 5925TIP3   OH239409   2.898   4.481   0.575  0.0932  0.0388 -0.7629
 5925TIP3    H139410   2.991   4.503   0.567  0.3402 -1.4683 -3.2686
 5925TIP3    H239411   2.897   4.397   0.621 -0.0293  0.1053 -0.6456
 5926TIP3   OH239412   1.038   3.635   3.036  0.3996 -0.3909 -0.3888
 5926TIP3    H139413   0.983   3.712   3.050 -0.0262  0.4543 -5.1907
 5926TIP3    H239414   0.981   3.561   3.054  0.2743  0.2645  2.4723
 5927TIP3   OH239415   1.532   3.064   0.981 -0.2040  0.1077  0.1004
 5927TIP3    H139416   1.554   2.978   1.017  1.1349  0.2686 -0.2895
 5927TIP3    H239417   1.462   3.047   0.918 -0.9147 -0.4891  1.0193
 5928TIP3   OH239418   1.697   6.248   2.030  0.0368  0.0925  0.0299
 5928TIP3    H139419   1.723   6.165   1.989  0.8750  0.0462  0.6070
 5928TIP3    H239420   1.680   6.307   1.957  2.0558  0.1827 -0.4350
 5929TIP3   OH239421   0.950   1.409   3.007  0.1718  0.0567  0.1816
 5929TIP3    H139422   0.876   1.471   3.002  0.5923  0.5188 -0.6571
 5929TIP3    H239423   0.917   1.336   3.059 -1.6462 -0.7718 -1.9571
 5930TIP3   OH239424   0.552   0.836   8.520  0.1618 -0.1794 -0.4650
 5930TIP3    H139425   0.574   0.928   8.538 -1.8673 -0.0025  1.5836
 5930TIP3    H239426   0.457   0.835   8.511  0.3433 -1.6883 -3.5099
 5931TIP3   OH239427   4.104   1.142   1.867  0.3570  0.0906 -0.1229
 5931TIP3    H139428   4.081   1.219   1.919 -0.9333 -0.8044  0.6757
 5931TIP3    H239429   4.108   1.175   1.777  1.7246  1.4693  0.3977
 5932TIP3   OH239430   5.638   5.883   2.887  0.0754  0.1390  0.1987
 5932TIP3    H139431   5.569   5.817   2.882 -0.3974  0.5928  0.7155
 5932TIP3    H239432   5.717   5.832   2.908 -0.5118 -0.1536  1.8841
 5933TIP3   OH239433   1.602   4.077   3.243 -0.5509  0.0019  0.1259
 5933TIP3    H139434   1.684   4.126   3.249 -0.1499 -0.1312 -2.7447
 5933TIP3    H239435   1.543   4.121   3.305  1.6267  0.0635  2.3243
 5934TIP3   OH239436   0.037   5.857   0.938 -0.5821 -0.1608 -0.2536
 5934TIP3    H139437   0.082   5.936   0.966 -0.1733 -0.7363  0.7667
 5934TIP3    H239438  -0.051   5.887   0.914  0.1248  0.8691 -1.6606
 5935TIP3   OH239439   3.428   2.894   1.759  0.2179 -0.3894 -0.3909
 5935TIP3    H139440   3.518   2.898   1.793  0.2562 -1.6636 -0.3031
 5935TIP3    H239441   3.381   2.838   1.822 -0.1562 -1.3013 -1.4449
 5936TIP3   OH239442   2.730   4.640   2.651 -0.3749 -0.7868  0.0065
 5936TIP3    H139443   2.781   4.588   2.588 -0.6664 -1.1006  0.0211
 5936TIP3    H239444   2.659   4.677   2.599  0.0518 -0.0832 -0.0781
 5937TIP3   OH239445   4.646   4.092   9.328 -0.1578  0.1054 -0.3597
 5937TIP3    H139446   4.729   4.110   9.284  0.7514  0.8924  1.5955
 5937TIP3    H239447   4.585   4.155   9.289  0.7061  1.0357 -0.2608
 5938TIP3   OH239448   5.383   6.403   9.541 -0.2648  0.2898 -0.0695
 5938TIP3    H139449   5.337   6.437   9.464 -0.1943  1.4973  0.3950
 5938TIP3    H239450   5.338   6.444   9.615  0.9069  0.6951  0.4333
 5939TIP3   OH239451   0.067   5.015   7.449  0.1793  0.0219  0.3221
 5939TIP3    H139452   0.161   5.017   7.466  0.0318 -0.8111  1.3502
 5939TIP3    H239453   0.042   4.923   7.459 -1.0144  0.4538  1.8001
 5940TIP3   OH239454   3.576   6.257   2.144 -0.0787  0.5326 -0.1113
 5940TIP3    H139455   3.589   6.293   2.057 -0.4203  0.1414 -0.3293
 5940TIP3    H239456   3.484   6.230   2.146  0.4524 -1.4802 -0.4055
 5941TIP3   OH239457   4.717   0.631   0.900  0.7932  0.3341 -0.2922
 5941TIP3    H139458   4.734   0.570   0.972  0.0809  0.9033  0.3716
 5941TIP3    H239459   4.781   0.701   0.912  1.2421  0.0098 -0.7294
 5942TIP3   OH239460   1.244   2.159   3.076 -0.2448  0.1353 -0.0101
 5942TIP3    H139461   1.175   2.175   3.141 -0.9920 -2.2085 -0.1371
 5942TIP3    H239462   1.198   2.157   2.992  0.4198  1.1589 -0.4190
 5943TIP3   OH239463   2.525   2.252   0.308 -0.0403 -0.1174  0.3701
 5943TIP3    H139464   2.567   2.322   0.259  0.0539  0.3685  1.1321
 5943TIP3    H239465   2.475   2.204   0.242  1.2128 -0.3465 -0.4438
 5944TIP3   OH239466   4.192   1.781   2.020  0.4070  0.2123 -0.4788
 5944TIP3    H139467   4.110   1.817   1.986  0.0550  0.3076  0.4534
 5944TIP3    H239468   4.194   1.808   2.112  0.0179 -2.2783  0.3346
 5945TIP3   OH239469   1.833   0.337   9.890  0.0802  0.7988  0.4946
 5945TIP3    H139470   1.875   0.261   9.849 -0.1816  0.3434  1.0466
 5945TIP3    H239471   1.901   0.404   9.892  0.5469  0.3247  0.6807
 5946TIP3   OH239472   3.314   5.623   0.648 -0.4620 -0.2812  0.0910
 5946TIP3    H139473   3.228   5.581   0.643 -1.2751  1.3431 -0.1499
 5946TIP3    H239474   3.311   5.691   0.581  0.6769  0.3984  0.7101
 5947TIP3   OH239475   2.493   4.284   1.694 -0.1127 -0.3686  0.2167
 5947TIP3    H139476   2.539   4.365   1.716 -0.0994 -0.6591  1.3569
 5947TIP3    H239477   2.428   4.310   1.629  2.1814 -0.0964 -2.1393
 5948TIP3   OH239478   6.009   4.479   2.135 -0.4416  0.1772  0.2364
 5948TIP3    H139479   5.917   4.504   2.137  0.0944  2.4188  0.3672
 5948TIP3    H239480   6.024   4.449   2.045 -1.5162 -1.2916  0.5217
 5949TIP3   OH239481   4.637   4.739   1.109  0.0316 -0.2319 -0.3790
 5949TIP3    H139482   4.646   4.644   1.100  0.6253 -0.4096  1.4812
 5949TIP3    H239483   4.669   4.774   1.026 -1.3062 -1.6733 -1.5582
 5950TIP3   OH239484   2.836   5.324   8.894  0.0101 -0.1862 -0.1191
 5950TIP3    H139485   2.860   5.395   8.834 -1.6070 -1.3172 -2.2752
 5950TIP3    H239486   2.918   5.279   8.912  0.4813 -0.2274 -2.1391
 5951TIP3   OH239487   1.470   4.319   7.768 -0.6632 -0.3671  0.0601
 5951TIP3    H139488   1.512   4.395   7.729  0.9950 -2.3860 -2.4868
 5951TIP3    H239489   1.382   4.318   7.729 -0.3718 -0.2229 -0.6238
 5952TIP3   OH239490   3.569   2.821   9.661  0.6554  0.2808 -0.3054
 5952TIP3    H139491   3.508   2.894   9.658  0.9198  0.6356  1.7868
 5952TIP3    H239492   3.515   2.743   9.645  0.0309  0.7594 -0.5455
 5953TIP3   OH239493   5.341   0.414   8.490 -0.2911 -0.2020  0.2685
 5953TIP3    H139494   5.266   0.386   8.437 -0.7798  3.1383 -1.0922
 5953TIP3    H239495   5.305   0.432   8.576 -0.2861 -2.0008  0.6644
 5954TIP3   OH239496   5.581   0.313   9.538  0.0097  0.2604 -0.3128
 5954TIP3    H139497   5.491   0.346   9.544  0.1034  0.9974 -2.2992
 5954TIP3    H239498   5.584   0.242   9.603 -2.9199 -1.7419 -2.0752
 5955TIP3   OH239499   1.972   3.373   9.364  0.3023  0.5574 -0.0544
 5955TIP3    H139500   2.009   3.452   9.324  1.5437  0.5158  0.9293
 5955TIP3    H239501   2.045   3.334   9.412 -0.5461 -0.6421  0.3170
 5956TIP3   OH239502   4.303   5.710   2.033 -0.0121  0.2492  0.2005
 5956TIP3    H139503   4.300   5.627   2.081  2.4745 -0.9660 -1.5376
 5956TIP3    H239504   4.240   5.766   2.079 -0.8604 -2.1526  2.2190
 5957TIP3   OH239505   3.432   0.706   2.163  0.0010 -0.0499 -0.1142
 5957TIP3    H139506   3.433   0.619   2.122  1.1478 -0.0170 -0.1809
 5957TIP3    H239507   3.521   0.739   2.151 -0.2875  0.9234  0.3699
 5958TIP3   OH239508   1.626   0.989   0.527  0.2009  0.3532 -0.8372
 5958TIP3    H139509   1.604   0.980   0.620 -0.6806  0.6844 -1.0000
 5958TIP3    H239510   1.697   0.926   0.512 -0.4498 -0.5508 -0.2047
 5959TIP3   OH239511   5.275   3.144   0.602  0.4927 -0.4860 -0.0451
 5959TIP3    H139512   5.188   3.167   0.637  0.5906  0.5916 -0.4589
 5959TIP3    H239513   5.258   3.116   0.513  0.6102  0.2928 -0.3253
 5960TIP3   OH239514   0.408   1.861   2.841 -0.3359 -0.2874  0.7591
 5960TIP3    H139515   0.480   1.800   2.828 -0.7734 -0.2520 -2.6077
 5960TIP3    H239516   0.331   1.806   2.850 -0.3843 -0.2802  0.4014
 5961TIP3   OH239517   0.419   0.600   1.839 -0.6062  0.7145 -0.0909
 5961TIP3    H139518   0.394   0.580   1.748  1.6595  2.7606 -1.2775
 5961TIP3    H239519   0.340   0.639   1.877 -1.9755 -1.2786 -0.7374
 5962TIP3   OH239520   6.277   3.961   9.686 -0.1965  0.0774  0.1507
 5962TIP3    H139521   6.340   3.890   9.681 -0.4048 -0.0858 -0.2031
 5962TIP3    H239522   6.280   4.002   9.599 -0.5634  0.0819  0.1389
 5963TIP3   OH239523   4.244   5.547   2.245  0.3254  0.0706 -0.4144
 5963TIP3    H139524   4.228   5.462   2.284 -0.9777  0.3522 -0.2824
 5963TIP3    H239525   4.231   5.610   2.317 -0.8099  0.5007 -0.9625
 5964TIP3   OH239526   0.236   1.592   9.626  0.1471  0.4476 -0.2433
 5964TIP3    H139527   0.203   1.568   9.713  3.5506  1.6339  1.5621
 5964TIP3    H239528   0.209   1.683   9.614  0.3971  0.5467 -0.0501
 5965TIP3   OH239529   0.474   2.568   0.549  0.1286  0.8193 -0.7180
 5965TIP3    H139530   0.500   2.523   0.469 -0.1609 -0.6647 -0.0086
 5965TIP3    H239531   0.528   2.528   0.618 -1.9698 -0.3419  0.3454
 5966TIP3   OH239532   0.461   2.688   2.694 -0.1302  0.7145  0.1239
 5966TIP3    H139533   0.385   2.691   2.636  0.2517 -0.3558 -0.4512
 5966TIP3    H239534   0.428   2.723   2.778 -1.6172 -0.9509  0.2921
 5967TIP3   OH239535   1.227   3.869   1.697  0.4085 -0.2995  0.0931
 5967TIP3    H139536   1.165   3.901   1.630 -2.6890 -0.0338  2.8185
 5967TIP3    H239537   1.219   3.774   1.693  0.5420 -0.3021 -0.1563
 5968TIP3   OH239538   1.506   2.337   8.511 -0.5595 -0.1605 -0.7413
 5968TIP3    H139539   1.582   2.300   8.556  0.4035  0.4229 -1.7972
 5968TIP3    H239540   1.490   2.277   8.438  0.9273  1.2788 -2.3847
 5969TIP3   OH239541   1.506   2.894   0.511  0.3935 -0.4353 -0.0291
 5969TIP3    H139542   1.578   2.838   0.480  0.3875  0.1175 -1.0865
 5969TIP3    H239543   1.526   2.981   0.475  1.3912  0.7502  3.0654
 5970TIP3   OH239544   3.578   3.660   1.324  0.6225 -0.0657  0.2162
 5970TIP3    H139545   3.560   3.709   1.404 -0.6767 -1.4008  0.7802
 5970TIP3    H239546   3.497   3.664   1.273  1.7028  1.5440 -1.5283
 5971TIP3   OH239547   6.057   4.164   2.087  0.6150  0.2569 -0.2383
 5971TIP3    H139548   6.079   4.223   2.016 -0.6280 -0.1637 -1.0037
 5971TIP3    H239549   5.989   4.210   2.137  0.7491  0.1162  0.0814
 5972TIP3   OH239550   1.299   0.355   8.198  0.3667  0.1568  0.6774
 5972TIP3    H139551   1.238   0.401   8.255  0.4438  0.5740  0.4301
 5972TIP3    H239552   1.349   0.298   8.257 -0.7620 -0.7651  0.7873
 5973TIP3   OH239553   1.549   2.665   9.667 -0.3802  0.7972  0.3322
 5973TIP3    H139554   1.519   2.582   9.629 -1.0111  1.1568  0.0296
 5973TIP3    H239555   1.490   2.731   9.630 -2.3456  0.9633  3.4069
 5974TIP3   OH239556   1.955   2.882   2.463  0.3172 -0.4250  0.4668
 5974TIP3    H139557   2.008   2.808   2.434 -1.4061 -2.2978  1.8470
 5974TIP3    H239558   1.908   2.909   2.384  0.6820 -1.0267  0.0335
 5975TIP3   OH239559   0.218   3.057   9.658 -0.0245  0.4072 -0.4474
 5975TIP3    H139560   0.267   3.056   9.740  0.1515 -0.6427 -0.5639
 5975TIP3    H239561   0.229   2.970   9.621  0.5227  1.0798 -1.9747
 5976TIP3   OH239562   1.507   3.449   9.534 -0.0927  0.2430 -0.9360
 5976TIP3    H139563   1.507   3.371   9.479  0.0262 -0.9466  0.6658
 5976TIP3    H239564   1.417   3.454   9.567  0.4885 -0.7875  0.9924
 5977TIP3   OH239565   5.613   3.774   0.752  0.2892  0.6420 -0.3428
 5977TIP3    H139566   5.520   3.763   0.771  0.4569 -1.4257 -0.4436
 5977TIP3    H239567   5.646   3.825   0.826 -0.7311  0.4735  0.2552
 5978TIP3   OH239568   0.071   0.390   9.320 -0.0177 -0.6153  0.2282
 5978TIP3    H139569   0.094   0.474   9.281  0.3843 -1.4182 -1.3398
 5978TIP3    H239570  -0.022   0.379   9.299 -0.0651 -0.5815  0.4145
 5979TIP3   OH239571   3.352   4.688   3.335 -0.2866  0.2643 -0.5525
 5979TIP3    H139572   3.411   4.631   3.384 -0.0939  0.6023 -0.3858
 5979TIP3    H239573   3.274   4.694   3.389 -0.1508  0.4791 -0.3793
 5980TIP3   OH239574   0.975   1.285   0.004  0.2254  0.5641  0.1239
 5980TIP3    H139575   0.967   1.230   0.082  0.8073  0.7904  0.3547
 5980TIP3    H239576   0.886   1.309  -0.018  0.0269  0.1906  0.5065
 5981TIP3   OH239577   4.361   1.577   0.239 -0.1421  0.0506  0.2507
 5981TIP3    H139578   4.434   1.552   0.182 -0.7989  0.8656 -0.9844
 5981TIP3    H239579   4.388   1.549   0.326  2.0872  1.2003 -0.0068
 5982TIP3   OH239580   5.079   5.782   3.453  0.1312 -0.5763 -0.2236
 5982TIP3    H139581   5.106   5.864   3.495  0.4429 -0.4548 -0.6496
 5982TIP3    H239582   5.128   5.714   3.500 -1.0360 -0.6625  0.9412
 5983TIP3   OH239583   5.513   2.723   2.726 -0.3285  0.1779 -0.3654
 5983TIP3    H139584   5.428   2.764   2.746  0.1791  1.6407 -1.0540
 5983TIP3    H239585   5.565   2.739   2.805 -0.9087 -1.4611  0.4012
 5984TIP3   OH239586   0.056   0.330   1.678  0.1671  0.1860  0.9283
 5984TIP3    H139587   0.053   0.283   1.761  0.0918  0.8470  1.3091
 5984TIP3    H239588   0.067   0.262   1.611 -1.1254 -0.4686  1.3575
 5985TIP3   OH239589   1.087   4.526   9.702 -0.3557 -0.3319  0.2262
 5985TIP3    H139590   1.050   4.561   9.621  1.4129  0.2602 -0.3720
 5985TIP3    H239591   1.045   4.441   9.713  0.0805 -0.8716 -1.8907
 5986TIP3   OH239592   0.346   5.626   2.940 -0.3332  0.2607  0.3976
 5986TIP3    H139593   0.324   5.719   2.950  1.1625  0.5807  0.9837
 5986TIP3    H239594   0.419   5.625   2.878 -0.2586 -0.5090  0.4846
 5987TIP3   OH239595   5.596   4.185   1.505 -0.2064 -0.0534  0.0746
 5987TIP3    H139596   5.525   4.237   1.541  1.0144  0.9643  1.1161
 5987TIP3    H239597   5.626   4.234   1.429  1.0792  0.9471  1.1749
 5988TIP3   OH239598   2.042   3.372   3.107  1.0615 -0.3511 -0.2473
 5988TIP3    H139599   2.012   3.297   3.159 -0.8376  0.9223  0.6375
 5988TIP3    H239600   2.063   3.439   3.173 -0.1266  0.8560 -1.0503
 5989TIP3   OH239601   2.884   1.002   7.545 -0.0751 -0.0947 -0.4892
 5989TIP3    H139602   2.837   1.085   7.558  0.7869  0.2602  0.5319
 5989TIP3    H239603   2.894   0.995   7.450  0.2744  1.2340 -0.5771
 5990TIP3   OH239604   3.879   2.868   3.768  0.0176  0.4036  0.0936
 5990TIP3    H139605   3.881   2.962   3.750  0.5608 -0.0592 -2.5929
 5990TIP3    H239606   3.787   2.846   3.769 -0.0834  0.7662 -0.5186
 5991TIP3   OH239607   1.801   1.909   9.789 -0.2012 -0.1627 -0.0393
 5991TIP3    H139608   1.806   1.814   9.777 -1.7168 -0.1731 -0.8199
 5991TIP3    H239609   1.841   1.944   9.709 -0.0779 -0.1414  0.0306
 5992TIP3   OH239610   0.238   1.189   2.335 -0.0582  0.3843  0.5517
 5992TIP3    H139611   0.156   1.151   2.304 -0.6111  2.6508 -1.0071
 5992TIP3    H239612   0.216   1.228   2.419 -0.1262 -0.4156  0.9212
 5993TIP3   OH239613   3.255   3.849   8.861  0.2454 -0.1380 -0.5937
 5993TIP3    H139614   3.322   3.916   8.849 -0.6067  1.0033  0.6467
 5993TIP3    H239615   3.275   3.782   8.795  1.5660  0.9739 -1.3706
 5994TIP3   OH239616   5.294   2.847   0.857 -0.6390 -0.0229  0.5034
 5994TIP3    H139617   5.367   2.789   0.836 -0.4553  0.9192 -1.8677
 5994TIP3    H239618   5.327   2.905   0.924  1.2118  0.9996 -1.1833
 5995TIP3   OH239619   4.272   3.290   9.756 -0.0866  0.2301  0.3013
 5995TIP3    H139620   4.303   3.377   9.730  0.8400  0.4373  1.9853
 5995TIP3    H239621   4.204   3.308   9.821  0.0806 -0.3014  0.6240
 5996TIP3   OH239622   1.549   2.572   0.511 -0.5592  0.2050  0.3625
 5996TIP3    H139623   1.560   2.478   0.523  0.2678  0.3003  0.4351
 5996TIP3    H239624   1.630   2.600   0.468 -2.0786  0.3881 -2.6475
 5997TIP3   OH239625   5.116   3.307   9.031 -0.4296  0.1888  0.0546
 5997TIP3    H139626   5.202   3.273   9.010  0.6455  1.0542  2.5932
 5997TIP3    H239627   5.077   3.241   9.089 -0.6832  0.6616  0.4327
 5998TIP3   OH239628   0.646   3.408   8.152  0.1142  0.3497 -0.2537
 5998TIP3    H139629   0.731   3.374   8.180 -0.6230  0.1970  2.0598
 5998TIP3    H239630   0.597   3.331   8.125  0.5316  0.3738 -1.0924
 5999TIP3   OH239631   1.528   0.133   8.718  0.3939  0.1685 -0.2603
 5999TIP3    H139632   1.600   0.184   8.683 -0.1862  1.8432  0.8666
 5999TIP3    H239633   1.564   0.092   8.797  0.6654 -0.6663 -0.8012
 6000TIP3   OH239634   6.138   0.814   2.131 -0.3730  0.3897  0.2164
 6000TIP3    H139635   6.184   0.733   2.149  0.1086  0.3485 -1.1075
 6000TIP3    H239636   6.189   0.856   2.062  0.1576  2.4824  1.7917
 6001TIP3   OH239637   0.569   2.158   1.709  0.1756 -0.0088 -0.0559
 6001TIP3    H139638   0.502   2.148   1.642 -0.8052  0.3593  0.8312
 6001TIP3    H239639   0.536   2.228   1.766  0.5505 -0.8796  1.2944
 6002TIP3   OH239640   3.816   4.311   2.286 -0.0823  0.2786  0.1385
 6002TIP3    H139641   3.896   4.340   2.331  0.3392 -2.9010  1.7787
 6002TIP3    H239642   3.846   4.240   2.229 -1.4975  0.4260 -0.8355
 6003TIP3   OH239643   4.805   1.906   7.704  0.0230  0.0715  0.3660
 6003TIP3    H139644   4.740   1.912   7.774 -0.3643 -0.4683  0.0660
 6003TIP3    H239645   4.887   1.885   7.748 -0.2726 -0.5387  0.6401
 6004TIP3   OH239646   4.670   3.534   1.372  0.1020  0.2630  0.5941
 6004TIP3    H139647   4.585   3.535   1.328  0.4968 -2.1761 -0.3637
 6004TIP3    H239648   4.722   3.600   1.326 -0.5599  0.1150 -0.3944
 6005TIP3   OH239649   1.991   5.196   0.087 -0.2221 -0.1211 -0.4076
 6005TIP3    H139650   2.073   5.185   0.038  0.6219  1.5413  0.5837
 6005TIP3    H239651   1.926   5.212   0.019  0.6220  0.4501 -1.1089
 6006TIP3   OH239652   1.457   1.142   8.085  0.1339  0.0593  0.0507
 6006TIP3    H139653   1.402   1.085   8.031 -0.3679 -0.3462  0.9765
 6006TIP3    H239654   1.416   1.228   8.076 -0.3397 -0.1348  0.3077
 6007TIP3   OH239655   0.748   0.999   8.731  0.1454 -0.2344 -0.0406
 6007TIP3    H139656   0.694   1.048   8.794 -0.3062 -2.4155  1.3702
 6007TIP3    H239657   0.773   1.064   8.666 -1.6793  1.5301  0.9004
 6008TIP3   OH239658   0.147   4.522   2.626  0.5060 -0.0254 -0.3560
 6008TIP3    H139659   0.112   4.495   2.541 -1.9230  1.1526  0.1859
 6008TIP3    H239660   0.153   4.617   2.621 -2.1644  0.3620  1.5506
 6009TIP3   OH239661   6.415   5.097   2.711 -0.1588 -0.3169  0.0787
 6009TIP3    H139662   6.385   5.012   2.741 -3.3503  1.1563  1.5935
 6009TIP3    H239663   6.448   5.140   2.790  1.7402 -0.2089 -0.7302
 6010TIP3   OH239664   1.313   3.175   9.279  0.4141  0.0916 -0.0377
 6010TIP3    H139665   1.241   3.124   9.316  0.6149 -0.5478 -0.5100
 6010TIP3    H239666   1.274   3.260   9.258  0.0108  0.0519  0.5105
 6011TIP3   OH239667   2.472   2.630   1.891 -0.0262 -0.0109  0.7073
 6011TIP3    H139668   2.535   2.673   1.834 -0.1273  0.7187  1.1287
 6011TIP3    H239669   2.476   2.538   1.867 -0.1950  0.3092 -0.5907
 6012TIP3   OH239670   4.922   4.744   3.699 -0.2416 -0.2343 -0.3317
 6012TIP3    H139671   4.892   4.746   3.791 -0.7433  1.0159 -0.5056
 6012TIP3    H239672   5.008   4.702   3.703 -0.7895 -1.3263  0.5507
 6013TIP3   OH239673   2.662   3.835   1.879 -0.0099 -0.8458  0.1097
 6013TIP3    H139674   2.627   3.923   1.873  0.8257 -0.5067  0.0492
 6013TIP3    H239675   2.747   3.846   1.920 -0.6405 -1.8338  1.7482
 6014TIP3   OH239676   5.277   5.612   3.567  0.0731 -0.2680 -0.1391
 6014TIP3    H139677   5.322   5.649   3.643  0.3941 -0.3372 -0.2924
 6014TIP3    H239678   5.344   5.561   3.522 -0.1452 -0.3269 -0.4028
 6015TIP3   OH239679   4.711   6.205   9.989 -0.5816 -0.0864  0.2298
 6015TIP3    H139680   4.787   6.256  10.018  1.1900 -1.8655 -1.0462
 6015TIP3    H239681   4.738   6.164   9.907 -2.0042 -2.7870  0.9814
 6016TIP3   OH239682   0.874   1.179   1.166  0.1279 -0.4906 -0.2467
 6016TIP3    H139683   0.956   1.147   1.128  0.4659 -0.4642  0.4612
 6016TIP3    H239684   0.899   1.255   1.217 -0.7486  1.3585 -2.3931
 6017TIP3   OH239685   3.051   2.215   1.992 -0.2542 -0.2625  0.2674
 6017TIP3    H139686   2.979   2.184   1.936 -1.0442  0.1628  1.0186
 6017TIP3    H239687   3.107   2.266   1.932 -1.4606  0.7783 -0.0222
 6018TIP3   OH239688   3.524   1.965   1.695  0.3607 -0.3012  0.3168
 6018TIP3    H139689   3.528   1.878   1.735  0.1029  0.1776  1.4154
 6018TIP3    H239690   3.615   1.984   1.672  0.8828  0.1950  2.4825
 6019TIP3   OH239691   4.872   1.763   1.133 -0.2956  0.3308  0.2148
 6019TIP3    H139692   4.787   1.745   1.093 -0.8130  3.9441 -0.7463
 6019TIP3    H239693   4.934   1.758   1.060 -0.1221  0.2035  0.3718
 6020TIP3   OH239694   1.318   3.747   9.396  0.1581  0.1294  0.3285
 6020TIP3    H139695   1.391   3.804   9.418 -0.5745  0.6199  1.5615
 6020TIP3    H239696   1.324   3.675   9.459 -0.8997  0.6151  1.0119
 6021TIP3   OH239697   4.306   2.693   1.033  0.7531  0.1758  0.2306
 6021TIP3    H139698   4.350   2.657   0.955 -0.0660  2.7370 -1.5524
 6021TIP3    H239699   4.367   2.758   1.067 -0.1743  1.3297 -0.2342
 6022TIP3   OH239700   0.117   6.377   2.274  0.0489  0.3643 -0.0930
 6022TIP3    H139701   0.031   6.352   2.240  0.5569 -2.7646  0.6193
 6022TIP3    H239702   0.172   6.300   2.259  2.0213  1.2766  1.9149
 6023TIP3   OH239703   5.003   1.173   2.233  0.3028  0.1962 -0.4141
 6023TIP3    H139704   5.064   1.101   2.249  0.8777  0.9728  1.0414
 6023TIP3    H239705   4.917   1.134   2.244  0.6121  0.0518  2.2137
 6024TIP3   OH239706   3.590   4.941   3.975 -0.0974 -0.1859  0.1716
 6024TIP3    H139707   3.678   4.979   3.970  0.3641 -1.0280  1.4371
 6024TIP3    H239708   3.533   5.015   3.991  0.6979  0.1261  1.8196
 6025TIP3   OH239709   0.756   1.474   1.354  0.3149 -0.1422 -0.4328
 6025TIP3    H139710   0.757   1.464   1.449  0.1230  0.9636 -0.3002
 6025TIP3    H239711   0.847   1.467   1.328  0.3761 -0.3628 -0.1653
 6026TIP3   OH239712   2.654   3.181   3.903 -0.2111 -0.0997  0.4185
 6026TIP3    H139713   2.749   3.182   3.907 -0.1911 -0.1660 -0.0052
 6026TIP3    H239714   2.634   3.127   3.826 -0.5929 -0.3491  0.6888
 6027TIP3   OH239715   4.253   1.050   1.237  0.6715 -0.0213 -0.0647
 6027TIP3    H139716   4.199   0.998   1.296  1.2708  0.3007  0.7784
 6027TIP3    H239717   4.215   1.138   1.241  0.8392  0.0481 -0.0037
 6028TIP3   OH239718   1.836   1.056   8.770  0.3461  0.1711  0.7556
 6028TIP3    H139719   1.879   1.142   8.766 -0.4931  0.5612 -0.5721
 6028TIP3    H239720   1.744   1.075   8.751  0.1778 -1.0574  0.2719
 6029TIP3   OH239721   5.995   4.512   8.746 -0.1218 -0.4064  0.3552
 6029TIP3    H139722   5.925   4.512   8.812  0.2298 -0.7506  0.7388
 6029TIP3    H239723   6.039   4.596   8.756  0.0864 -0.5581  0.7362
 6030TIP3   OH239724   1.482   3.644   2.919  0.7025  0.0955  0.7859
 6030TIP3    H139725   1.562   3.686   2.951  0.1488  1.2498  0.7164
 6030TIP3    H239726   1.508   3.602   2.837  0.5570  3.4460 -1.1703
 6031TIP3   OH239727   1.997   3.395   2.731 -0.3469  0.0816 -0.2665
 6031TIP3    H139728   1.909   3.397   2.768 -0.5144  1.2929 -0.6905
 6031TIP3    H239729   2.029   3.485   2.739  0.8994 -0.3595 -0.0150
 6032TIP3   OH239730   2.226   1.184   8.247 -0.3303  0.3500 -0.0478
 6032TIP3    H139731   2.240   1.153   8.157  0.7721 -0.0634  0.2463
 6032TIP3    H239732   2.135   1.213   8.249 -0.0818  1.2889 -1.5636
 6033TIP3   OH239733   0.246   2.311   0.393  0.2265  0.4486 -0.8123
 6033TIP3    H139734   0.255   2.224   0.355  1.7716  0.9446 -1.6578
 6033TIP3    H239735   0.335   2.345   0.398 -0.2764  1.7283  0.1407
 6034TIP3   OH239736   3.269   3.237   8.337  0.0200 -0.5949 -0.4060
 6034TIP3    H139737   3.312   3.194   8.263  0.9715  0.1706 -0.3251
 6034TIP3    H239738   3.176   3.237   8.314  0.4828  1.6299 -2.7426
 6035TIP3   OH239739   6.015   2.981   9.925  0.2980 -0.3651  0.4054
 6035TIP3    H139740   6.024   2.886   9.929 -1.4440 -0.5847 -0.1394
 6035TIP3    H239741   5.926   2.998   9.956 -0.4004  0.8565 -2.0510
 6036TIP3   OH239742   5.525   2.029   0.982 -0.2015 -0.3468 -0.0282
 6036TIP3    H139743   5.454   2.091   0.998  0.0009  0.3377 -1.6227
 6036TIP3    H239744   5.506   1.956   1.040 -1.8518  0.1081  0.0599
 6037TIP3   OH239745   5.918   6.315   8.541 -0.1686 -0.7572 -0.2000
 6037TIP3    H139746   5.951   6.233   8.579  2.6825  0.2952 -0.1150
 6037TIP3    H239747   5.906   6.295   8.448  1.8219 -0.9987 -0.4557
 6038TIP3   OH239748   6.136   5.945   1.144  0.3919  0.2873 -0.2954
 6038TIP3    H139749   6.161   5.958   1.236  0.7747  1.5845 -0.5532
 6038TIP3    H239750   6.099   5.857   1.141 -0.6049  0.5952  1.3260
 6039TIP3   OH239751   1.942   0.447   8.426 -0.2454  0.0169 -0.1853
 6039TIP3    H139752   1.978   0.510   8.488 -1.3528 -0.8094  1.3616
 6039TIP3    H239753   1.847   0.451   8.439 -0.6321  0.5771 -2.6095
 6040TIP3   OH239754   4.801   1.986   0.290  0.2309 -0.1811 -0.2167
 6040TIP3    H139755   4.806   1.927   0.216  1.3798  1.4845 -1.5392
 6040TIP3    H239756   4.891   2.017   0.303  0.0514 -0.3398  1.8175
 6041TIP3   OH239757   4.306   1.466   3.183  0.5614 -0.3311  0.6188
 6041TIP3    H139758   4.384   1.478   3.238 -0.9303  0.3998  2.6870
 6041TIP3    H239759   4.251   1.541   3.204 -0.1983 -0.1239 -1.7937
 6042TIP3   OH239760   2.070   3.023   2.916  0.1812  0.0402 -0.1865
 6042TIP3    H139761   2.067   3.016   2.820 -0.2221 -0.9826 -0.1188
 6042TIP3    H239762   2.158   3.053   2.936 -0.0961  1.4211 -0.9313
 6043TIP3   OH239763   2.741   4.672   0.946 -0.1417 -0.0600 -0.0205
 6043TIP3    H139764   2.737   4.761   0.981  1.5554 -0.6037  1.7376
 6043TIP3    H239765   2.834   4.657   0.931 -0.4537 -1.3694 -0.8046
 6044TIP3   OH239766   0.144   5.602   0.751  0.4423  0.0418  0.7530
 6044TIP3    H139767   0.106   5.643   0.828 -0.4321 -0.3081  0.5203
 6044TIP3    H239768   0.078   5.613   0.682  2.1952  2.6246 -0.7142
 6045TIP3   OH239769   2.231   1.216   7.718  0.4601  0.2258  0.4314
 6045TIP3    H139770   2.307   1.216   7.661 -0.1665 -2.0799 -0.5264
 6045TIP3    H239771   2.177   1.143   7.686 -2.5679  2.2391  0.5192
 6046TIP3   OH239772   0.862   2.969   8.548 -0.8066  0.0197  0.2002
 6046TIP3    H139773   0.772   2.979   8.579 -0.4973 -1.0716  1.5713
 6046TIP3    H239774   0.887   3.057   8.519 -1.7043  0.7705  1.5512
 6047TIP3   OH239775   3.587   1.097   9.546  0.3505 -0.0611 -0.5467
 6047TIP3    H139776   3.658   1.129   9.601  1.0418 -3.1848  0.5833
 6047TIP3    H239777   3.626   1.026   9.494 -1.8594 -2.0772  0.3138
 6048TIP3   OH239778   1.886   4.722   9.667  0.0185 -0.1744 -0.2279
 6048TIP3    H139779   1.938   4.730   9.587 -1.8949  1.4357 -1.4265
 6048TIP3    H239780   1.906   4.801   9.717 -0.9469  0.2959 -0.5468
 6049TIP3   OH239781   5.780   2.909  10.030 -0.4665  0.4107  0.9816
 6049TIP3    H139782   5.698   2.904  10.078  0.3459  1.2603  2.5369
 6049TIP3    H239783   5.813   2.819  10.030  0.4198  0.6421  3.7816
 6050TIP3   OH239784   4.427   5.395   1.915  0.4050  0.4931 -0.2748
 6050TIP3    H139785   4.467   5.402   2.001  0.2780  0.8877 -0.2453
 6050TIP3    H239786   4.481   5.451   1.859  2.5537 -2.2803 -1.2317
 6051TIP3   OH239787   3.384   3.784   0.665 -0.4287  0.1326 -0.5859
 6051TIP3    H139788   3.331   3.806   0.588 -1.6112  1.5170  0.5809
 6051TIP3    H239789   3.323   3.740   0.724  0.2056  0.0426  0.0135
 6052TIP3   OH239790   3.720   0.251   7.991 -0.1538  0.4253  0.4828
 6052TIP3    H139791   3.723   0.332   7.939  0.3100  0.1422  0.0596
 6052TIP3    H239792   3.626   0.235   8.003 -0.2548  0.9029  0.3794
 6053TIP3   OH239793   2.423   5.379   2.439 -0.2897  0.1769 -0.3574
 6053TIP3    H139794   2.371   5.298   2.440  2.2722 -1.5942  0.0581
 6053TIP3    H239795   2.430   5.402   2.346  2.3747 -2.6243 -1.0367
 6054TIP3   OH239796   2.145   5.216   1.120 -0.8614  0.1170  0.3248
 6054TIP3    H139797   2.163   5.256   1.035 -0.3364 -0.2545  0.2565
 6054TIP3    H239798   2.222   5.236   1.173 -1.1130  0.2054  0.6674
 6055TIP3   OH239799   5.732   4.476   2.863 -0.3456 -0.5076  0.2948
 6055TIP3    H139800   5.672   4.405   2.888 -1.0300  0.3365  1.1281
 6055TIP3    H239801   5.785   4.491   2.940 -2.7343  2.3876  1.5819
 6056TIP3   OH239802   4.409   3.650   2.061  0.0547  0.2685 -0.4913
 6056TIP3    H139803   4.417   3.745   2.057  0.1012  0.2499 -0.8174
 6056TIP3    H239804   4.457   3.618   1.985  0.7515 -0.0574  0.0655
 6057TIP3   OH239805   0.170   3.612   0.481  0.3193 -0.0406 -0.4206
 6057TIP3    H139806   0.242   3.654   0.528  0.2009 -0.9520  0.6131
 6057TIP3    H239807   0.211   3.577   0.402  0.9324 -0.2131 -0.0297
 6058TIP3   OH239808   1.311   6.334   8.403  0.2532  0.4221  0.1665
 6058TIP3    H139809   1.400   6.352   8.432  0.2904  2.3165 -0.9486
 6058TIP3    H239810   1.320   6.303   8.313 -0.2362  1.3920 -0.2320
 6059TIP3   OH239811   4.648   4.442   3.067  0.3640  0.7906  0.6728
 6059TIP3    H139812   4.584   4.510   3.043 -0.2507 -0.4985 -1.6901
 6059TIP3    H239813   4.731   4.472   3.030  0.5019  1.1071  1.2326
 6060TIP3   OH239814   5.502   0.879   2.444  0.1566  0.0039 -0.2146
 6060TIP3    H139815   5.482   0.951   2.504 -0.7671 -0.5015  0.1168
 6060TIP3    H239816   5.572   0.913   2.388 -0.4179  1.2397 -0.2278
 6061TIP3   OH239817   1.724   4.091   3.544 -1.0162  0.0981  0.0189
 6061TIP3    H139818   1.786   4.151   3.503 -0.9030 -0.4698 -0.6518
 6061TIP3    H239819   1.779   4.031   3.594 -1.0561 -0.1269 -0.2080
 6062TIP3   OH239820   1.045   3.593   9.366 -0.3619 -0.3493  0.5611
 6062TIP3    H139821   1.104   3.641   9.424 -0.3966 -2.2077  2.2403
 6062TIP3    H239822   1.034   3.650   9.290  4.5683 -0.3158 -0.5150
 6063TIP3   OH239823   5.035   5.087   3.456  0.1500  0.1394 -0.2651
 6063TIP3    H139824   4.975   5.081   3.530 -0.0345  0.4342 -0.3895
 6063TIP3    H239825   5.112   5.036   3.482  0.1239  0.3225  0.1657
 6064TIP3   OH239826   1.295   3.107   1.691 -0.1177 -0.2371 -0.2088
 6064TIP3    H139827   1.291   3.028   1.638  0.8084  0.2882 -1.1111
 6064TIP3    H239828   1.348   3.167   1.639  0.3709  0.4820  1.0813
 6065TIP3   OH239829   4.845   4.953   9.440  0.3889  0.1127  0.1312
 6065TIP3    H139830   4.756   4.979   9.466 -0.1554  0.9601 -2.3239
 6065TIP3    H239831   4.900   5.026   9.468  0.2386 -0.1198  1.0733
 6066TIP3   OH239832   3.462   4.349   8.680 -0.0240 -0.0934  0.1267
 6066TIP3    H139833   3.519   4.405   8.626  0.4817 -0.0102  0.7322
 6066TIP3    H239834   3.479   4.378   8.770 -0.2892 -0.7416  0.3879
 6067TIP3   OH239835   2.269   6.246   0.759 -0.3167 -0.1857  0.0514
 6067TIP3    H139836   2.229   6.308   0.698  1.2431  0.8216  0.0008
 6067TIP3    H239837   2.263   6.289   0.844  0.6420 -0.0134  0.0395
 6068TIP3   OH239838   3.609   0.901   1.810 -0.1460  0.0160  0.0417
 6068TIP3    H139839   3.656   0.819   1.795  1.9827  1.0931  0.4727
 6068TIP3    H239840   3.527   0.873   1.851  0.2954 -1.9259 -0.2619
 6069TIP3   OH239841   1.023   3.851   1.182  0.3365 -0.0489 -0.6982
 6069TIP3    H139842   0.989   3.829   1.095  0.0443  2.1528 -1.1794
 6069TIP3    H239843   1.115   3.872   1.166  0.8458 -1.6635 -0.0977
 6070TIP3   OH239844   3.101   5.455   1.390  0.2120  0.3470  0.4510
 6070TIP3    H139845   3.072   5.509   1.316  0.3201 -0.4078 -0.1513
 6070TIP3    H239846   3.165   5.395   1.352 -1.2619 -1.4711  0.7029
 6071TIP3   OH239847   4.550   5.990   8.846  0.5099 -0.6702  0.2792
 6071TIP3    H139848   4.536   6.006   8.939  1.6302  0.6080  0.2734
 6071TIP3    H239849   4.629   5.937   8.843  0.7076 -0.3679  0.0575
 6072TIP3   OH239850   4.564   4.637   0.163 -0.3390 -0.3715  0.3016
 6072TIP3    H139851   4.470   4.628   0.181 -0.2123 -0.2819  1.0743
 6072TIP3    H239852   4.576   4.601   0.075 -1.2741  0.7050 -0.2839
 6073TIP3   OH239853   3.929   5.263   0.948 -0.2206 -0.1530 -0.1011
 6073TIP3    H139854   3.985   5.335   0.917 -1.8117  0.5430 -1.5166
 6073TIP3    H239855   3.986   5.211   1.004  1.6176  0.9586 -0.8398
 6074TIP3   OH239856   2.657   2.852   0.253 -0.3615 -0.4278 -0.1230
 6074TIP3    H139857   2.627   2.923   0.310 -1.7199 -0.6536 -0.5114
 6074TIP3    H239858   2.710   2.796   0.310 -0.6207  0.0360  0.5890
 6075TIP3   OH239859   0.346   2.931   9.896 -0.4583  0.8453  0.2594
 6075TIP3    H139860   0.270   2.919   9.953 -1.3889  0.3640 -1.0555
 6075TIP3    H239861   0.419   2.894   9.946 -0.9339  1.8967  1.8196
 6076TIP3   OH239862   5.400   5.333   2.947  0.3711  0.9468 -0.1222
 6076TIP3    H139863   5.493   5.332   2.967  0.2484  1.7457  0.5286
 6076TIP3    H239864   5.370   5.419   2.978 -0.2180  1.4494 -1.9344
 6077TIP3   OH239865   5.286   5.516   9.461 -0.2633  0.8241  0.0536
 6077TIP3    H139866   5.273   5.421   9.463 -0.4041  0.8464  0.5085
 6077TIP3    H239867   5.379   5.528   9.479  0.1793  0.7107 -1.9237
 6078TIP3   OH239868   6.042   0.863   9.935  0.8583  0.0575 -0.1126
 6078TIP3    H139869   6.021   0.818   9.852  0.1901 -0.8451  0.5232
 6078TIP3    H239870   6.075   0.948   9.908  2.0723 -0.7711 -1.3635
 6079TIP3   OH239871   5.911   1.377   1.984 -0.0022  0.9327  0.2116
 6079TIP3    H139872   5.981   1.442   1.978  1.5097 -0.5846  0.6540
 6079TIP3    H239873   5.835   1.420   1.944  1.3132  2.4209 -0.8061
 6080TIP3   OH239874   1.739   2.434   9.122  0.5344  0.0286  1.0290
 6080TIP3    H139875   1.783   2.353   9.149 -1.1883 -1.2476  0.1442
 6080TIP3    H239876   1.663   2.441   9.180 -0.8346 -0.4866 -0.6210
 6081TIP3   OH239877   4.788   3.778   0.084  0.4730  0.0381 -0.1783
 6081TIP3    H139878   4.796   3.808   0.174 -1.3833  0.1715 -0.0120
 6081TIP3    H239879   4.863   3.816   0.039  2.5796 -1.6683  1.6762
 6082TIP3   OH239880   2.160   0.207   0.527 -0.1671 -0.2794  0.3705
 6082TIP3    H139881   2.072   0.228   0.497 -0.2019  0.0360  0.6847
 6082TIP3    H239882   2.150   0.182   0.619  0.1356  0.3106  0.5726
 6083TIP3   OH239883   0.468   3.274   9.217 -1.0388  0.5680 -0.0533
 6083TIP3    H139884   0.416   3.194   9.226 -0.5140  0.4103  1.8978
 6083TIP3    H239885   0.416   3.341   9.261 -0.3443  0.7728  0.4559
 6084TIP3   OH239886   1.031   5.539   1.683 -0.2725  0.0265 -0.0980
 6084TIP3    H139887   1.121   5.509   1.670  0.1988  1.5879 -0.6370
 6084TIP3    H239888   1.040   5.618   1.737 -1.4403 -0.5397  0.9863
 6085TIP3   OH239889   0.817   4.123   1.532  0.5501  0.0319  0.0804
 6085TIP3    H139890   0.829   4.077   1.449 -2.4208 -0.9075  0.0554
 6085TIP3    H239891   0.725   4.149   1.532  0.6363  0.6589  2.7724
 6086TIP3   OH239892   2.244   5.023   0.169 -0.3580  0.0071  0.0179
 6086TIP3    H139893   2.197   5.032   0.252 -1.7484  0.0724 -0.7477
 6086TIP3    H239894   2.182   4.980   0.111  0.6759 -0.2335 -0.9385
 6087TIP3   OH239895   2.005   5.289   8.966  0.0849  0.0656  0.3300
 6087TIP3    H139896   1.938   5.221   8.965 -1.0064  0.9849  2.9348
 6087TIP3    H239897   2.071   5.258   9.028  2.4771 -1.0272 -2.5036
 6088TIP3   OH239898   4.458   4.575   1.405  0.4395 -0.0483  0.5466
 6088TIP3    H139899   4.382   4.526   1.436  0.2671  0.1246  0.4002
 6088TIP3    H239900   4.421   4.654   1.364  0.6581 -0.2812 -0.1165
 6089TIP3   OH239901   5.707   0.850   1.197 -0.1627  0.0846  0.0840
 6089TIP3    H139902   5.802   0.848   1.207  0.0033  1.5022 -0.8323
 6089TIP3    H239903   5.693   0.856   1.103 -1.1884 -0.7166  0.1702
 6090TIP3   OH239904   0.254   2.724   9.730 -0.2886 -0.5176  0.1308
 6090TIP3    H139905   0.290   2.764   9.809 -0.2199 -0.9426  0.3171
 6090TIP3    H239906   0.331   2.705   9.675 -0.4932  2.6684 -1.4642
 6091TIP3   OH239907   1.334   4.585   1.590 -0.1175  0.0367 -0.1679
 6091TIP3    H139908   1.408   4.645   1.601 -0.4428  0.6570 -1.1925
 6091TIP3    H239909   1.318   4.551   1.678  2.1770 -1.0964 -0.1058
 6092TIP3   OH239910   5.508   5.700   2.101 -0.6097  0.2176  0.4786
 6092TIP3    H139911   5.428   5.727   2.146 -1.2090 -1.5435  0.5523
 6092TIP3    H239912   5.479   5.672   2.014 -0.0268 -0.0488  0.3643
 6093TIP3   OH239913   6.379   5.442   9.748  0.4925 -0.4389  0.3057
 6093TIP3    H139914   6.435   5.513   9.779  1.9767 -1.6438  0.5011
 6093TIP3    H239915   6.329   5.415   9.825  0.8629 -0.4405  0.5475
 6094TIP3   OH239916   6.218   1.610   7.805  0.0347  0.0842 -0.0829
 6094TIP3    H139917   6.240   1.645   7.719 -0.0136 -0.1225 -0.1792
 6094TIP3    H239918   6.145   1.665   7.835 -1.8021 -1.5180 -1.3390
 6095TIP3   OH239919   1.919   0.231   0.127 -0.1056  0.1372 -0.1914
 6095TIP3    H139920   1.871   0.220   0.046 -1.5137  0.5491  0.5642
 6095TIP3    H239921   1.990   0.166   0.122 -0.1834  0.1388 -1.7084
 6096TIP3   OH239922   1.711   3.331   0.572  0.3665 -0.0870 -0.4300
 6096TIP3    H139923   1.712   3.426   0.584  0.8752 -0.3673  2.5974
 6096TIP3    H239924   1.802   3.304   0.580 -0.0089 -1.0029  1.5362
 6097TIP3   OH239925   4.636   5.271   1.143 -0.2584  0.1263 -0.4145
 6097TIP3    H139926   4.597   5.201   1.091  0.4183 -0.4124 -0.2144
 6097TIP3    H239927   4.720   5.236   1.172 -0.7915  0.2444  1.4039
 6098TIP3   OH239928   2.530   1.390   2.030 -0.2828  0.5662  0.0880
 6098TIP3    H139929   2.560   1.431   2.111 -0.3742  0.3454  0.2360
 6098TIP3    H239930   2.609   1.353   1.990 -0.6469 -2.5633  1.9033
 6099TIP3   OH239931   2.216   1.989   1.339 -0.2940 -0.7492 -0.4024
 6099TIP3    H139932   2.251   2.053   1.400  1.6090 -2.8722  0.8975
 6099TIP3    H239933   2.245   2.020   1.253 -1.2493  1.1953 -0.0722
 6100TIP3   OH239934   2.339   3.277   0.445  0.0837 -0.5483 -0.0480
 6100TIP3    H139935   2.411   3.320   0.399 -0.4104 -0.0098 -0.3374
 6100TIP3    H239936   2.290   3.350   0.485 -1.2155 -0.7580 -1.1955
 6101TIP3   OH239937   4.793   5.284   3.257 -0.2798  0.1173  0.0160
 6101TIP3    H139938   4.772   5.195   3.284  0.0826 -0.0696 -0.2959
 6101TIP3    H239939   4.807   5.277   3.162  0.4029  0.3725  0.0942
 6102TIP3   OH239940   4.225   3.941   1.928 -0.1919  0.4096  0.0835
 6102TIP3    H139941   4.196   4.029   1.903  0.3879  0.2551 -1.2263
 6102TIP3    H239942   4.283   3.955   2.002  0.2708  1.1888 -0.4175
 6103TIP3   OH239943   3.025   2.834   9.722  1.0121  0.0790  0.8009
 6103TIP3    H139944   2.938   2.845   9.685  0.2487 -1.7688  1.9079
 6103TIP3    H239945   3.084   2.867   9.654 -0.5113  0.8022 -0.2243
 6104TIP3   OH239946   2.989   0.637   7.329 -0.1937 -0.7150  0.0588
 6104TIP3    H139947   2.972   0.544   7.312  0.3986 -0.8494  0.1882
 6104TIP3    H239948   3.022   0.640   7.418 -0.5687 -0.3299  0.1888
 6105TIP3   OH239949   1.683   1.482   1.726  0.2128 -0.4188 -0.5038
 6105TIP3    H139950   1.771   1.448   1.743  0.9220  1.5704  0.1030
 6105TIP3    H239951   1.648   1.503   1.812 -0.9984 -1.4093 -0.7154
 6106TIP3   OH239952   4.313   1.476   1.336 -0.4304  0.0606 -0.2291
 6106TIP3    H139953   4.297   1.562   1.376  1.7347  1.7090 -2.6115
 6106TIP3    H239954   4.374   1.433   1.396 -2.4388 -0.4221  1.6015
 6107TIP3   OH239955   3.310   2.458   2.723 -0.3328 -0.0218  0.8411
 6107TIP3    H139956   3.352   2.448   2.808 -2.3047  1.6613  2.0856
 6107TIP3    H239957   3.256   2.380   2.713 -0.2702 -0.1162  1.2396
 6108TIP3   OH239958   2.252   4.737   0.879  0.3187 -0.0831 -0.4025
 6108TIP3    H139959   2.242   4.787   0.960 -2.3253 -1.2504  0.1003
 6108TIP3    H239960   2.287   4.800   0.816 -1.9254  2.1846  0.4507
 6109TIP3   OH239961   1.033   3.168   1.735 -0.1751  0.0929  0.1256
 6109TIP3    H139962   1.126   3.157   1.715 -0.4826 -1.3236 -0.6172
 6109TIP3    H239963   1.020   3.263   1.738  0.8227  0.3436 -2.0200
 6110TIP3   OH239964   1.756   4.230   0.249  0.0812 -0.5301  0.4592
 6110TIP3    H139965   1.817   4.304   0.259  0.7011 -0.8364 -0.8465
 6110TIP3    H239966   1.670   4.267   0.270  0.5006  0.3296  0.7163
 6111TIP3   OH239967   3.158   2.973   1.888 -0.2613  0.1335  0.5294
 6111TIP3    H139968   3.198   2.968   1.801 -1.1414  0.5342  0.0814
 6111TIP3    H239969   3.225   3.011   1.944  0.5360 -0.7210  0.1684
 6112TIP3   OH239970   4.028   1.543   0.531  0.5673 -0.2697  0.1985
 6112TIP3    H139971   4.050   1.451   0.548  0.0607 -0.7401 -1.5110
 6112TIP3    H239972   3.944   1.556   0.575  1.8681  0.2110  2.7637
 6113TIP3   OH239973   0.965   1.692   1.286  0.4527 -0.2320 -0.1231
 6113TIP3    H139974   0.940   1.626   1.221 -0.3219 -0.0884  0.0161
 6113TIP3    H239975   0.884   1.742   1.301  0.7429  0.0276  0.6089
 6114TIP3   OH239976   1.777   4.279   0.756  0.4314 -0.5066  0.0466
 6114TIP3    H139977   1.787   4.186   0.737  1.7664 -0.2594 -0.5993
 6114TIP3    H239978   1.865   4.316   0.745  0.1242  0.6721  1.2238
 6115TIP3   OH239979   6.362   5.518  10.006 -0.0788  0.3377 -0.0502
 6115TIP3    H139980   6.396   5.594   9.958  3.4292 -0.3690  1.0838
 6115TIP3    H239981   6.361   5.547  10.097 -1.2077 -0.2135  0.1321
 6116TIP3   OH239982   1.919   2.044   0.195  0.1496 -0.7651  0.1018
 6116TIP3    H139983   1.841   2.087   0.230 -0.6508 -1.5056 -0.7172
 6116TIP3    H239984   1.992   2.096   0.227 -0.6354 -0.4762  1.5111
 6117TIP3   OH239985   5.189   2.580   1.289 -0.0879  0.0442  0.5214
 6117TIP3    H139986   5.283   2.590   1.271 -0.2326  0.3699 -0.0664
 6117TIP3    H239987   5.181   2.493   1.328  0.5647  0.3237  1.3108
 6118TIP3   OH239988   2.981   1.232   8.374 -0.1888  0.2424  0.3872
 6118TIP3    H139989   3.010   1.224   8.283 -2.1227 -1.1120 -0.1631
 6118TIP3    H239990   2.926   1.310   8.375 -1.8185 -0.8323 -0.1497
 6119TIP3   OH239991   3.355   4.616   2.334  0.3438 -0.2537  0.4501
 6119TIP3    H139992   3.425   4.552   2.332  0.8620  0.2894  0.8123
 6119TIP3    H239993   3.336   4.633   2.241  1.5994  0.5565  0.3104
 6120TIP3   OH239994   0.092   1.836   9.525  0.0127  0.6155  0.1813
 6120TIP3    H139995   0.048   1.920   9.514 -3.2105 -0.9070  0.3653
 6120TIP3    H239996   0.040   1.789   9.590  1.0526 -1.9064 -0.6643
 6121TIP3   OH239997   3.706   5.124   3.018 -0.2983  0.3662  0.4250
 6121TIP3    H139998   3.657   5.072   2.956 -0.5068  2.9752 -1.7908
 6121TIP3    H239999   3.748   5.060   3.076  0.7146 -2.3098 -2.9569
 6122TIP3   OH240000   2.394   5.250   1.264  0.1378  0.7797 -0.0406
 6122TIP3    H140001   2.418   5.217   1.351 -0.8737  0.2626  0.0572
 6122TIP3    H240002   2.466   5.222   1.207 -0.2909 -0.9234  0.2005
 6123TIP3   OH240003   0.924   2.025   8.287 -0.3630 -0.5453  0.2031
 6123TIP3    H140004   0.836   1.994   8.306 -0.9293  1.3382  0.8861
 6123TIP3    H240005   0.933   2.018   8.192 -1.6051  0.0781  0.0267
 6124TIP3   OH240006   5.831   6.189   9.575  0.0351  0.6069  0.3550
 6124TIP3    H140007   5.863   6.220   9.660 -1.2554 -1.1011  1.5319
 6124TIP3    H240008   5.764   6.252   9.551  0.2127  0.9502  0.7352
 6125TIP3   OH240009   0.542   4.210   1.577 -0.3829  0.2261  0.0251
 6125TIP3    H140010   0.552   4.234   1.669 -2.2036 -0.6829  0.5030
 6125TIP3    H240011   0.487   4.279   1.540  0.4889  0.6832 -0.4448
 6126TIP3   OH240012   6.361   0.210   0.978 -0.4640 -0.5940 -0.4837
 6126TIP3    H140013   6.267   0.198   0.993 -0.8704  0.5450 -1.8557
 6126TIP3    H240014   6.366   0.282   0.915  1.3586 -0.3353 -0.1003
 6127TIP3   OH240015   3.291   0.044   8.847 -0.4114 -0.2885 -0.3662
 6127TIP3    H140016   3.284   0.093   8.928 -1.0542 -0.7503 -0.1354
 6127TIP3    H240017   3.367  -0.013   8.859 -2.3215 -2.7273  1.2495
 6128TIP3   OH240018   3.080   4.777   3.123 -0.4639  0.0121 -0.5221
 6128TIP3    H140019   3.049   4.854   3.170  1.5766 -0.2559  1.4755
 6128TIP3    H240020   3.175   4.790   3.114 -0.2535 -1.6701 -1.2949
 6129TIP3   OH240021   4.774   2.421   0.830  0.0967  0.1759 -0.2259
 6129TIP3    H140022   4.736   2.492   0.777  0.5943  0.8949  0.3536
 6129TIP3    H240023   4.868   2.426   0.811  0.0200 -1.0473 -1.0134
 6130TIP3   OH240024   5.160   5.622   0.821  0.4750  0.0573 -0.6685
 6130TIP3    H140025   5.111   5.574   0.754 -0.1843  0.7524 -0.6967
 6130TIP3    H240026   5.235   5.659   0.774  0.1081  0.4008 -0.9886
 6131TIP3   OH240027   6.269   3.509   8.912  0.1682 -0.0986  0.0149
 6131TIP3    H140028   6.252   3.603   8.913 -1.0025 -0.2452 -1.4684
 6131TIP3    H240029   6.345   3.500   8.853  0.9017 -0.0278  0.9261
 6132TIP3   OH240030   3.873   6.303   1.895 -0.3659  0.1869  0.3758
 6132TIP3    H140031   3.891   6.331   1.805 -1.0931  1.7632  0.6867
 6132TIP3    H240032   3.819   6.224   1.885 -1.0816  0.7757 -0.5933
 6133TIP3   OH240033   5.779   6.317   8.282  0.4921  0.2241 -0.6458
 6133TIP3    H140034   5.712   6.249   8.290  0.7850  0.1134  1.3699
 6133TIP3    H240035   5.736   6.398   8.309  1.1408  0.1360  0.7574
 6134TIP3   OH240036   6.405   0.395   0.389 -0.4494  0.3976 -0.3678
 6134TIP3    H140037   6.468   0.391   0.460 -0.6118  3.9869  0.1437
 6134TIP3    H240038   6.322   0.368   0.429  0.2223 -2.1754 -0.5040
 6135TIP3   OH240039   1.626   3.192   8.383 -0.1503 -0.0463 -0.8216
 6135TIP3    H140040   1.566   3.122   8.357 -3.4305  2.4844 -0.7902
 6135TIP3    H240041   1.673   3.215   8.303  0.6324 -1.8813 -0.9360
 6136TIP3   OH240042   0.981   0.469   8.607  0.0445 -0.1232  0.1419
 6136TIP3    H140043   1.032   0.425   8.676 -2.5767  0.2834  2.5276
 6136TIP3    H240044   0.949   0.549   8.649 -1.9808 -0.0576 -1.4343
 6137TIP3   OH240045   3.371   2.247   0.709 -0.2184 -0.1133 -0.4188
 6137TIP3    H140046   3.346   2.253   0.801 -1.9884  1.7677 -0.9571
 6137TIP3    H240047   3.465   2.227   0.711 -0.5889 -2.1845  1.7408
 6138TIP3   OH240048   2.983   5.810   1.470 -0.2660  0.2936 -0.1338
 6138TIP3    H140049   2.918   5.741   1.482 -0.4566  0.7906  2.1048
 6138TIP3    H240050   2.971   5.838   1.379 -1.7908 -1.0001 -0.3847
 6139TIP3   OH240051   0.614   2.837   1.996 -0.3184  0.6913  0.3346
 6139TIP3    H140052   0.689   2.874   2.043  0.0034  1.0538 -0.4628
 6139TIP3    H240053   0.548   2.906   1.997 -1.2001 -0.0983  2.2450
 6140TIP3   OH240054   1.937   6.312   1.121  0.0470 -0.0905 -0.4454
 6140TIP3    H140055   1.938   6.407   1.107  0.5332  0.0916  0.7240
 6140TIP3    H240056   1.849   6.285   1.094 -0.1049  0.6915 -0.7650
 6141TIP3   OH240057   4.111   2.929   0.734  0.5137 -0.0400  0.3230
 6141TIP3    H140058   4.017   2.948   0.734  0.7638  1.4931 -1.5134
 6141TIP3    H240059   4.150   3.004   0.777  1.0045  0.2189 -0.5465
 6142TIP3   OH240060   0.144   4.725   0.090  0.6777 -0.1235  0.2590
 6142TIP3    H140061   0.220   4.717   0.033  0.8759  0.8357  0.3646
 6142TIP3    H240062   0.082   4.661   0.057  1.9639 -1.7797  0.8929
 6143TIP3   OH240063   5.740   0.646   7.857  0.6108 -1.6001 -0.1793
 6143TIP3    H140064   5.646   0.657   7.870  0.6151  0.1759 -1.2720
 6143TIP3    H240065   5.748   0.577   7.792  0.0540 -1.6326 -0.2123
 6144TIP3   OH240066   5.072   0.840   8.578 -0.0462  0.4670  0.0492
 6144TIP3    H140067   5.086   0.763   8.523  0.5629  0.4024  0.2960
 6144TIP3    H240068   5.103   0.814   8.665 -1.8810  0.2255  0.6874
 6145TIP3   OH240069   5.786   0.200   9.147 -0.0594 -0.0481 -0.3010
 6145TIP3    H140070   5.730   0.274   9.166  0.8418  0.3188  1.1153
 6145TIP3    H240071   5.755   0.130   9.205 -0.5268 -0.6027 -1.1972
 6146TIP3   OH240072   5.834   3.600   3.325 -0.5457  0.0535  0.2387
 6146TIP3    H140073   5.892   3.659   3.276  0.0277  0.6314  1.5415
 6146TIP3    H240074   5.844   3.628   3.416 -1.1000 -1.3781  0.7672
 6147TIP3   OH240075   0.509   3.883   3.632 -0.2330  0.1315  0.3752
 6147TIP3    H140076   0.594   3.908   3.597 -0.1143  1.5923  1.6326
 6147TIP3    H240077   0.448   3.901   3.560  0.4138 -0.2352 -0.2813
 6148TIP3   OH240078   0.847   2.494   8.944  0.5676 -0.1362 -0.1461
 6148TIP3    H140079   0.890   2.412   8.919 -0.2778 -0.9147  0.8813
 6148TIP3    H240080   0.836   2.541   8.861 -0.4789 -1.8195 -1.0244
 6149TIP3   OH240081   1.515   1.673   9.945  0.4482 -0.0418 -0.2999
 6149TIP3    H140082   1.506   1.757   9.900 -1.7055  0.2164  0.5030
 6149TIP3    H240083   1.534   1.611   9.875 -1.5236  0.5609 -1.4605
 6150TIP3   OH240084   2.623   1.605   8.388  0.6736 -0.0599  0.6267
 6150TIP3    H140085   2.714   1.579   8.400  0.4089 -1.1171  0.4539
 6150TIP3    H240086   2.594   1.558   8.310 -0.8092 -2.0218  2.2164
 6151TIP3   OH240087   2.245   5.742   0.590 -0.4303 -0.4324  0.3793
 6151TIP3    H140088   2.293   5.718   0.670 -0.0720 -0.8498  0.0424
 6151TIP3    H240089   2.248   5.838   0.589 -0.1901 -0.4332  0.7214
 6152TIP3   OH240090   4.880   4.283   1.363 -0.3402 -0.4111 -0.4185
 6152TIP3    H140091   4.924   4.357   1.320  0.3911 -0.5585  0.0506
 6152TIP3    H240092   4.793   4.315   1.384 -1.7028 -1.0901 -4.2346
 6153TIP3   OH240093   0.477   0.525   2.540  0.3058  0.3469  0.1709
 6153TIP3    H140094   0.573   0.531   2.539  0.3273  0.0140 -0.1921
 6153TIP3    H240095   0.457   0.470   2.615  0.3177  1.5350  1.0795
 6154TIP3   OH240096   5.989   5.220   1.342 -0.0690  0.5871 -0.8152
 6154TIP3    H140097   6.058   5.171   1.387 -1.3740  0.0235  0.6612
 6154TIP3    H240098   6.016   5.221   1.250  2.0181  0.6258 -0.2467
 6155TIP3   OH240099   2.798   3.057   9.589  0.1246 -0.2348 -0.1645
 6155TIP3    H140100   2.852   3.058   9.510 -1.1445 -0.0718 -1.0569
 6155TIP3    H240101   2.754   2.972   9.587 -0.3169 -0.0127  0.0890
 6156TIP3   OH240102   0.255   1.194   0.558  0.8480 -0.3038  0.5378
 6156TIP3    H140103   0.332   1.139   0.569  0.7927 -0.5427 -0.2095
 6156TIP3    H240104   0.284   1.282   0.583  1.9546  0.0095 -1.6301
 6157TIP3   OH240105   3.758   2.869   9.849  0.3696  0.0677 -0.7896
 6157TIP3    H140106   3.687   2.850   9.788 -1.2352  1.0898  0.6809
 6157TIP3    H240107   3.826   2.804   9.827 -1.5445 -1.8655 -1.3534
 6158TIP3   OH240108   5.041   4.086   1.332  0.3963  0.1694  0.4244
 6158TIP3    H140109   5.061   4.109   1.241  0.1695 -0.5537  0.1813
 6158TIP3    H240110   4.991   4.160   1.365 -1.0015 -0.2738 -0.5765
 6159TIP3   OH240111   4.370   4.724   3.473  0.4678 -0.5462  0.3417
 6159TIP3    H140112   4.405   4.730   3.562  0.1563 -0.2893  0.4456
 6159TIP3    H240113   4.446   4.740   3.417  0.8350 -1.4995  0.5425
 6160TIP3   OH240114   1.774   5.598   8.015 -0.3196  0.0064  0.2117
 6160TIP3    H140115   1.841   5.590   8.083 -0.8069  0.1189  0.7212
 6160TIP3    H240116   1.776   5.690   7.990  1.0227 -0.3641 -1.1655
 6161TIP3   OH240117   5.925   2.758   1.601 -0.0552 -0.1399  0.3609
 6161TIP3    H140118   5.864   2.808   1.656  1.7086  1.5068  0.9592
 6161TIP3    H240119   5.900   2.666   1.615 -1.9746  0.4309  1.0322
 6162TIP3   OH240120   1.391   0.387   9.816  0.4452  0.0920  0.1537
 6162TIP3    H140121   1.298   0.387   9.837  0.8387 -1.6476  2.2588
 6162TIP3    H240122   1.404   0.309   9.762  0.7962 -0.0868  0.4901
 6163TIP3   OH240123   6.012   1.880   9.723  0.1688  0.5378 -0.6730
 6163TIP3    H140124   6.017   1.790   9.690  1.0663  0.6719 -0.9551
 6163TIP3    H240125   5.946   1.923   9.668 -0.3484  0.0204 -0.4574
 6164TIP3   OH240126   1.040   1.832   7.857  0.2669  0.3710  0.1090
 6164TIP3    H140127   0.957   1.792   7.832  0.4202  0.7214 -1.0390
 6164TIP3    H240128   1.015   1.908   7.909 -0.1605  0.6472 -0.4794
 6165TIP3   OH240129   3.828   4.863   1.927  0.1013 -0.6549  0.5262
 6165TIP3    H140130   3.921   4.884   1.925 -0.0938  0.2663  0.5125
 6165TIP3    H240131   3.785   4.948   1.938 -0.7966 -0.9232 -0.7285
 6166TIP3   OH240132   2.276   0.560   0.686 -0.3585  1.0890  0.0342
 6166TIP3    H140133   2.285   0.635   0.628  0.0601  0.7613 -0.3400
 6166TIP3    H240134   2.313   0.487   0.636 -1.1094  0.5610  0.2411
 6167TIP3   OH240135   5.562   4.267   9.138  0.2765  0.0058 -0.4807
 6167TIP3    H140136   5.475   4.226   9.144  0.5986 -0.4600  2.7295
 6167TIP3    H240137   5.575   4.282   9.044 -2.1520 -2.3212 -1.3274
 6168TIP3   OH240138   1.325   2.751   0.956  0.7549  0.5779 -0.0191
 6168TIP3    H140139   1.247   2.790   0.918  1.4959  4.1087  1.6321
 6168TIP3    H240140   1.382   2.733   0.882 -0.8439 -0.3560 -1.0860
 6169TIP3   OH240141   1.860   4.546   9.392  0.5299 -0.0230  0.1207
 6169TIP3    H140142   1.767   4.550   9.415  0.3162  1.3392 -0.8613
 6169TIP3    H240143   1.880   4.452   9.390 -0.2535 -0.3033  2.4178
 6170TIP3   OH240144   3.049   4.906   8.850  0.0520  0.0261 -0.3668
 6170TIP3    H140145   2.993   4.959   8.793 -1.5709 -0.1972  0.9763
 6170TIP3    H240146   2.994   4.833   8.877  0.7810  0.1109  1.4574
 6171TIP3   OH240147   3.510   0.307   0.496  0.2828 -0.3587 -0.0041
 6171TIP3    H140148   3.590   0.256   0.502  0.3732 -0.0390  2.1894
 6171TIP3    H240149   3.451   0.253   0.443  1.5626 -1.0704 -0.7540
 6172TIP3   OH240150   2.051   2.237   0.388 -0.5671  0.0597 -0.3358
 6172TIP3    H140151   1.998   2.296   0.441  1.6897  0.9405  1.0609
 6172TIP3    H240152   2.084   2.172   0.450  1.0734  0.3552 -0.8532
 6173TIP3   OH240153   4.862   5.810   8.061  0.1081 -0.2670 -0.0332
 6173TIP3    H140154   4.812   5.854   7.993  0.8356  0.8918  0.1535
 6173TIP3    H240155   4.844   5.860   8.141  2.7296  1.2219 -0.2374
 6174TIP3   OH240156   3.563   3.318   2.406 -0.6821 -0.0489  0.0159
 6174TIP3    H140157   3.605   3.240   2.442  1.5259  1.0705 -0.0035
 6174TIP3    H240158   3.578   3.386   2.471 -2.3942  0.4628 -0.0666
 6175TIP3   OH240159   0.986   4.746   9.870  0.2736  0.5980 -0.2022
 6175TIP3    H140160   1.023   4.718   9.953  0.0642 -2.1116 -0.8919
 6175TIP3    H240161   1.061   4.754   9.811  0.2270 -0.2721 -0.4081
 6176TIP3   OH240162   4.091   1.235   2.335 -0.0353  0.3674 -0.7035
 6176TIP3    H140163   4.077   1.237   2.430  0.7330  2.3632 -0.5794
 6176TIP3    H240164   4.008   1.204   2.299 -0.7478  0.7071  0.5766
 6177TIP3   OH240165   0.102   5.107   2.469 -0.3034 -0.2068 -0.6278
 6177TIP3    H140166   0.071   5.104   2.559 -2.6623 -0.3999 -1.3852
 6177TIP3    H240167   0.197   5.094   2.476 -0.2775  0.8076  1.8605
 6178TIP3   OH240168   5.677   2.758   1.031 -0.1672  0.1870 -0.3202
 6178TIP3    H140169   5.738   2.721   0.968 -0.3130  1.1897 -1.0739
 6178TIP3    H240170   5.656   2.845   0.997 -2.1094 -0.1668 -0.1475
 6179TIP3   OH240171   2.871   6.226   9.758 -0.1506 -0.0901  0.1571
 6179TIP3    H140172   2.839   6.147   9.801 -1.3667  0.6446  0.6458
 6179TIP3    H240173   2.852   6.211   9.665 -0.0253 -0.5186  0.1947
 6180TIP3   OH240174   1.775   5.101   0.746 -0.5569 -0.2564  0.0207
 6180TIP3    H140175   1.684   5.084   0.771 -0.2033 -0.5241  1.2149
 6180TIP3    H240176   1.779   5.195   0.734 -1.2838 -0.3688 -1.3588
 6181TIP3   OH240177   3.360   1.601   2.489  0.0571 -0.4060 -0.3981
 6181TIP3    H140178   3.320   1.516   2.469 -2.3395  0.2382  1.1464
 6181TIP3    H240179   3.296   1.665   2.455  0.9863  0.7503 -0.0257
 6182TIP3   OH240180   0.312   3.078   0.120 -0.2963 -0.6621 -0.9814
 6182TIP3    H140181   0.274   2.993   0.143  1.8502 -1.2873  0.5510
 6182TIP3    H240182   0.284   3.137   0.190  2.1711 -1.3459  0.6581
 6183TIP3   OH240183   5.652   3.069   9.810  0.2991 -0.0245 -0.2470
 6183TIP3    H140184   5.724   3.097   9.865  1.0737 -2.7977  0.2953
 6183TIP3    H240185   5.689   3.000   9.755 -0.9367  1.3066 -2.9580
 6184TIP3   OH240186   6.293   1.326   0.708 -0.1694 -0.2633 -0.0596
 6184TIP3    H140187   6.307   1.359   0.797 -2.2054 -0.6297  0.4688
 6184TIP3    H240188   6.262   1.236   0.721  0.8383 -0.8038 -1.2344
 6185TIP3   OH240189   2.601   3.819   2.445  0.6278  0.6949 -0.7330
 6185TIP3    H140190   2.624   3.892   2.503 -0.6646  1.6888 -1.4011
 6185TIP3    H240191   2.617   3.740   2.496  0.0734  1.5262  0.7798
 6186TIP3   OH240192   5.139   2.971   0.029 -0.2366  0.2352  0.0852
 6186TIP3    H140193   5.152   3.060   0.061 -0.6173  0.9642 -1.6625
 6186TIP3    H240194   5.052   2.946   0.061 -0.3148  0.6604  0.2071
 6187TIP3   OH240195   1.718   6.003   8.626 -0.6436 -0.1166  0.1888
 6187TIP3    H140196   1.669   5.990   8.545 -0.7375  0.9009  0.0771
 6187TIP3    H240197   1.653   5.991   8.695 -0.8407  0.2478  0.0707
 6188TIP3   OH240198   1.224   5.323   8.845 -0.4330 -0.5521 -0.3806
 6188TIP3    H140199   1.149   5.299   8.900 -0.7125 -1.6905 -1.2202
 6188TIP3    H240200   1.235   5.417   8.860 -2.2605 -0.2773 -0.4872
 6189TIP3   OH240201   0.764   0.191   1.950  0.0777  0.3932 -0.1575
 6189TIP3    H140202   0.700   0.261   1.945 -0.3289  0.0561  0.2613
 6189TIP3    H240203   0.807   0.191   1.864 -0.2952  0.7961 -0.3427
 6190TIP3   OH240204   3.531   1.646   0.441 -0.3517  0.4475  0.1333
 6190TIP3    H140205   3.539   1.701   0.363  1.9768 -0.1386 -0.1339
 6190TIP3    H240206   3.440   1.618   0.442 -0.8970  2.0063 -1.2975
 6191TIP3   OH240207   5.887   2.542   0.480 -0.0176  0.4184  0.4051
 6191TIP3    H140208   5.799   2.510   0.457  0.8305 -1.0038 -1.0907
 6191TIP3    H240209   5.914   2.487   0.553  0.2355 -0.2758 -0.1918
 6192TIP3   OH240210   6.270   3.473   3.185  0.8293 -0.3357  0.3479
 6192TIP3    H140211   6.227   3.424   3.116 -1.1810  0.5001  0.9210
 6192TIP3    H240212   6.255   3.565   3.162  1.8368 -0.0256  0.8723
 6193TIP3   OH240213   0.281   6.259   0.000 -0.2541  0.7829 -0.8058
 6193TIP3    H140214   0.303   6.204  -0.075 -1.5055  0.5698 -1.0382
 6193TIP3    H240215   0.242   6.337  -0.039 -2.3223  0.0255 -0.3663
 6194TIP3   OH240216   3.438   0.829   8.769  0.0057  0.0284  0.1904
 6194TIP3    H140217   3.363   0.886   8.785 -0.2790 -0.2305 -0.2040
 6194TIP3    H240218   3.401   0.741   8.765  0.0511  0.0567 -1.7712
 6195TIP3   OH240219   1.167   0.347   9.315  0.7074 -0.1207  0.0346
 6195TIP3    H140220   1.261   0.331   9.326  1.0837  0.6058 -1.8687
 6195TIP3    H240221   1.158   0.381   9.226 -1.7453 -3.0748 -0.9852
 6196TIP3   OH240222   1.395   1.974   1.398  0.3855 -0.1040  0.1146
 6196TIP3    H140223   1.302   1.962   1.378 -0.1333 -0.7613  2.5484
 6196TIP3    H240224   1.399   1.976   1.494  2.5508  2.8154  0.1094
 6197TIP3   OH240225   4.495   1.506   9.091 -0.4485 -0.1649 -0.2733
 6197TIP3    H140226   4.507   1.411   9.094 -0.3077 -0.1233  0.7325
 6197TIP3    H240227   4.554   1.535   9.022 -1.1307 -0.8954 -1.1913
 6198TIP3   OH240228   3.065   4.332   1.945 -0.3426  0.5666  0.2375
 6198TIP3    H140229   3.022   4.387   2.011 -1.1652  0.6510 -0.3562
 6198TIP3    H240230   3.157   4.330   1.973 -0.5551  1.1088  1.0370
 6199TIP3   OH240231   6.030   3.952   8.460  0.3174  0.1884 -0.0602
 6199TIP3    H140232   6.018   4.037   8.417 -0.7946 -0.3752 -0.9360
 6199TIP3    H240233   5.959   3.898   8.425  0.7559 -0.9809  0.7989
 6200TIP3   OH240234   5.959   4.447   9.111 -0.1317  0.6677 -0.0797
 6200TIP3    H140235   6.052   4.428   9.096 -0.2304  0.3534 -0.2894
 6200TIP3    H240236   5.931   4.382   9.174 -0.1860  0.8285  0.0640
 6201TIP3   OH240237   4.567   4.140   0.266 -0.5795  0.7115  0.2516
 6201TIP3    H140238   4.639   4.203   0.274  0.6372 -0.7466  1.3397
 6201TIP3    H240239   4.564   4.096   0.351 -2.6725  0.6126  0.1662
 6202TIP3   OH240240   0.126   2.822   0.076 -0.6251  0.7667 -0.3381
 6202TIP3    H140241   0.120   2.783   0.164  0.3949 -0.9419 -0.9777
 6202TIP3    H240242   0.058   2.779   0.025  2.0431 -2.2170 -1.7092
 6203TIP3   OH240243   5.538   2.734   2.407 -0.0388  0.6816  0.0398
 6203TIP3    H140244   5.545   2.741   2.502 -0.6273 -0.2232  0.1670
 6203TIP3    H240245   5.624   2.703   2.378 -0.6031 -1.5957  0.5888
 6204TIP3   OH240246   5.396   1.533   9.123  0.0668 -0.1158  0.4226
 6204TIP3    H140247   5.416   1.589   9.048 -0.4530 -0.4271  0.0389
 6204TIP3    H240248   5.479   1.493   9.147  0.4419  0.8166  0.7038
 6205TIP3   OH240249   0.990   6.037   8.580  0.0146 -0.2066  0.0556
 6205TIP3    H140250   0.900   6.061   8.601  0.7402  0.4171  3.0158
 6205TIP3    H240251   1.038   6.119   8.583  0.5812 -0.3450 -2.6991
 6206TIP3   OH240252   3.785   1.309   8.965 -0.0820 -0.2482 -0.4306
 6206TIP3    H140253   3.758   1.398   8.986 -0.5744 -0.2161 -1.1767
 6206TIP3    H240254   3.744   1.290   8.881  1.1476 -0.6803 -0.9611
 6207TIP3   OH240255   6.305   2.696   1.456  0.3194  0.6772 -0.1353
 6207TIP3    H140256   6.240   2.657   1.398 -0.2341  1.0662  0.2134
 6207TIP3    H240257   6.307   2.638   1.532  1.4549 -0.1460 -0.7695
 6208TIP3   OH240258   0.753   2.784   8.377  0.5007 -0.2243 -0.3828
 6208TIP3    H140259   0.767   2.858   8.437 -0.3724  0.6046 -1.1625
 6208TIP3    H240260   0.675   2.740   8.412  0.1140  0.1377 -0.7745
 6209TIP3   OH240261   3.107   0.791   8.755 -0.4533 -0.8051 -0.4778
 6209TIP3    H140262   3.152   0.734   8.692  0.4797 -0.2409 -0.3493
 6209TIP3    H240263   3.148   0.770   8.839  0.8856  0.9653 -0.6201
 6210TIP3   OH240264   0.092   5.331   0.673  0.3759 -0.7475  0.4761
 6210TIP3    H140265   0.170   5.373   0.635  0.1734 -0.7766  0.0292
 6210TIP3    H240266   0.097   5.353   0.766 -0.6271  1.7237  0.0101
 6211TIP3   OH240267   1.601   3.842   2.615  0.4877  0.0421  0.3196
 6211TIP3    H140268   1.625   3.923   2.661  0.7721  0.2536 -0.1897
 6211TIP3    H240269   1.539   3.870   2.548 -2.4162 -0.7007  2.5308
 6212TIP3   OH240270   4.198   4.241   2.569  0.4768 -0.3928 -0.0868
 6212TIP3    H140271   4.285   4.211   2.595  0.0511 -0.7969  0.9519
 6212TIP3    H240272   4.196   4.230   2.474  2.1321  1.1898 -0.3633
 6213TIP3   OH240273   1.716   1.393   8.516 -0.0420  0.2488 -0.4680
 6213TIP3    H140274   1.694   1.453   8.444 -0.3036  0.2915 -0.3506
 6213TIP3    H240275   1.770   1.326   8.474 -0.6932 -0.0554 -0.8294
 6214TIP3   OH240276   5.158   5.306   1.628 -0.1585 -0.2806  0.2279
 6214TIP3    H140277   5.147   5.253   1.549 -0.8769 -1.1295  0.8681
 6214TIP3    H240278   5.170   5.395   1.597  1.1145 -0.8258 -0.8876
 6215TIP3   OH240279   1.282   2.256   1.017 -0.0004  0.2233  0.5548
 6215TIP3    H140280   1.361   2.227   1.060  1.0642 -0.0400 -1.4511
 6215TIP3    H240281   1.213   2.200   1.051  1.1351 -1.2592  0.4850
 6216TIP3   OH240282   1.917   3.184   1.548 -0.7341  0.0329 -0.3636
 6216TIP3    H140283   1.941   3.121   1.480 -1.6448 -1.1057  0.3247
 6216TIP3    H240284   1.821   3.180   1.552 -0.6789 -0.4744  1.4421
 6217TIP3   OH240285   3.988   4.533   9.704 -0.1606  1.0067 -0.6776
 6217TIP3    H140286   3.993   4.610   9.648  1.4615  0.9763 -0.6147
 6217TIP3    H240287   4.060   4.543   9.766 -1.0122  0.3060  0.4760
 6218TIP3   OH240288   3.465   1.823   9.857  0.5158  0.1799 -0.1010
 6218TIP3    H140289   3.547   1.859   9.823  1.2391 -1.0816  0.2662
 6218TIP3    H240290   3.399   1.851   9.794  0.9076  2.6546  0.4686
 6219TIP3   OH240291   0.259   5.444   1.143 -0.1096  0.0946 -0.1975
 6219TIP3    H140292   0.197   5.399   1.086  0.1969 -0.2214 -0.2834
 6219TIP3    H240293   0.234   5.537   1.137 -1.0870 -0.1129  0.4048
 6220TIP3   OH240294   0.718   5.674   0.492  0.2770 -0.1672 -0.3776
 6220TIP3    H140295   0.665   5.637   0.563  0.2621 -0.9960 -0.8145
 6220TIP3    H240296   0.695   5.623   0.415  2.9071 -1.7152 -0.2570
 6221TIP3   OH240297   0.078   2.922   2.710 -0.3110  0.0345 -0.2604
 6221TIP3    H140298   0.098   2.879   2.793 -0.9968  0.6423  0.2382
 6221TIP3    H240299  -0.014   2.947   2.718  0.5293  3.3313  0.2970
 6222TIP3   OH240300   6.168   5.146   1.146 -0.4553  0.8372 -0.0686
 6222TIP3    H140301   6.123   5.081   1.091  1.5055  0.5806 -1.4769
 6222TIP3    H240302   6.200   5.211   1.084  0.0925  1.6330  1.0302
 6223TIP3   OH240303   3.645   3.540   9.458  0.0154  0.1499  0.5808
 6223TIP3    H140304   3.554   3.549   9.485 -0.2772  1.5327 -0.7479
 6223TIP3    H240305   3.675   3.630   9.444  0.7834 -0.3667 -1.4616
 6224TIP3   OH240306   4.778   3.153   0.881 -0.6246 -0.5169 -0.0305
 6224TIP3    H140307   4.768   3.242   0.847  2.3026 -0.5860 -1.3578
 6224TIP3    H240308   4.771   3.163   0.976 -1.1229  0.9910 -0.2050
 6225TIP3   OH240309   0.466   2.393   8.419 -0.1710 -0.6759  0.0374
 6225TIP3    H140310   0.453   2.299   8.424 -2.3798 -0.4017  0.4301
 6225TIP3    H240311   0.440   2.417   8.330 -0.6345 -0.3151  0.2651
 6226TIP3   OH240312   3.763   2.167   9.090 -0.1395 -0.1765  0.0143
 6226TIP3    H140313   3.698   2.157   9.020  1.0036 -0.2504 -1.0618
 6226TIP3    H240314   3.738   2.248   9.135 -0.4340  0.2885 -0.9649
 6227TIP3   OH240315   4.494   2.389   8.958 -0.4681  0.3305  0.1887
 6227TIP3    H140316   4.576   2.350   8.926  1.0966  2.2159  1.5985
 6227TIP3    H240317   4.471   2.454   8.892 -1.3927 -0.8233 -0.6636
 6228TIP3   OH240318   3.753   0.741   1.416 -0.2066  0.0400 -0.2739
 6228TIP3    H140319   3.790   0.829   1.424 -0.3561  0.0652  0.1379
 6228TIP3    H240320   3.821   0.691   1.370  1.4708 -0.5682  2.6546
 6229TIP3   OH240321   2.437   4.817   8.455  0.2760  0.6284 -0.2403
 6229TIP3    H140322   2.455   4.893   8.510 -0.4501  1.2252 -0.8208
 6229TIP3    H240323   2.368   4.845   8.395  1.4927  0.2032 -1.9224
 6230TIP3   OH240324   3.387   4.631   1.015 -0.0797 -0.3246  0.3900
 6230TIP3    H140325   3.382   4.544   0.974  0.9176 -0.4598  0.5463
 6230TIP3    H240326   3.437   4.617   1.095  0.6391  0.5059  0.0996
 6231TIP3   OH240327   5.514   1.066   0.557 -0.3058  0.3066  0.1471
 6231TIP3    H140328   5.590   1.055   0.615 -0.3014 -0.5201  0.0046
 6231TIP3    H240329   5.442   1.024   0.605 -0.1740 -0.9203 -0.6908
 6232TIP3   OH240330   3.275   4.522   3.129 -0.2569 -0.1829  0.2170
 6232TIP3    H140331   3.292   4.436   3.168 -0.3434 -1.2876 -1.9845
 6232TIP3    H240332   3.300   4.585   3.196 -0.7084 -1.9222  2.1100
 6233TIP3   OH240333   2.847   4.639   3.046  0.4353 -0.0283  0.0202
 6233TIP3    H140334   2.936   4.662   3.072  0.3651  1.3178 -0.8393
 6233TIP3    H240335   2.815   4.717   3.000 -0.7747 -0.9294 -0.6983
 6234TIP3   OH240336   0.376   0.191   9.870 -0.0532  0.3143 -0.3053
 6234TIP3    H140337   0.367   0.286   9.877 -0.1775  0.1965  1.4371
 6234TIP3    H240338   0.308   0.156   9.927 -1.4608 -0.8917 -2.5726
 6235TIP3   OH240339   6.388   1.996   1.790  0.3886 -0.2527  0.1622
 6235TIP3    H140340   6.317   1.988   1.726  0.3669 -0.3165  0.1948
 6235TIP3    H240341   6.346   1.983   1.875  0.3506  0.2005  0.2156
 6236TIP3   OH240342   3.492   3.536   2.082 -0.5516 -0.3111 -0.0950
 6236TIP3    H140343   3.436   3.507   2.010 -0.2164 -1.9292  0.2456
 6236TIP3    H240344   3.580   3.537   2.044 -0.6415  1.0584 -0.3051
 6237TIP3   OH240345   2.796   6.353   9.190 -0.2728 -0.3027  0.1238
 6237TIP3    H140346   2.721   6.296   9.172  0.1265 -0.4879 -0.9988
 6237TIP3    H240347   2.849   6.349   9.111 -0.1860  1.5613  0.0453
 6238TIP3   OH240348   2.741   0.892   0.939  0.1659 -0.4808 -0.3739
 6238TIP3    H140349   2.820   0.838   0.928  0.2160 -0.6937  0.8096
 6238TIP3    H240350   2.677   0.854   0.879  0.5498 -1.1734 -0.3591
 6239TIP3   OH240351   3.493   3.806   1.549  0.4925 -0.1307  0.0354
 6239TIP3    H140352   3.555   3.832   1.618  0.2474  1.2356 -0.2467
 6239TIP3    H240353   3.409   3.841   1.578  0.5042  1.0295 -1.2539
 6240TIP3   OH240354   5.058   2.728   3.573  0.2905  0.1353 -0.2104
 6240TIP3    H140355   5.108   2.647   3.586  0.4204  0.2442 -0.0270
 6240TIP3    H240356   4.969   2.698   3.554 -0.3498 -0.0275  2.6693
 6241TIP3   OH240357   6.282   3.340   9.635  0.0201 -0.0890 -0.0110
 6241TIP3    H140358   6.261   3.426   9.672  0.2662 -0.1887  0.3616
 6241TIP3    H240359   6.358   3.355   9.579 -0.5054  0.1100 -0.6861
 6242TIP3   OH240360   5.518   2.500   8.380  0.1499  0.2404  0.3292
 6242TIP3    H140361   5.509   2.595   8.374  0.6304  0.2885  0.2736
 6242TIP3    H240362   5.562   2.475   8.299 -0.0138 -0.0347  0.3233
 6243TIP3   OH240363   3.888   3.212   3.257 -0.2849 -0.1957  0.1728
 6243TIP3    H140364   3.882   3.129   3.305  0.4741 -0.2825  0.1220
 6243TIP3    H240365   3.809   3.213   3.203  0.6925 -1.8746 -1.3922
 6244TIP3   OH240366   3.597   1.085   8.425  0.0355  0.3430 -0.0163
 6244TIP3    H140367   3.655   1.028   8.475  0.1652  0.0659 -0.4719
 6244TIP3    H240368   3.509   1.061   8.454  0.0121 -0.9598 -1.0723
 6245TIP3   OH240369   5.943   1.296   9.726 -0.0471 -0.4067  0.0493
 6245TIP3    H140370   5.943   1.247   9.808 -0.0250  1.1746  1.0305
 6245TIP3    H240371   5.969   1.231   9.660  2.1462 -1.2205  1.5731
 6246TIP3   OH240372   4.792   2.056   8.044  0.0301 -0.0924 -0.5661
 6246TIP3    H140373   4.873   2.006   8.042 -0.1984 -0.4787 -0.4054
 6246TIP3    H240374   4.744   2.020   8.119  1.1512  2.4063  1.5443
 6247TIP3   OH240375   1.687   3.883   9.579  0.1051 -0.4378 -0.1211
 6247TIP3    H140376   1.682   3.800   9.532  0.6306 -0.8354  0.5116
 6247TIP3    H240377   1.781   3.901   9.586 -0.0180  1.0192 -1.6355
 6248TIP3   OH240378   6.236   3.776   1.616  0.7246  0.6784 -0.2165
 6248TIP3    H140379   6.210   3.842   1.552  2.7489  1.4931 -0.2606
 6248TIP3    H240380   6.153   3.745   1.653 -0.5320  0.1946 -3.1396
 6249TIP3   OH240381   2.106   3.172   1.847  0.3242 -0.5602 -0.6700
 6249TIP3    H140382   2.015   3.148   1.829 -0.2686  0.7736  0.3398
 6249TIP3    H240383   2.133   3.223   1.770  0.2604 -1.0685 -1.0290
 6250TIP3   OH240384   1.913   6.086   8.188  0.0193 -0.6751  0.3775
 6250TIP3    H140385   1.891   6.172   8.224  0.0346 -0.4892 -0.0584
 6250TIP3    H240386   1.830   6.048   8.163  0.0649 -0.5399  0.0149
 6251TIP3   OH240387   0.390   6.040   8.734 -0.0967  0.2860  0.0598
 6251TIP3    H140388   0.377   6.091   8.654 -0.9730  0.3054  0.2021
 6251TIP3    H240389   0.320   5.974   8.731 -0.1067  0.2656  0.7907
 6252TIP3   OH240390   2.961   2.002   9.022 -0.2995 -0.1383 -0.0843
 6252TIP3    H140391   3.017   1.967   8.952 -0.5572 -1.1651  0.2062
 6252TIP3    H240392   2.974   2.096   9.018 -0.0759 -0.2014 -1.3237
 6253TIP3   OH240393   5.105   1.566   7.903 -0.1909  0.1061 -0.1424
 6253TIP3    H140394   5.057   1.592   7.982 -2.5115 -0.7976 -1.1477
 6253TIP3    H240395   5.106   1.471   7.907 -0.3732  0.0530 -1.1998
 6254TIP3   OH240396   5.423   0.287   1.638 -0.1821  0.1022  0.1737
 6254TIP3    H140397   5.350   0.275   1.698  0.7126 -2.5318  0.8717
 6254TIP3    H240398   5.486   0.340   1.688 -0.7448  0.6322  0.3320
 6255TIP3   OH240399   2.811   3.180   2.696  0.0976 -0.4486 -0.3548
 6255TIP3    H140400   2.832   3.117   2.765  2.7795  1.2557  0.5645
 6255TIP3    H240401   2.840   3.264   2.731 -3.0616  1.3483 -1.6381
 6256TIP3   OH240402   3.299   2.868   1.143  0.0891 -0.1857 -0.1300
 6256TIP3    H140403   3.235   2.898   1.208 -0.5614 -0.6107 -0.5525
 6256TIP3    H240404   3.383   2.897   1.177 -0.3587  0.7078  0.2622
 6257TIP3   OH240405   0.541   2.335   1.462 -0.1424  0.1011 -0.3323
 6257TIP3    H140406   0.514   2.382   1.383 -2.5791  0.8837  0.8596
 6257TIP3    H240407   0.523   2.243   1.443  2.1908 -0.1179 -1.7417
 6258TIP3   OH240408   2.037   3.147   0.885 -0.0980 -1.0579  0.4379
 6258TIP3    H140409   2.109   3.198   0.923  0.1881 -0.2829 -1.0650
 6258TIP3    H240410   1.999   3.101   0.960  0.9389 -0.2377  1.5236
 6259TIP3   OH240411   3.557   5.853   8.861  0.0633 -0.2100  0.3579
 6259TIP3    H140412   3.620   5.836   8.791 -1.5561 -1.1842 -0.9354
 6259TIP3    H240413   3.511   5.770   8.873 -3.2484  1.2473 -1.1179
 6260TIP3   OH240414   1.139   4.992   2.502  0.3820  0.5076  0.5768
 6260TIP3    H140415   1.233   4.983   2.516  0.9546  1.9318 -1.7967
 6260TIP3    H240416   1.104   4.904   2.514  2.5824 -0.8438 -2.0404
 6261TIP3   OH240417   2.482   0.171   9.205  0.2976 -0.4428  0.5759
 6261TIP3    H140418   2.451   0.081   9.205 -2.3573  0.3822 -0.2155
 6261TIP3    H240419   2.526   0.182   9.121 -2.5776 -0.1004 -1.0038
 6262TIP3   OH240420   0.373   5.093   8.115  0.4337  0.4644 -0.1338
 6262TIP3    H140421   0.287   5.055   8.096 -0.6528  2.6003  0.2097
 6262TIP3    H240422   0.412   5.109   8.029  0.9279 -1.3520 -0.2860
 6263TIP3   OH240423   5.596   5.785   8.198 -0.1243  0.5854 -0.3427
 6263TIP3    H140424   5.522   5.828   8.156  0.3199  0.0605 -1.7073
 6263TIP3    H240425   5.671   5.805   8.142  0.9079  1.5854  1.3126
 6264TIP3   OH240426   6.186   1.970   2.421  0.5331 -0.1034 -0.0729
 6264TIP3    H140427   6.104   1.957   2.470  1.7327 -1.0295  1.7842
 6264TIP3    H240428   6.247   2.004   2.486  2.1336 -1.1460 -0.9892
 6265TIP3   OH240429   5.393   6.185   8.351  0.3101 -1.2773  0.0655
 6265TIP3    H140430   5.405   6.277   8.328 -0.1326 -1.0006  0.8954
 6265TIP3    H240431   5.474   6.143   8.325  0.5359 -0.6447 -0.2771
 6266TIP3   OH240432   1.990   4.592   2.083 -0.1804 -0.4516  0.3801
 6266TIP3    H140433   2.073   4.631   2.109  0.2190 -1.2431  0.3441
 6266TIP3    H240434   1.974   4.525   2.149  0.2316 -1.6559 -0.6853
 6267TIP3   OH240435   6.221   2.301   1.392  0.0002  0.5102  0.4405
 6267TIP3    H140436   6.304   2.275   1.431 -0.1258 -1.2781 -0.3926
 6267TIP3    H240437   6.230   2.279   1.299 -0.7441  2.0105 -0.0145
 6268TIP3   OH240438   3.051   1.774   0.866  0.0058  0.1720 -0.4314
 6268TIP3    H140439   3.026   1.769   0.774  1.3465  0.4515 -0.8254
 6268TIP3    H240440   2.967   1.784   0.913 -0.7653 -0.8485 -1.5236
 6269TIP3   OH240441   2.018   3.119   2.288  0.0171  0.2300  0.1394
 6269TIP3    H140442   2.041   3.178   2.359 -0.8212 -1.3730  1.8149
 6269TIP3    H240443   2.097   3.068   2.272  0.3821  0.9680 -0.5216
 6270TIP3   OH240444   1.417   1.783   9.514  0.1699 -0.3607  0.2131
 6270TIP3    H140445   1.382   1.872   9.506 -0.1475 -0.4989  0.0358
 6270TIP3    H240446   1.446   1.759   9.426  2.1118  0.3058  0.6370
 6271TIP3   OH240447   4.095   2.467   2.467  0.0961  0.1855 -0.1646
 6271TIP3    H140448   4.172   2.510   2.429  0.6296 -1.9256 -1.6490
 6271TIP3    H240449   4.022   2.523   2.442  0.8472  0.7143 -1.2631
 6272TIP3   OH240450   3.161   3.300   8.885  0.5862 -0.4930 -0.2098
 6272TIP3    H140451   3.167   3.235   8.955  1.0389 -1.5791 -1.2296
 6272TIP3    H240452   3.252   3.315   8.858  0.6909  1.8662  1.1196
 6273TIP3   OH240453   3.435   2.660   3.512  0.4109  0.1113 -0.1675
 6273TIP3    H140454   3.503   2.604   3.551  0.5545  0.3321 -0.0967
 6273TIP3    H240455   3.381   2.688   3.586  0.2780 -0.0168 -0.2161
 6274TIP3   OH240456   0.692   6.059   0.853  0.5572 -0.2605  0.0177
 6274TIP3    H140457   0.611   6.093   0.814 -0.3407 -1.3159  0.8985
 6274TIP3    H240458   0.724   5.995   0.789  1.2021  0.8040 -0.7477
 6275TIP3   OH240459   1.824   4.707   8.454  0.1250 -0.3989  0.0061
 6275TIP3    H140460   1.807   4.653   8.376  0.4938 -0.5478  0.0281
 6275TIP3    H240461   1.917   4.694   8.472  0.7942  1.9763 -1.2946
 6276TIP3   OH240462   4.759   0.065   2.542 -0.3528 -0.2356  0.1851
 6276TIP3    H140463   4.837   0.033   2.587 -0.9180 -0.2430  1.2027
 6276TIP3    H240464   4.705  -0.014   2.529 -0.3298 -0.1851 -0.2291
 6277TIP3   OH240465   0.673   4.054   9.279  0.5085  0.3417  0.7375
 6277TIP3    H140466   0.611   4.025   9.347  0.8787 -1.2183  0.4497
 6277TIP3    H240467   0.757   4.018   9.307  1.0083  1.1729  0.3425
 6278TIP3   OH240468   0.908   2.200   0.558  0.5981 -0.3492 -0.3934
 6278TIP3    H140469   0.927   2.167   0.646 -1.1261  0.2713  0.2770
 6278TIP3    H240470   0.839   2.143   0.525  0.6621 -0.0841 -1.0005
 6279TIP3   OH240471   5.472   6.145   9.678  0.2855  0.1217 -0.1753
 6279TIP3    H140472   5.435   6.224   9.639 -0.7331 -0.5737 -0.6509
 6279TIP3    H240473   5.525   6.178   9.751 -1.2632  1.1587  0.5386
 6280TIP3   OH240474   5.185   2.434   9.844 -0.0870 -0.6320  0.0664
 6280TIP3    H140475   5.138   2.517   9.848  1.1393  0.2113 -1.5062
 6280TIP3    H240476   5.117   2.367   9.841 -1.1081  0.3569  0.5252
 6281TIP3   OH240477   1.642   3.591   1.794 -0.1981 -0.3124 -0.4671
 6281TIP3    H140478   1.715   3.535   1.772  1.5162 -0.4072  4.2358
 6281TIP3    H240479   1.577   3.532   1.833  0.1445  0.4166  1.3348
 6282TIP3   OH240480   3.967   3.404   1.061  0.0266 -0.0096  0.3007
 6282TIP3    H140481   4.031   3.392   1.132  0.1002  0.4119  0.3089
 6282TIP3    H240482   3.930   3.491   1.077 -0.3976 -0.1623  0.1726
 6283TIP3   OH240483   5.381   5.328   9.684  0.2801 -0.1319 -0.0282
 6283TIP3    H140484   5.307   5.274   9.710 -1.3372  1.7000 -0.5498
 6283TIP3    H240485   5.453   5.266   9.669 -1.6791 -2.1941 -1.4792
 6284TIP3   OH240486   0.976   2.222   1.764 -0.2061  0.0661  0.5547
 6284TIP3    H140487   0.938   2.141   1.731 -1.4890  0.2893  1.4010
 6284TIP3    H240488   0.904   2.266   1.809  1.2875  0.0020  3.1955
 6285TIP3   OH240489   1.669   0.474   7.890  0.4882  0.1445 -0.4906
 6285TIP3    H140490   1.747   0.427   7.921  0.6303 -0.5659 -1.8485
 6285TIP3    H240491   1.693   0.503   7.802  0.0027  1.8566 -0.0913
 6286TIP3   OH240492   6.255   3.056   2.667 -0.0664 -0.0756 -0.2505
 6286TIP3    H140493   6.224   3.125   2.725  0.9841  0.1159  0.1032
 6286TIP3    H240494   6.223   3.080   2.581 -2.0490 -0.6020  0.2876
 6287TIP3   OH240495   3.693   2.686   9.237  0.1544  0.0625 -0.3135
 6287TIP3    H140496   3.722   2.720   9.322 -2.2540  0.8166  0.2776
 6287TIP3    H240497   3.751   2.729   9.173  1.1642  0.4834  0.8327
 6288TIP3   OH240498   6.223   4.335   0.082  0.4301  0.0585  0.2522
 6288TIP3    H140499   6.186   4.248   0.094  1.8506 -0.6835 -0.4585
 6288TIP3    H240500   6.158   4.382   0.030  0.4185 -1.1640 -0.8835
 6289TIP3   OH240501   3.834   2.988   0.825  0.3930 -0.1253  0.0123
 6289TIP3    H140502   3.848   3.055   0.892  0.1635  0.1851 -0.2426
 6289TIP3    H240503   3.805   3.038   0.748  1.8164 -0.3583 -0.6989
 6290TIP3   OH240504   0.853   1.709   8.951 -0.5866 -0.2223  0.3323
 6290TIP3    H140505   0.921   1.748   8.897 -0.3015 -0.6980  0.3476
 6290TIP3    H240506   0.803   1.784   8.983  0.8031  0.2402  1.5142
 6291TIP3   OH240507   2.563   3.014   1.950  0.5330  0.0336 -0.4342
 6291TIP3    H140508   2.488   3.036   2.005  0.8668 -0.9377  0.4375
 6291TIP3    H240509   2.626   3.084   1.967  0.3209  0.1670 -0.1904
 6292TIP3   OH240510   4.348   0.321   0.345  0.2006  0.0130 -0.8489
 6292TIP3    H140511   4.358   0.240   0.396 -0.1361  0.2854 -0.3424
 6292TIP3    H240512   4.255   0.324   0.322  0.3621 -0.1511 -1.5677
 6293TIP3   OH240513   4.739   0.629   8.544 -0.2753  0.4839  0.4656
 6293TIP3    H140514   4.727   0.592   8.457  0.3304  4.2819 -1.4178
 6293TIP3    H240515   4.814   0.582   8.580  0.1436 -0.4360 -1.4942
 6294TIP3   OH240516   3.097   4.036   0.766  0.2407  0.4921 -0.1952
 6294TIP3    H140517   3.048   4.005   0.689  1.2520  1.9709 -1.5001
 6294TIP3    H240518   3.186   4.053   0.733  1.6731 -1.9224  2.0418
 6295TIP3   OH240519   4.021   5.295   0.462  0.2415  0.7780 -0.1094
 6295TIP3    H140520   4.075   5.224   0.498 -1.5908 -0.4374  0.3502
 6295TIP3    H240521   3.957   5.251   0.406 -0.6423  2.1200 -0.1988
 6296TIP3   OH240522   4.777   2.053   9.820 -0.0380 -0.0595  0.3126
 6296TIP3    H140523   4.753   2.143   9.796  1.0412  0.2203  0.2154
 6296TIP3    H240524   4.759   2.048   9.914  0.3219  0.4174  0.4149
 6297TIP3   OH240525   0.974   4.755   0.692 -0.2770  0.2969 -0.0937
 6297TIP3    H140526   1.042   4.800   0.643  0.4101  2.3122  2.4815
 6297TIP3    H240527   0.915   4.825   0.720 -0.5747 -0.7076  1.9769
 6298TIP3   OH240528   5.708   2.199   3.113 -0.0118 -1.0067  0.2623
 6298TIP3    H140529   5.766   2.274   3.129 -0.7299 -0.5748  0.9105
 6298TIP3    H240530   5.765   2.133   3.074  1.1127 -0.9279  1.7158
 6299TIP3   OH240531   4.760   4.708   1.622 -0.0250 -0.5164 -0.5751
 6299TIP3    H140532   4.734   4.762   1.548 -0.2587  1.3947  0.8341
 6299TIP3    H240533   4.835   4.657   1.590  0.8687  1.4056 -1.6785
 6300TIP3   OH240534   5.185   1.631   9.781 -0.1145  0.3332 -0.1330
 6300TIP3    H140535   5.121   1.560   9.782 -0.0037  0.1998 -1.2290
 6300TIP3    H240536   5.190   1.657   9.689  1.2728  0.4568 -0.0407
 6301TIP3   OH240537   3.759   3.323   8.916 -0.0190 -0.2630 -0.0965
 6301TIP3    H140538   3.830   3.267   8.883 -0.9731 -1.0476 -0.8832
 6301TIP3    H240539   3.682   3.295   8.867 -0.5827  1.6137 -0.3541
 6302TIP3   OH240540   0.784   3.909   3.508  0.2846 -0.1762  0.2660
 6302TIP3    H140541   0.757   3.827   3.549  3.9360 -0.5136  2.4234
 6302TIP3    H240542   0.879   3.901   3.497  0.3509  2.3856 -2.8823
 6303TIP3   OH240543   4.498   1.753   0.737 -0.6889  0.4592  0.1255
 6303TIP3    H140544   4.429   1.818   0.731  0.7796  2.0734 -0.0975
 6303TIP3    H240545   4.467   1.681   0.682 -0.7431  2.5514 -2.8398
 6304TIP3   OH240546   2.880   2.319   8.278  0.4869 -0.4712  0.1274
 6304TIP3    H140547   2.915   2.341   8.191 -0.0255  0.2357  0.0993
 6304TIP3    H240548   2.785   2.317   8.266  0.0413  3.5433  1.4745
 6305TIP3   OH240549   0.526   3.568   7.742  0.0401  0.7817 -0.2037
 6305TIP3    H140550   0.499   3.556   7.833 -0.2170  1.9872 -0.1093
 6305TIP3    H240551   0.445   3.560   7.692 -0.0134  1.2890 -0.2065
 6306TIP3   OH240552   0.316   4.376   8.568  0.2037  0.2792  0.0141
 6306TIP3    H140553   0.234   4.362   8.616  0.5044  0.2193  0.5113
 6306TIP3    H240554   0.341   4.466   8.587  0.2648  0.2937 -0.1286
 6307TIP3   OH240555   0.275   5.946   0.462  0.0296 -0.5233  0.1793
 6307TIP3    H140556   0.222   5.920   0.536 -1.4386 -1.6918 -1.2129
 6307TIP3    H240557   0.366   5.934   0.491 -0.4610  0.2265  2.1533
 6308TIP3   OH240558   1.844   2.162   8.818 -0.3301  0.5563 -0.0489
 6308TIP3    H140559   1.888   2.163   8.732  0.7804  0.0993  0.4861
 6308TIP3    H240560   1.900   2.216   8.874 -0.2750 -0.2852  0.7332
 6309TIP3   OH240561   5.193   5.818   1.086 -0.3976 -0.4187 -0.0975
 6309TIP3    H140562   5.184   5.913   1.080  2.3570  0.0490  1.4970
 6309TIP3    H240563   5.103   5.785   1.089 -1.4507  2.2918  1.3648
 6310TIP3   OH240564   5.701   3.036   0.890  0.4034  0.8266  0.0053
 6310TIP3    H140565   5.700   3.120   0.935  0.8485  1.1050 -0.4909
 6310TIP3    H240566   5.776   3.041   0.830  0.2767  0.1820 -0.2229
 6311TIP3   OH240567   4.481   1.998   9.673 -0.4577 -0.6224 -0.6812
 6311TIP3    H140568   4.410   2.014   9.735 -0.3539  1.1347 -0.9516
 6311TIP3    H240569   4.530   1.925   9.710 -1.0583 -0.3469  0.7095
 6312TIP3   OH240570   3.367   5.796   0.466 -0.0907  0.7538  0.3109
 6312TIP3    H140571   3.420   5.875   0.466  1.8337 -0.3427  3.8035
 6312TIP3    H240572   3.405   5.743   0.395  1.1489  1.4337  0.4257
 6313TIP3   OH240573   5.568   5.941   2.367 -0.0500 -0.3375 -0.1878
 6313TIP3    H140574   5.513   5.978   2.436 -1.3005  1.2588 -1.9280
 6313TIP3    H240575   5.586   5.852   2.396  0.3974  0.6033  2.6806
 6314TIP3   OH240576   5.380   2.138   1.397 -0.2746  0.2099 -0.0692
 6314TIP3    H140577   5.389   2.082   1.474 -1.4491 -0.9901 -0.7783
 6314TIP3    H240578   5.297   2.113   1.358 -0.7317  2.2842 -0.5659
 6315TIP3   OH240579   4.057   0.143   0.177  0.4416 -0.1985  0.2562
 6315TIP3    H140580   3.992   0.168   0.111  2.9145 -0.4642 -2.4351
 6315TIP3    H240581   4.053   0.214   0.242 -0.0638  1.6675 -1.6988
 6316TIP3   OH240582   0.464   1.446   2.307 -0.0514 -0.7124 -0.6459
 6316TIP3    H140583   0.545   1.396   2.304  0.7324  0.5284 -1.2577
 6316TIP3    H240584   0.408   1.399   2.369  1.3525 -1.2841  0.2351
 6317TIP3   OH240585   1.536   0.957   9.653 -0.1982 -0.0530  0.2523
 6317TIP3    H140586   1.532   0.964   9.748 -0.8420 -2.1661  0.4294
 6317TIP3    H240587   1.451   0.988   9.623 -1.1571 -2.1951  0.6280
 6318TIP3   OH240588   2.055   5.407   2.538  0.1983 -0.2712 -0.2769
 6318TIP3    H140589   2.102   5.485   2.511  0.1503  0.3135  1.2333
 6318TIP3    H240590   1.963   5.430   2.532  0.1396 -0.6950 -1.1642
 6319TIP3   OH240591   2.796   4.552   0.155  0.4346 -0.4058  0.2833
 6319TIP3    H140592   2.770   4.479   0.099 -0.0226 -0.5528  0.6796
 6319TIP3    H240593   2.864   4.597   0.105 -0.6073  0.0138 -0.8137
 6320TIP3   OH240594   0.460   0.689  10.025 -0.2922 -0.0377  0.0871
 6320TIP3    H140595   0.445   0.769  10.075  1.0011 -0.7215  1.6600
 6320TIP3    H240596   0.551   0.666  10.043  0.2056 -0.4476 -2.4713
 6321TIP3   OH240597   5.002   1.425   9.741 -0.4144  0.4427  0.3853
 6321TIP3    H140598   4.955   1.387   9.816 -0.5513 -0.7624 -0.2865
 6321TIP3    H240599   4.939   1.483   9.700 -0.5592  0.5902  0.8094
 6322TIP3   OH240600   1.232   4.857   8.788  0.2963  0.1232 -0.7274
 6322TIP3    H140601   1.258   4.798   8.717 -0.7883  0.0993 -1.1193
 6322TIP3    H240602   1.139   4.874   8.772  0.0055  0.0273  0.7562
 6323TIP3   OH240603   2.930   5.159   2.255  0.0865 -0.0083  0.7765
 6323TIP3    H140604   2.893   5.086   2.306  0.0689 -0.1777  0.5206
 6323TIP3    H240605   3.012   5.179   2.299  0.5598 -0.8131  0.2794
 6324TIP3   OH240606   2.362   6.069   9.081 -0.4821 -0.2088 -0.2683
 6324TIP3    H140607   2.385   6.051   8.989 -0.6635 -0.9833 -0.1700
 6324TIP3    H240608   2.330   5.985   9.114  0.6895 -0.2376  0.8412
 6325TIP3   OH240609   3.967   0.656   0.414 -0.0637  0.5628 -0.1615
 6325TIP3    H140610   4.044   0.644   0.471 -0.5906  1.6408  0.8127
 6325TIP3    H240611   3.958   0.751   0.405 -0.0694  0.4185 -1.9864
 6326TIP3   OH240612   1.349   0.096   7.582 -0.8363 -0.5129  0.0200
 6326TIP3    H140613   1.435   0.135   7.568 -1.6093  0.3238 -3.2684
 6326TIP3    H240614   1.310   0.149   7.651 -0.0126  1.4932 -0.9663
 6327TIP3   OH240615   0.814   3.560   2.412  0.2194  0.6188 -0.1064
 6327TIP3    H140616   0.820   3.475   2.369 -1.7097  0.3346  0.1114
 6327TIP3    H240617   0.880   3.614   2.368  0.4587 -0.5623 -1.2433
 6328TIP3   OH240618   0.221   3.138   9.286 -0.3815  0.7143 -0.5267
 6328TIP3    H140619   0.161   3.160   9.358 -0.2761  0.4903 -0.3669
 6328TIP3    H240620   0.231   3.043   9.293  0.3169  0.8034 -0.3030
 6329TIP3   OH240621   1.934   2.912   8.512 -0.1288  0.3619  0.2467
 6329TIP3    H140622   1.869   2.875   8.571 -1.2295  0.4912 -0.8319
 6329TIP3    H240623   1.893   2.907   8.425  1.8578 -0.8839 -0.7092
 6330TIP3   OH240624   4.152   1.212   0.385  0.5710 -0.1403 -0.2630
 6330TIP3    H140625   4.121   1.223   0.474  2.7488  1.1074  0.4086
 6330TIP3    H240626   4.158   1.117   0.373  0.2986 -0.3198  0.9246
 6331TIP3   OH240627   5.381   5.897   8.074  0.1178 -0.3346  0.2212
 6331TIP3    H140628   5.382   5.988   8.044 -2.4103 -0.7828 -1.5191
 6331TIP3    H240629   5.305   5.892   8.132  1.5828 -0.8626  2.2022
 6332TIP3   OH240630   0.867   4.657   1.452 -0.4216 -0.4166  0.1251
 6332TIP3    H140631   0.861   4.629   1.544  0.1601  1.2974  0.7167
 6332TIP3    H240632   0.955   4.631   1.425 -0.9645 -1.8968 -0.3211
 6333TIP3   OH240633   1.771   6.028   0.016  0.0396  0.2099  0.1852
 6333TIP3    H140634   1.746   6.051  -0.074  0.7364  0.1802 -0.0248
 6333TIP3    H240635   1.816   5.944   0.007 -0.5123 -0.1380  0.6570
 6334TIP3   OH240636   6.131   1.099   2.173 -0.0901 -0.0382  0.6049
 6334TIP3    H140637   6.198   1.166   2.162 -2.2791  3.1777  4.0617
 6334TIP3    H240638   6.180   1.018   2.185  2.7961  1.0093 -2.5769
 6335TIP3   OH240639   2.096   0.891   8.402  0.2760  0.1182 -0.2149
 6335TIP3    H140640   2.126   0.800   8.401 -1.3683 -0.4764  0.0969
 6335TIP3    H240641   2.174   0.943   8.418  1.3033 -1.2218 -0.7238
 6336TIP3   OH240642   1.172   1.280   9.846 -0.1710 -0.5657 -0.6250
 6336TIP3    H140643   1.252   1.256   9.893  0.9108  1.7270 -1.1808
 6336TIP3    H240644   1.106   1.288   9.915  0.5856 -0.4141  0.1020
 6337TIP3   OH240645   0.060   1.859   8.542 -0.0749  0.4793  0.0558
 6337TIP3    H140646   0.096   1.794   8.481 -0.3155 -1.8829  2.2559
 6337TIP3    H240647   0.134   1.881   8.599 -0.3545  1.1074  0.1824
 6338TIP3   OH240648   3.515   4.887   2.186 -0.1836 -0.2362 -0.0339
 6338TIP3    H140649   3.587   4.945   2.163 -0.1452 -0.2537  0.0418
 6338TIP3    H240650   3.553   4.799   2.184  0.2090 -0.1371  1.5719
 6339TIP3   OH240651   0.056   5.699   9.807  0.2093 -0.0876  0.0830
 6339TIP3    H140652   0.129   5.724   9.750  0.2734 -0.3252  0.0564
 6339TIP3    H240653  -0.019   5.746   9.772 -0.0463 -1.2702 -1.0585
 6340TIP3   OH240654   2.375   0.811   1.909  0.1442  0.9657  0.1437
 6340TIP3    H140655   2.412   0.858   1.834 -1.8805 -0.6532 -2.0297
 6340TIP3    H240656   2.291   0.854   1.925  0.3417  0.9895  1.2095
 6341TIP3   OH240657   0.345   6.207   8.541 -0.3006  0.2206  0.3832
 6341TIP3    H140658   0.398   6.283   8.518  0.7218 -0.4933  0.2939
 6341TIP3    H240659   0.327   6.164   8.458  1.6116 -1.2063  0.6391
 6342TIP3   OH240660   2.387   3.307   8.088 -0.2675  0.3069  0.0295
 6342TIP3    H140661   2.454   3.253   8.129 -2.6629  0.4891  4.8631
 6342TIP3    H240662   2.430   3.391   8.072  1.6769 -0.8381 -1.2327
 6343TIP3   OH240663   0.614   4.155   3.421 -0.5540 -0.1250 -0.0285
 6343TIP3    H140664   0.707   4.172   3.410 -0.5686  0.0432  0.1116
 6343TIP3    H240665   0.610   4.080   3.481 -0.5175  0.1717  0.3518
 6344TIP3   OH240666   4.904   1.227   0.205  0.1240 -0.4282  0.1494
 6344TIP3    H140667   4.983   1.181   0.177 -0.7583 -0.6453 -2.1126
 6344TIP3    H240668   4.902   1.214   0.300  1.7328 -2.1054  0.0071
 6345TIP3   OH240669   0.509   4.341   9.817 -0.2957  0.0908 -0.4364
 6345TIP3    H140670   0.561   4.266   9.847  0.2687  0.7331  0.2283
 6345TIP3    H240671   0.542   4.360   9.729 -0.0342 -0.0755 -0.3755
 6346TIP3   OH240672   1.850   5.573   2.280 -0.2400  0.1868 -0.5379
 6346TIP3    H140673   1.943   5.570   2.261 -0.2189  0.3116 -0.4557
 6346TIP3    H240674   1.838   5.514   2.355 -0.4747 -1.0837 -1.5339
 6347TIP3   OH240675   2.245   3.037   8.767 -0.0949  0.0598  0.0509
 6347TIP3    H140676   2.172   3.045   8.829  0.1835  0.3637  0.3431
 6347TIP3    H240677   2.218   2.967   8.707 -0.7172  0.3102  0.0310
 6348TIP3   OH240678   4.257   6.169   9.296  0.3072 -0.2529 -0.0323
 6348TIP3    H140679   4.319   6.159   9.368 -1.1828  0.6134  1.4618
 6348TIP3    H240680   4.241   6.264   9.292  0.6309 -0.2410 -1.7853
 6349TIP3   OH240681   4.509   3.816   0.046 -0.6529 -0.1684 -0.3100
 6349TIP3    H140682   4.556   3.795  -0.034  1.0608 -0.4006  0.6913
 6349TIP3    H240683   4.577   3.847   0.106 -1.8714 -0.0496  1.0649
 6350TIP3   OH240684   5.194   0.388   8.725 -0.3927  0.1980  0.1508
 6350TIP3    H140685   5.148   0.305   8.711  0.4870 -0.6475  1.9932
 6350TIP3    H240686   5.279   0.362   8.761 -0.0554  1.8967  0.6399
 6351TIP3   OH240687   1.311   0.713   8.212  0.1250  0.0773 -0.1233
 6351TIP3    H140688   1.279   0.671   8.292 -0.0470  0.4060 -0.0190
 6351TIP3    H240689   1.390   0.664   8.190 -0.7056 -1.0515 -0.6478
 6352TIP3   OH240690   3.170   2.168   2.244  0.2300  0.2143 -0.1087
 6352TIP3    H140691   3.140   2.080   2.271  0.0900  0.4059  0.3732
 6352TIP3    H240692   3.109   2.193   2.175 -0.5126  0.4465  0.6107
 6353TIP3   OH240693   2.596   0.801   1.526  0.1359 -0.4917 -0.2906
 6353TIP3    H140694   2.561   0.772   1.442 -0.3368 -2.4721  0.5198
 6353TIP3    H240695   2.657   0.732   1.552  0.1491 -0.0094  1.0580
 6354TIP3   OH240696   1.781   0.129   6.946 -0.2778  0.1500 -0.3699
 6354TIP3    H140697   1.730   0.198   6.904 -2.2781 -0.7438  0.4814
 6354TIP3    H240698   1.790   0.062   6.878 -1.2118 -0.1492 -0.2151
 6355TIP3   OH240699   3.815   3.999   9.291 -0.0322 -0.3157 -0.2837
 6355TIP3    H140700   3.887   4.025   9.233 -0.2055  0.5016 -0.1452
 6355TIP3    H240701   3.816   4.064   9.361 -1.9559  0.7370 -1.1666
 6356TIP3   OH240702   0.105   2.503   2.097  0.3311  0.2555 -0.2111
 6356TIP3    H140703   0.125   2.446   2.171 -0.4962  1.3765  0.9144
 6356TIP3    H240704   0.011   2.491   2.082  0.1208  1.3677  0.1186
 6357TIP3   OH240705   4.009   5.872   9.910  0.6676 -0.2379  0.4101
 6357TIP3    H140706   4.081   5.851   9.849  0.5145 -0.7683  0.4039
 6357TIP3    H240707   4.000   5.967   9.905 -1.0089 -0.4350 -2.3341
 6358TIP3   OH240708   0.827   0.035   1.270  0.1412 -0.1116  0.7397
 6358TIP3    H140709   0.811  -0.044   1.322  1.1019 -0.3811  0.6584
 6358TIP3    H240710   0.832   0.003   1.180 -0.4896  0.2011  0.5911
 6359TIP3   OH240711   0.944   2.095   0.270 -0.0742  0.6214  0.5446
 6359TIP3    H140712   1.016   2.088   0.332  1.7904  2.4960 -1.2401
 6359TIP3    H240713   0.971   2.164   0.209 -2.9373  0.6927 -0.8374
 6360TIP3   OH240714   4.560   3.089   2.996 -0.0956 -0.0731  0.1945
 6360TIP3    H140715   4.611   3.100   3.076  1.6473 -1.7661 -0.6075
 6360TIP3    H240716   4.475   3.055   3.026 -0.2175  1.2430  1.4297
 6361TIP3   OH240717   0.009   5.810   1.649 -0.8180 -0.3334 -0.4668
 6361TIP3    H140718  -0.026   5.894   1.618 -1.4100 -0.7283 -0.8941
 6361TIP3    H240719   0.040   5.767   1.570 -1.4675 -0.9530 -0.3920
 6362TIP3   OH240720   2.663   1.829   2.291 -0.0183  0.7805 -0.2905
 6362TIP3    H140721   2.688   1.919   2.309 -1.0578  1.1226 -0.5010
 6362TIP3    H240722   2.710   1.807   2.210 -1.6805  1.9849 -1.6340
 6363TIP3   OH240723   5.653   6.390   9.434  0.1079  0.1102 -0.1037
 6363TIP3    H140724   5.622   6.358   9.350  0.0762 -1.2423  0.3933
 6363TIP3    H240725   5.574   6.397   9.488  0.1862  0.4934 -0.0368
 6364TIP3   OH240726   5.149   1.099   0.909 -0.0637  0.3012 -0.1624
 6364TIP3    H140727   5.059   1.129   0.900  0.4594  1.6595 -1.3252
 6364TIP3    H240728   5.182   1.144   0.987 -0.3823 -0.1886  0.2568
 6365TIP3   OH240729   0.467   5.657   0.273  0.3020  0.4626  0.3400
 6365TIP3    H140730   0.505   5.572   0.250 -0.6239  0.0789  0.1985
 6365TIP3    H240731   0.466   5.706   0.191  0.2795  0.3891  0.2957
 6366TIP3   OH240732   4.457   0.422   0.970  0.0128 -0.5931  0.5147
 6366TIP3    H140733   4.470   0.374   0.888  3.5566 -2.7539  2.0514
 6366TIP3    H240734   4.516   0.497   0.964 -0.2352 -0.3708  0.8047
 6367TIP3   OH240735   4.463   4.972   8.750 -0.8670 -0.0096 -0.7170
 6367TIP3    H140736   4.428   4.983   8.662  0.6251 -1.6898 -1.5971
 6367TIP3    H240737   4.416   5.036   8.804 -1.8576  1.0044 -2.7066
 6368TIP3   OH240738   3.166   6.364   1.763  0.4384 -0.6475  0.0767
 6368TIP3    H140739   3.081   6.400   1.737 -0.3539 -0.7940  2.2341
 6368TIP3    H240740   3.227   6.437   1.753  0.3272 -0.8007 -2.4321
 6369TIP3   OH240741   4.689   1.142   8.408 -0.5452  0.6977 -0.2786
 6369TIP3    H140742   4.722   1.052   8.415 -1.1041  0.6386  3.7259
 6369TIP3    H240743   4.768   1.197   8.409 -0.2649  0.3234  1.6530
 6370TIP3   OH240744   5.084   4.161   8.701 -0.0981 -0.7644 -0.2846
 6370TIP3    H140745   5.052   4.081   8.742  1.1762 -0.6709  1.0169
 6370TIP3    H240746   5.171   4.138   8.669  1.3263  0.5961  2.2036
 6371TIP3   OH240747   0.410   5.000   1.097  0.2048  0.0510  0.2960
 6371TIP3    H140748   0.395   4.906   1.104 -2.1398  0.4793  2.2834
 6371TIP3    H240749   0.471   5.020   1.168  2.2190 -0.1547 -1.2832
 6372TIP3   OH240750   5.316   0.352   1.380 -1.3166  0.3274 -0.0156
 6372TIP3    H140751   5.291   0.444   1.378 -0.2628  0.6372  0.4894
 6372TIP3    H240752   5.348   0.337   1.469  1.7324  0.3783 -0.9942
 6373TIP3   OH240753   4.625   2.177   9.510 -0.0291  0.0707 -0.4779
 6373TIP3    H140754   4.691   2.122   9.468 -0.6654 -0.8927 -0.2573
 6373TIP3    H240755   4.572   2.116   9.561  0.1331  1.0869  0.9682
 6374TIP3   OH240756   3.494   0.388   9.799 -0.0357  0.2676  0.1539
 6374TIP3    H140757   3.508   0.475   9.763  2.1423 -0.7580 -1.7188
 6374TIP3    H240758   3.505   0.399   9.893 -0.6156  2.1357  0.0381
 6375TIP3   OH240759   0.628   1.301   0.590  0.3932 -0.1360 -0.4189
 6375TIP3    H140760   0.548   1.249   0.599  0.6144 -0.3783  0.2278
 6375TIP3    H240761   0.699   1.237   0.592  0.6397  0.1403 -0.1644
 6376TIP3   OH240762   5.411   4.879   8.620  0.6867  0.2147  0.3036
 6376TIP3    H140763   5.331   4.826   8.621  0.3208  0.7588  0.9563
 6376TIP3    H240764   5.481   4.816   8.637  0.3665 -0.2234  0.0317
 6377TIP3   OH240765   2.494   2.967   9.695 -0.1276  0.0100 -0.2205
 6377TIP3    H140766   2.522   2.885   9.654  0.0453 -0.3484  0.5947
 6377TIP3    H240767   2.409   2.947   9.733  0.9924 -0.5714  2.1548
 6378TIP3   OH240768   5.014   3.270   9.451  0.0557 -0.8041  0.3402
 6378TIP3    H140769   5.027   3.358   9.417  0.2488 -1.2102 -0.6581
 6378TIP3    H240770   5.102   3.234   9.461 -0.0467 -1.2509 -0.2722
 6379TIP3   OH240771   2.624   6.256   1.684 -0.3052  0.3157  0.2820
 6379TIP3    H140772   2.683   6.239   1.757 -0.7371  0.5425  0.6903
 6379TIP3    H240773   2.681   6.281   1.612  0.2332 -1.1554  0.1480
 6380TIP3   OH240774   4.845   0.199   3.371  0.6351  0.0808 -0.5722
 6380TIP3    H140775   4.921   0.235   3.326  0.9932 -0.0470 -0.0784
 6380TIP3    H240776   4.770   0.238   3.326  0.9893  0.1378 -1.1209
 6381TIP3   OH240777   0.560   6.335   0.134 -0.0808 -0.5795  0.4008
 6381TIP3    H140778   0.548   6.366   0.044  1.0263 -2.8985 -0.6446
 6381TIP3    H240779   0.558   6.414   0.188  1.2426  1.1288 -1.8839
 6382TIP3   OH240780   2.170   1.892   9.825 -0.3108  0.1476  0.0544
 6382TIP3    H140781   2.173   1.870   9.732 -1.9938 -0.8453  0.2045
 6382TIP3    H240782   2.234   1.833   9.865 -0.9048 -0.7314 -0.2548
 6383TIP3   OH240783   5.639   6.099   8.274 -0.6391 -0.7937  0.0681
 6383TIP3    H140784   5.635   6.091   8.179 -3.1467 -2.4426  0.2480
 6383TIP3    H240785   5.692   6.024   8.303 -2.3107 -1.9971  0.1093
 6384TIP3   OH240786   5.118   5.701   8.042  0.3170  0.3626 -0.6037
 6384TIP3    H140787   5.172   5.771   8.079  0.4100 -0.3658  0.6987
 6384TIP3    H240788   5.030   5.738   8.040  0.3499  0.5000  0.1719
 6385TIP3   OH240789   5.967   3.998   2.671 -0.2777 -0.1971  0.8428
 6385TIP3    H140790   5.887   4.039   2.637  1.6626  1.4453 -2.1885
 6385TIP3    H240791   5.998   3.944   2.599  2.4524  0.9334  1.0554
 6386TIP3   OH240792   5.610   3.500   2.645 -0.0590  0.4902  0.5570
 6386TIP3    H140793   5.515   3.512   2.653 -0.2377 -1.1466  1.2422
 6386TIP3    H240794   5.646   3.547   2.719 -0.4471  0.0040  1.0638
 6387TIP3   OH240795   1.606   3.491   0.268  0.2507 -0.1226  0.9255
 6387TIP3    H140796   1.675   3.541   0.313 -1.5735  2.4465  1.0740
 6387TIP3    H240797   1.561   3.444   0.339  0.1721  0.3588  1.1995
 6388TIP3   OH240798   3.771   3.834   3.675 -0.1351 -0.3780  0.2496
 6388TIP3    H140799   3.706   3.853   3.742 -0.4781 -0.6934  0.0106
 6388TIP3    H240800   3.838   3.901   3.686 -0.2434 -0.3636  0.8374
 6389TIP3   OH240801   2.795   3.378   8.449 -0.1786 -0.4146 -0.3239
 6389TIP3    H140802   2.719   3.348   8.499 -0.7035 -0.1425 -0.9312
 6389TIP3    H240803   2.824   3.457   8.494 -1.2796  0.4147 -1.0106
 6390TIP3   OH240804   1.556   2.819   8.106 -0.3940 -0.1106  0.4087
 6390TIP3    H140805   1.525   2.749   8.164  0.3139 -0.7277  0.0463
 6390TIP3    H240806   1.646   2.795   8.085 -0.7792 -0.1211 -1.3046
 6391TIP3   OH240807   3.027   0.454   9.549 -0.0070 -0.1864  0.2373
 6391TIP3    H140808   2.938   0.447   9.585 -0.4210  0.7622 -0.5392
 6391TIP3    H240809   3.013   0.476   9.456  1.0304 -1.9938 -0.3767
 6392TIP3   OH240810   4.053   0.073   3.652  0.4254 -0.0312 -0.2152
 6392TIP3    H140811   4.098   0.138   3.598  0.8529 -0.6600 -0.6444
 6392TIP3    H240812   4.006   0.018   3.588  1.3387 -1.0899 -0.0157
 6393TIP3   OH240813   5.657   5.145   0.924  0.1007  0.4003  0.0590
 6393TIP3    H140814   5.574   5.170   0.966  0.3480 -0.5550  1.1823
 6393TIP3    H240815   5.654   5.187   0.838 -1.6473  0.2058 -0.0154
 6394TIP3   OH240816   0.698   1.929   9.036  0.2177 -0.1655  0.3319
 6394TIP3    H140817   0.610   1.964   9.019 -0.3381 -1.5760  0.1701
 6394TIP3    H240818   0.692   1.888   9.122  0.0581 -2.1916 -0.5939
 6395TIP3   OH240819   5.899   5.462   1.457 -0.3238  0.4036 -0.1461
 6395TIP3    H140820   5.933   5.530   1.399  2.2008  0.4950  1.2905
 6395TIP3    H240821   5.898   5.382   1.403 -1.8096  1.1974 -1.3814
 6396TIP3   OH240822   4.386   5.296   9.612 -0.4555 -1.3093 -0.3541
 6396TIP3    H140823   4.304   5.274   9.655 -0.1003 -1.8140  0.0832
 6396TIP3    H240824   4.452   5.290   9.681  0.2559 -3.0583 -1.1272
 6397TIP3   OH240825   5.845   3.766   9.113 -0.1180  0.0536 -0.4915
 6397TIP3    H140826   5.824   3.855   9.143 -1.4499  0.2545 -1.8575
 6397TIP3    H240827   5.759   3.726   9.096  0.4690 -1.4435 -0.0741
 6398TIP3   OH240828   5.804   2.863   2.538 -0.0387 -0.1895  0.3590
 6398TIP3    H140829   5.741   2.934   2.542  0.4836  0.2993  0.0634
 6398TIP3    H240830   5.802   2.834   2.446  0.1430 -0.1984  0.3579
 6399TIP3   OH240831   2.696   5.624   8.186 -0.3063  0.6285  0.6746
 6399TIP3    H140832   2.616   5.587   8.147  1.0830  0.1613 -1.9238
 6399TIP3    H240833   2.689   5.718   8.170 -0.5832  0.6668  0.9960
 6400TIP3   OH240834   3.629   4.064   2.331  0.5923  0.5569 -0.0140
 6400TIP3    H140835   3.550   4.118   2.322  0.6827  0.5759 -0.7354
 6400TIP3    H240836   3.636   4.019   2.247 -0.1484 -1.4854  0.9379
 6401TIP3   OH240837   1.696   2.404   1.614 -0.1102 -0.0486  0.1645
 6401TIP3    H140838   1.694   2.320   1.568  1.1357 -1.0888  1.8708
 6401TIP3    H240839   1.615   2.405   1.665 -0.8869  0.5301 -1.0640
 6402TIP3   OH240840   5.097   3.734   2.144 -0.2652  0.9052  0.1178
 6402TIP3    H140841   5.029   3.754   2.208 -0.6299 -0.4800  0.1943
 6402TIP3    H240842   5.111   3.640   2.152  1.5723  1.1248 -0.0061
 6403TIP3   OH240843   4.270   2.286   9.628 -0.2868  0.0205 -0.2929
 6403TIP3    H140844   4.189   2.312   9.585 -0.1479 -1.9559 -1.8947
 6403TIP3    H240845   4.330   2.267   9.557  1.2352  0.3388  0.8552
 6404TIP3   OH240846   6.242   3.400   0.167 -0.3405 -0.0013 -0.4590
 6404TIP3    H140847   6.336   3.385   0.154 -0.6255 -1.4241 -1.0362
 6404TIP3    H240848   6.206   3.314   0.186 -1.6105  0.4558 -0.6737
 6405TIP3   OH240849   5.344   0.361   3.174  0.6564 -0.6667  0.4473
 6405TIP3    H140850   5.302   0.305   3.110  1.3330 -0.4799 -0.1811
 6405TIP3    H240851   5.274   0.388   3.234 -0.8806  2.2233 -2.3593
 6406TIP3   OH240852   4.006   0.653   9.026 -0.3389 -0.8040  0.5277
 6406TIP3    H140853   3.916   0.684   9.036 -0.3187 -0.6519  0.2640
 6406TIP3    H240854   4.018   0.647   8.931 -0.3504 -1.6439  0.5775
 6407TIP3   OH240855   2.527   3.514   8.500  0.7680  0.1110 -1.1426
 6407TIP3    H140856   2.503   3.548   8.414 -0.6400 -2.0518 -1.6736
 6407TIP3    H240857   2.463   3.553   8.560 -0.1802 -0.7244 -1.5816
 6408TIP3   OH240858   2.951   5.316   1.826  0.0158 -0.3844 -0.1026
 6408TIP3    H140859   3.033   5.335   1.780 -0.7044  1.6558 -0.6369
 6408TIP3    H240860   2.888   5.378   1.790 -1.7021 -1.6731  0.5434
 6409TIP3   OH240861   1.266   3.552   3.210  0.3654  0.4987 -0.1499
 6409TIP3    H140862   1.178   3.536   3.177  0.5239 -0.2571 -0.2213
 6409TIP3    H240863   1.302   3.465   3.227  1.1752  0.7834 -0.3310
 6410TIP3   OH240864   2.481   2.749   0.560  0.0275  0.6774  0.6512
 6410TIP3    H140865   2.476   2.692   0.483 -1.1519 -0.1757  1.3197
 6410TIP3    H240866   2.560   2.720   0.606  0.5238  0.9314 -0.0202
 6411TIP3   OH240867   2.114   0.197   8.556  0.0662  0.1967 -0.7595
 6411TIP3    H140868   2.081   0.108   8.568 -1.0974  0.8051  0.8590
 6411TIP3    H240869   2.081   0.224   8.471  0.2153 -0.8173 -1.1522
 6412TIP3   OH240870   0.090   3.322   0.160  0.2972 -0.0010 -0.2858
 6412TIP3    H140871   0.098   3.282   0.247  0.0014  1.8893  0.6651
 6412TIP3    H240872   0.062   3.250   0.103  1.2690 -1.4695  0.9994
 6413TIP3   OH240873   3.608   0.040   0.327 -0.1629 -0.3957 -0.2821
 6413TIP3    H140874   3.550   0.103   0.369  0.4797  0.2048 -0.2617
 6413TIP3    H240875   3.658   0.092   0.264  1.3606 -0.5921  0.6999
 6414TIP3   OH240876   5.650   0.081   8.882  0.8066  0.6854 -0.0287
 6414TIP3    H140877   5.658   0.176   8.897 -0.9694  0.8669 -0.0094
 6414TIP3    H240878   5.564   0.059   8.917  1.5905 -1.1423  0.8504
 6415TIP3   OH240879   0.761   3.039   3.526  0.3084 -0.5571  0.2776
 6415TIP3    H140880   0.735   2.947   3.520  1.0857 -0.7764  0.1793
 6415TIP3    H240881   0.712   3.073   3.600  0.0619 -1.0670  0.3554
 6416TIP3   OH240882   2.112   5.517   0.487  0.1029  0.4849  0.1823
 6416TIP3    H140883   2.147   5.600   0.519  0.3792  0.5701 -0.3386
 6416TIP3    H240884   2.040   5.497   0.547 -1.5761  2.3322 -1.0705
 6417TIP3   OH240885   3.239   2.085   8.993 -0.9678  0.0911  0.0480
 6417TIP3    H140886   3.207   2.024   8.927 -1.5857 -0.1802  0.5733
 6417TIP3    H240887   3.265   2.163   8.944 -1.3860 -0.1141 -0.5128
 6418TIP3   OH240888   4.365   0.903   2.819  0.5660 -0.3262 -0.1855
 6418TIP3    H140889   4.270   0.900   2.832  0.3357  0.7889 -1.3578
 6418TIP3    H240890   4.398   0.827   2.866 -0.8508 -0.4287  0.7063
 6419TIP3   OH240891   4.359   4.836   2.855  0.2313  0.2387  0.1890
 6419TIP3    H140892   4.266   4.856   2.864  0.2859  0.2803  0.6948
 6419TIP3    H240893   4.403   4.906   2.903  0.4984 -0.0734  0.4032
 6420TIP3   OH240894   3.584   3.261   1.693 -0.4509  0.5478  0.3554
 6420TIP3    H140895   3.558   3.198   1.760 -0.2655 -0.0075 -0.0895
 6420TIP3    H240896   3.621   3.208   1.623 -0.9737  1.0878 -0.3449
 6421TIP3   OH240897   1.667   1.937   8.641  0.1127 -0.0009 -0.1405
 6421TIP3    H140898   1.722   1.865   8.672  1.1560 -0.2995 -2.4270
 6421TIP3    H240899   1.594   1.894   8.597  0.8078  0.2696 -1.6326
 6422TIP3   OH240900   5.178   0.231   0.723  0.3802  0.2047  0.1124
 6422TIP3    H140901   5.106   0.168   0.720  1.0743 -0.7028  1.6183
 6422TIP3    H240902   5.164   0.280   0.804  1.9118 -0.5536  0.8612
 6423TIP3   OH240903   0.442   0.186   1.229 -0.2684 -0.2525  0.2963
 6423TIP3    H140904   0.391   0.238   1.166 -1.3813  0.3166  1.6176
 6423TIP3    H240905   0.531   0.219   1.219 -0.8548  1.6480  0.7377
 6424TIP3   OH240906   0.530   3.777   1.841  0.3107  0.1125 -0.0607
 6424TIP3    H140907   0.521   3.690   1.803 -0.6359  0.3601 -0.4287
 6424TIP3    H240908   0.521   3.763   1.936  2.5196 -0.4810  0.1170
 6425TIP3   OH240909   5.998   2.191   1.302 -1.0067  0.0099 -0.1411
 6425TIP3    H140910   6.073   2.248   1.319  1.4062 -3.3424  1.6455
 6425TIP3    H240911   5.987   2.193   1.207  0.4590  1.6062 -0.3168
 6426TIP3   OH240912   1.777   2.290   1.997  0.0589 -0.2326 -0.0931
 6426TIP3    H140913   1.712   2.273   2.065 -1.7232 -1.1363 -1.9378
 6426TIP3    H240914   1.848   2.335   2.043 -0.8942 -1.1203  2.4193
 6427TIP3   OH240915   6.046   0.089   0.522 -0.0168  0.0616 -0.0199
 6427TIP3    H140916   6.115   0.085   0.589 -0.0508  0.5541  0.0449
 6427TIP3    H240917   5.974   0.135   0.564 -0.7894 -1.3512  0.2553
 6428TIP3   OH240918   5.862   3.945   0.885  0.1796 -0.0894 -0.2180
 6428TIP3    H140919   5.802   3.975   0.953  1.5409  3.0065 -0.2284
 6428TIP3    H240920   5.943   3.923   0.932  0.5003  0.2088 -0.6204
 6429TIP3   OH240921   2.345   0.759   0.012 -0.0749  0.0575 -0.5006
 6429TIP3    H140922   2.368   0.823   0.079  1.2137 -1.1570  0.2696
 6429TIP3    H240923   2.354   0.806  -0.071  1.9262  0.6147 -0.0238
 6430TIP3   OH240924   3.984   2.264   2.326  0.1962  0.6825  0.6647
 6430TIP3    H140925   3.939   2.318   2.260  1.2562 -0.2495 -0.8720
 6430TIP3    H240926   4.015   2.328   2.391 -1.3201  1.5727  0.5658
 6431TIP3   OH240927   5.263   2.199   0.890 -0.7756  0.5543 -0.1557
 6431TIP3    H140928   5.186   2.229   0.841 -0.2862  0.7146 -0.8463
 6431TIP3    H240929   5.328   2.268   0.878 -0.3648  0.2108  0.0326
 6432TIP3   OH240930   0.354   0.646   8.461  0.2958 -0.0302  0.5067
 6432TIP3    H140931   0.396   0.574   8.414  1.0835 -0.1230  1.3180
 6432TIP3    H240932   0.292   0.683   8.399 -0.0571 -1.3599  0.0430
 6433TIP3   OH240933   2.624   3.211   0.659 -0.5456  0.1132  0.1627
 6433TIP3    H140934   2.708   3.213   0.704 -0.7371 -0.8391  0.5681
 6433TIP3    H240935   2.604   3.304   0.642  2.2884  0.3086 -3.1707
 6434TIP3   OH240936   5.146   3.295   1.941  0.0519 -0.0168  0.2584
 6434TIP3    H140937   5.129   3.277   2.034  2.6438 -1.0182  0.6258
 6434TIP3    H240938   5.077   3.248   1.894 -0.3526 -0.8465  1.6305
 6435TIP3   OH240939   5.897   4.163   9.762  0.0229  0.0172 -0.0819
 6435TIP3    H140940   5.808   4.129   9.772 -0.3050 -0.3787 -3.2426
 6435TIP3    H240941   5.954   4.092   9.790 -0.6901 -0.8499 -0.7603
 6436TIP3   OH240942   3.152   5.152   2.409 -0.3204  0.4578  0.0358
 6436TIP3    H140943   3.230   5.201   2.435 -0.1786  0.4086 -0.2863
 6436TIP3    H240944   3.186   5.070   2.374 -0.6179 -0.5540  1.9902
 6437TIP3   OH240945   2.645   5.041   9.472  0.9289 -0.7229 -0.0046
 6437TIP3    H140946   2.552   5.019   9.468  0.7642 -1.3130  3.7282
 6437TIP3    H240947   2.685   4.984   9.407 -1.0722 -2.0808 -0.1561
 6438TIP3   OH240948   2.118   4.352   8.961 -0.0605  0.1687 -0.1429
 6438TIP3    H140949   2.206   4.315   8.953 -0.2316 -0.3478  0.2890
 6438TIP3    H240950   2.132   4.447   8.963  0.4882  0.0921 -0.0247
 6439TIP3   OH240951   5.492   2.156   0.347  0.3957 -0.2707  0.3066
 6439TIP3    H140952   5.454   2.182   0.431  1.6074 -1.2994  1.2111
 6439TIP3    H240953   5.559   2.092   0.370  0.1075 -1.3033 -1.5244
 6440TIP3   OH240954   3.332   0.563   8.709 -0.1039  0.2323 -0.4547
 6440TIP3    H140955   3.350   0.475   8.743  1.9852  0.7714 -0.0507
 6440TIP3    H240956   3.365   0.561   8.619 -1.0709  0.2959 -0.8216
 6441TIP3   OH240957   0.976   3.400   8.533  0.4042  0.2418  0.6267
 6441TIP3    H140958   0.947   3.491   8.540  2.0317  0.7152  1.5794
 6441TIP3    H240959   0.926   3.353   8.600 -0.7900  0.3097 -0.1858
 6442TIP3   OH240960   1.946   2.757   1.134 -0.2720  0.1793 -0.1260
 6442TIP3    H140961   2.020   2.711   1.175 -0.3395  0.5541  0.4228
 6442TIP3    H240962   1.877   2.690   1.128  0.4103 -0.4431 -1.5224
 6443TIP3   OH240963   6.113   4.794   2.338  0.7713  0.4426 -0.3542
 6443TIP3    H140964   6.148   4.862   2.281  1.8165 -0.2200 -0.5243
 6443TIP3    H240965   6.186   4.735   2.353  0.1786 -0.0527  0.6949
 6444TIP3   OH240966   4.289   3.128   2.297 -0.5609 -0.9998 -0.1193
 6444TIP3    H140967   4.330   3.072   2.363  2.4537  0.9818 -0.1106
 6444TIP3    H240968   4.283   3.214   2.339  0.7626  0.1286 -2.0859
 6445TIP3   OH240969   5.262   0.868   1.967 -0.3082  1.1821  0.1425
 6445TIP3    H140970   5.264   0.891   2.060  0.6971 -0.5762  0.6010
 6445TIP3    H240971   5.354   0.852   1.944 -0.5279  1.7539 -1.1996
 6446TIP3   OH240972   2.649   3.384   4.233 -0.2603  0.1138  0.2702
 6446TIP3    H140973   2.612   3.472   4.229 -0.4327  0.1100  1.3552
 6446TIP3    H240974   2.742   3.396   4.215 -0.3376  0.4801  0.1136
 6447TIP3   OH240975   5.465   1.527   7.544 -0.8037  0.2765 -0.0368
 6447TIP3    H140976   5.533   1.491   7.487 -0.9838  0.4557 -0.3667
 6447TIP3    H240977   5.463   1.620   7.524 -1.3614  0.2230 -0.2597
 6448TIP3   OH240978   5.277   1.272   9.877  0.3296  0.5478  0.2195
 6448TIP3    H140979   5.285   1.320   9.959 -1.4070  0.1030  0.6970
 6448TIP3    H240980   5.194   1.303   9.840 -0.5749 -1.6353  0.2873
 6449TIP3   OH240981   1.372   2.734   7.927 -0.0869  0.5273 -0.1845
 6449TIP3    H140982   1.349   2.795   7.856  0.4704  1.5911  0.5303
 6449TIP3    H240983   1.449   2.773   7.968  0.0132 -0.4440  0.5719
 6450TIP3   OH240984   1.601   3.313   1.009  0.4367  1.0581  0.3972
 6450TIP3    H140985   1.572   3.225   0.987 -0.1362  1.6977 -1.6124
 6450TIP3    H240986   1.520   3.363   1.025  0.7694  1.1305  2.0786
 6451TIP3   OH240987   1.858   0.345   1.527 -0.4071  0.2215  0.2905
 6451TIP3    H140988   1.870   0.359   1.621 -0.2119  0.2978  0.2548
 6451TIP3    H240989   1.796   0.272   1.521  0.3797 -0.4690  0.4787
 6452TIP3   OH240990   3.001   5.975   0.778  0.0533  0.2229  0.1643
 6452TIP3    H140991   3.005   5.886   0.743  1.0612  0.2900  0.0763
 6452TIP3    H240992   2.918   5.978   0.826 -0.9376 -0.1396 -1.4454
 6453TIP3   OH240993   3.523   2.093   9.470  0.4329  0.3017  0.1159
 6453TIP3    H140994   3.460   2.158   9.500  1.0374  1.0175 -0.1359
 6453TIP3    H240995   3.526   2.105   9.375  0.8911  0.2225  0.1177
 6454TIP3   OH240996   1.033   2.992   8.942 -0.1022  0.2578 -0.1412
 6454TIP3    H140997   1.016   2.905   8.979  2.0875  0.2049  0.9039
 6454TIP3    H240998   1.026   2.979   8.848  0.1995 -1.0583 -0.0112
 6455TIP3   OH240999   0.007   2.027   2.175  0.6303 -0.8893 -0.2582
 6455TIP3    H141000  -0.050   1.972   2.122  0.1688  0.2084 -0.9359
 6455TIP3    H241001  -0.052   2.090   2.217  1.0932 -1.1667  0.8461
 6456TIP3   OH241002   2.384   5.687   0.317 -0.0391  0.0495  0.3894
 6456TIP3    H141003   2.434   5.768   0.326 -0.3335  0.2166  0.5221
 6456TIP3    H241004   2.298   5.715   0.286  0.7867 -0.4547 -2.6821
 6457TIP3   OH241005   0.535   1.888   1.615  0.9483  0.2870  0.1552
 6457TIP3    H141006   0.546   1.971   1.660  0.5228  0.4579 -0.0499
 6457TIP3    H241007   0.498   1.829   1.682 -0.4835  0.7724 -0.1820
 6458TIP3   OH241008   2.725   2.014   1.228  0.1447  0.0359 -0.2669
 6458TIP3    H141009   2.775   2.051   1.155 -0.2700  1.1522 -0.0126
 6458TIP3    H241010   2.784   2.020   1.303  1.6267 -3.6145 -0.9261
 6459TIP3   OH241011   5.554   4.703   8.764  0.4400  0.7026 -0.6217
 6459TIP3    H141012   5.470   4.700   8.810  0.6675  1.6522 -0.1206
 6459TIP3    H241013   5.603   4.628   8.797  0.0630  0.5710 -0.3606
 6460TIP3   OH241014   3.638   3.889   0.599  0.2220 -0.2537 -0.0498
 6460TIP3    H141015   3.641   3.937   0.516  0.8730  0.6531  0.4797
 6460TIP3    H241016   3.558   3.837   0.594 -0.3010  0.5888 -0.8114
 6461TIP3   OH241017   3.174   2.487   9.524  0.3587  0.2736 -0.8075
 6461TIP3    H141018   3.100   2.548   9.534 -0.8353 -1.2959  0.5740
 6461TIP3    H241019   3.173   2.464   9.431 -0.1841  1.1344 -1.0304
 6462TIP3   OH241020   2.284   5.831   1.640  0.1311  0.2220  1.1108
 6462TIP3    H141021   2.277   5.870   1.728 -1.5456  0.1537  1.0530
 6462TIP3    H241022   2.244   5.897   1.582 -0.5494 -0.5455  0.6869
 6463TIP3   OH241023   0.715   1.684   9.707  0.0640  0.7569 -0.1440
 6463TIP3    H141024   0.781   1.632   9.662 -0.4964  0.6469 -0.8626
 6463TIP3    H241025   0.750   1.697   9.795  0.5317 -0.2396 -0.1689
 6464TIP3   OH241026   4.091   2.386   9.236  0.1606 -0.6657  0.1668
 6464TIP3    H141027   4.024   2.406   9.172 -1.0602  0.4811  1.7289
 6464TIP3    H241028   4.172   2.422   9.199 -0.7286  1.0288 -0.2082
 6465TIP3   OH241029   4.358   4.097   9.913  0.2023 -0.2017 -0.2300
 6465TIP3    H141030   4.356   4.020   9.971 -0.4900 -1.1167 -1.4271
 6465TIP3    H241031   4.405   4.068   9.835 -1.2511  0.1335 -1.2736
 6466TIP3   OH241032   2.535   2.977   1.664 -0.3343 -0.0529 -0.7188
 6466TIP3    H141033   2.543   2.995   1.757  0.5396 -3.5612  0.0228
 6466TIP3    H241034   2.462   2.915   1.658 -0.9164  0.7304 -2.5291
 6467TIP3   OH241035   5.289   5.652   9.002 -0.6761  0.1251  0.3721
 6467TIP3    H141036   5.281   5.577   9.060 -0.7667 -0.6691 -0.6460
 6467TIP3    H241037   5.326   5.721   9.057 -5.1590  1.0043  2.7660
 6468TIP3   OH241038   0.763   6.418   6.986 -0.4987 -0.0775  0.2042
 6468TIP3    H141039   0.851   6.429   6.951  0.0460  0.0908  1.5468
 6468TIP3    H241040   0.730   6.337   6.947  0.4207 -0.3752  0.0367
 6469TIP3   OH241041   2.760   3.743   0.105  0.7576  0.4063  0.3618
 6469TIP3    H141042   2.763   3.823   0.052  0.3249  0.5723  0.5788
 6469TIP3    H241043   2.796   3.675   0.049 -2.5709 -0.1130 -1.3953
 6470TIP3   OH241044   6.258   0.851   1.891 -0.2351  0.2345  0.3137
 6470TIP3    H141045   6.330   0.822   1.834  0.4144 -0.7659  1.5711
 6470TIP3    H241046   6.185   0.866   1.832  1.7243  4.2890 -1.5081
 6471TIP3   OH241047   0.172   3.582   2.012 -0.3533 -0.4225  0.7118
 6471TIP3    H141048   0.241   3.518   1.993  0.6177  0.5747  0.8164
 6471TIP3    H241049   0.158   3.574   2.107 -0.7408 -0.9731  0.6122
 6472TIP3   OH241050   1.252   0.154   0.098  0.3948  0.3693  0.8019
 6472TIP3    H141051   1.169   0.116   0.127 -0.3088  1.1522 -0.1275
 6472TIP3    H241052   1.288   0.088   0.038 -0.0672  0.4850  0.3923
 6473TIP3   OH241053   0.832   4.071   0.326  0.2740 -0.0123  0.0185
 6473TIP3    H141054   0.804   4.113   0.244 -0.3698  0.4770  0.4793
 6473TIP3    H241055   0.750   4.047   0.369  0.6258 -0.9401  0.1810
 6474TIP3   OH241056   4.238   4.218   1.335  0.7830  0.6612 -0.0755
 6474TIP3    H141057   4.328   4.209   1.367  0.7076  1.3686  0.3534
 6474TIP3    H241058   4.242   4.291   1.272  0.7221 -0.0409 -0.9192
 6475TIP3   OH241059   4.062   2.110   0.384  0.0878  0.0773 -0.3726
 6475TIP3    H141060   4.152   2.123   0.411 -0.1276 -1.4785  1.2438
 6475TIP3    H241061   4.048   2.175   0.314  2.2125  0.7968 -0.1848
 6476TIP3   OH241062   3.236   4.738   9.853  0.1108 -0.2715 -0.0243
 6476TIP3    H141063   3.323   4.776   9.856  0.2151 -0.4132 -0.9222
 6476TIP3    H241064   3.181   4.807   9.817  0.1555 -0.6844 -0.9269
 6477TIP3   OH241065   1.925   3.052   9.071 -0.1835  0.1747 -0.1701
 6477TIP3    H141066   1.985   3.050   8.996 -0.0055  3.3774 -0.2379
 6477TIP3    H241067   1.858   2.988   9.049  0.8425 -0.3130 -2.1803
 6478TIP3   OH241068   2.957   5.879   8.652 -0.3135 -0.6290 -0.1789
 6478TIP3    H141069   2.893   5.879   8.581  0.2356  0.9852 -0.7260
 6478TIP3    H241070   3.041   5.867   8.609 -0.1175 -1.4999  0.4158
 6479TIP3   OH241071   0.132   4.744   1.410 -0.0480  0.5814  0.1637
 6479TIP3    H141072   0.208   4.722   1.464  0.7809  0.1811 -1.1223
 6479TIP3    H241073   0.057   4.730   1.467  0.6422 -2.0208  0.5651
 6480TIP3   OH241074   5.367   2.418   3.037 -0.0760  0.5667 -0.1450
 6480TIP3    H141075   5.403   2.397   3.122  0.3261  1.0725 -0.1854
 6480TIP3    H241076   5.315   2.497   3.052  0.4667  0.9931 -0.4774
 6481TIP3   OH241077   5.629   4.478   9.643 -0.0086 -0.0402  0.0247
 6481TIP3    H141078   5.558   4.528   9.603  0.4946  0.3813 -0.3586
 6481TIP3    H241079   5.633   4.397   9.592 -0.6789 -0.3846  0.5055
 6482TIP3   OH241080   3.229   2.497   9.019 -0.3755  0.5159 -0.2114
 6482TIP3    H141081   3.239   2.453   8.935 -0.1891 -3.6175  1.7415
 6482TIP3    H241082   3.316   2.493   9.059 -0.3040  2.9837  0.0326
 6483TIP3   OH241083   6.091   1.951   1.042  0.3318 -0.7218 -0.0992
 6483TIP3    H141084   5.998   1.932   1.053  0.2824 -0.3563  0.1203
 6483TIP3    H241085   6.097   1.997   0.959  0.2632 -0.3642  0.0946
 6484TIP3   OH241086   0.470   1.166   9.675 -0.0800 -0.2284  0.0969
 6484TIP3    H141087   0.481   1.093   9.613  1.9142 -0.1127  0.2488
 6484TIP3    H241088   0.411   1.132   9.741 -1.2296 -0.8106 -1.1720
 6485TIP3   OH241089   2.220   6.281   7.675  0.0882 -0.0677  0.2307
 6485TIP3    H141090   2.196   6.342   7.745 -0.7952 -0.0077 -0.1149
 6485TIP3    H241091   2.297   6.321   7.635 -1.3924  1.6911 -1.0246
 6486TIP3   OH241092   5.618   5.732   9.701  0.1331  0.3329 -0.6205
 6486TIP3    H141093   5.598   5.696   9.615 -0.5714  0.4490 -0.5149
 6486TIP3    H241094   5.624   5.655   9.758  0.6576  0.2523 -0.7780
 6487TIP3   OH241095   3.497   1.997   0.272  0.1445  0.0844 -0.4482
 6487TIP3    H141096   3.536   1.913   0.244 -0.3622 -0.0068 -0.9073
 6487TIP3    H241097   3.412   1.999   0.227 -0.8901 -0.2494  1.4139
 6488TIP3   OH241098   2.624   2.820   8.881  0.0658 -0.0967  0.1056
 6488TIP3    H141099   2.629   2.912   8.907 -0.6094  0.5036 -1.7044
 6488TIP3    H241100   2.543   2.813   8.830  0.9576 -1.2666 -1.2729
 6489TIP3   OH241101   5.554   1.345   2.210 -0.0924  0.7105 -0.3825
 6489TIP3    H141102   5.519   1.282   2.273 -1.4479  0.9097 -0.9049
 6489TIP3    H241103   5.536   1.306   2.124  0.4854  1.0790 -0.6769
 6490TIP3   OH241104   2.944   3.347   0.432  0.4776  0.2453  0.8317
 6490TIP3    H141105   2.966   3.304   0.350 -0.5520 -1.4529  1.3916
 6490TIP3    H241106   2.973   3.285   0.500 -1.2202  0.3106  1.6675
 6491TIP3   OH241107   4.072   1.909   8.622  0.3955  0.1460 -0.4976
 6491TIP3    H141108   4.043   1.966   8.550  0.4814 -0.0288 -0.6734
 6491TIP3    H241109   4.020   1.937   8.697  1.0468  1.0391 -0.3626
 6492TIP3   OH241110   4.151   2.243   3.059  0.4332  0.1198  0.3855
 6492TIP3    H141111   4.188   2.234   3.147  0.5994  1.0146  0.4088
 6492TIP3    H241112   4.227   2.256   3.002  0.4352 -1.6513 -0.0794
 6493TIP3   OH241113   3.537   4.527   1.281 -0.7709  0.7364 -0.2526
 6493TIP3    H141114   3.548   4.496   1.372  1.1075 -1.1981 -1.0340
 6493TIP3    H241115   3.570   4.617   1.283 -2.2947  1.3140  1.2767
 6494TIP3   OH241116   3.725   2.611   0.439  0.0346 -0.1728 -0.2402
 6494TIP3    H141117   3.708   2.585   0.530 -0.9175 -2.2170 -0.9193
 6494TIP3    H241118   3.746   2.528   0.394 -1.2848  0.4801 -2.2275
 6495TIP3   OH241119   5.980   5.071   2.361  0.5298 -0.7223 -0.2104
 6495TIP3    H141120   6.042   5.047   2.429  1.6444  1.2952 -0.4206
 6495TIP3    H241121   5.930   5.143   2.400 -0.0259 -0.7275 -0.9046
 6496TIP3   OH241122   0.605   5.806   7.153 -0.3156  0.2065 -0.1829
 6496TIP3    H141123   0.598   5.753   7.232 -0.2143  0.3792 -0.0559
 6496TIP3    H241124   0.584   5.895   7.183 -0.6234  0.2136 -0.4197
 6497TIP3   OH241125   4.457   4.636   3.031 -0.0150 -0.4623 -0.2126
 6497TIP3    H141126   4.386   4.579   3.061  1.1771 -1.5245  0.6858
 6497TIP3    H241127   4.414   4.698   2.972 -1.8079 -0.6473  0.8057
 6498TIP3   OH241128   4.340   3.566   9.689  0.3395 -0.3874  0.0704
 6498TIP3    H141129   4.430   3.562   9.658  0.4406 -0.5152  0.3690
 6498TIP3    H241130   4.313   3.657   9.674  0.8760 -0.0701  0.9445
 6499TIP3   OH241131   1.361   5.424   0.584 -0.0738  0.5008  0.1412
 6499TIP3    H141132   1.448   5.462   0.596  0.6477 -1.1542  0.5145
 6499TIP3    H241133   1.334   5.399   0.672  0.0626 -1.0060 -0.2221
 6500TIP3   OH241134   0.804   5.923   1.725  0.0783 -0.5827  0.0549
 6500TIP3    H141135   0.751   5.857   1.680  0.1250  0.3638 -1.4904
 6500TIP3    H241136   0.763   6.006   1.701  2.4659  0.2331 -1.6101
 6501TIP3   OH241137   5.472   2.945   0.585 -0.0935  0.4312  0.1553
 6501TIP3    H141138   5.430   3.020   0.627  1.2856  1.0347  0.5266
 6501TIP3    H241139   5.556   2.979   0.554 -0.2418 -0.4961 -1.3726
 6502TIP3   OH241140   2.355   2.424   9.409 -0.2711 -0.0600  0.2365
 6502TIP3    H141141   2.340   2.467   9.325  1.2762  1.4052  0.6657
 6502TIP3    H241142   2.450   2.413   9.414 -0.2340  0.7499  2.1846
 6503TIP3   OH241143   3.628   3.560   9.934 -0.2178 -0.2207 -0.5522
 6503TIP3    H141144   3.688   3.591   9.866  1.4895 -0.0260  0.9910
 6503TIP3    H241145   3.606   3.638   9.984  0.5174 -0.7502  0.6210
 6504TIP3   OH241146   0.524   2.666   8.483 -0.0237  0.3932 -0.7191
 6504TIP3    H141147   0.475   2.589   8.454  0.2758 -0.1317  0.1445
 6504TIP3    H241148   0.463   2.712   8.542  0.2941  0.0575 -0.1179
 6505TIP3   OH241149   5.192   5.407   8.788  0.0753 -0.4579 -0.2676
 6505TIP3    H141150   5.251   5.451   8.849  0.5433 -0.7641 -0.4971
 6505TIP3    H241151   5.118   5.379   8.842 -0.2854  0.6947 -0.1292
 6506TIP3   OH241152   3.826   0.189   2.525  0.1653  0.3048 -0.1023
 6506TIP3    H141153   3.828   0.100   2.490 -0.3813  0.2789 -0.0772
 6506TIP3    H241154   3.905   0.230   2.490 -1.3571  0.9409 -3.1674
 6507TIP3   OH241155   4.816   2.804   9.940 -0.6026  0.1575 -0.0640
 6507TIP3    H141156   4.749   2.842   9.997  0.1021 -0.3552  1.1515
 6507TIP3    H241157   4.866   2.879   9.907 -0.4035  0.4123  0.8004
 6508TIP3   OH241158   1.581   0.822   1.065  0.3085  0.6590  0.2346
 6508TIP3    H141159   1.654   0.761   1.056  0.7279  1.1143  0.4540
 6508TIP3    H241160   1.590   0.881   0.990 -1.3124 -0.7642 -1.1710
 6509TIP3   OH241161   1.933   3.905   7.779 -0.0021 -0.2718  0.1071
 6509TIP3    H141162   1.986   3.904   7.859  0.2680  2.3566  0.0546
 6509TIP3    H241163   1.847   3.933   7.808 -0.0530  0.1491 -0.4473
 6510TIP3   OH241164   3.434   4.160   9.070 -0.0674  0.0727  0.3244
 6510TIP3    H141165   3.473   4.233   9.118  1.4571 -0.4607 -0.0661
 6510TIP3    H241166   3.507   4.119   9.024 -1.1225 -0.8537 -0.5902
 6511TIP3   OH241167   5.432   3.187   0.261  0.1210 -0.0074 -0.2315
 6511TIP3    H141168   5.344   3.193   0.299  0.0789 -1.0247 -0.1332
 6511TIP3    H241169   5.416   3.170   0.168  0.1987 -0.7184 -0.1221
 6512TIP3   OH241170   4.125   3.361   2.177  0.3023 -0.6511  0.1678
 6512TIP3    H141171   4.096   3.401   2.095  1.9023  2.1685  0.8405
 6512TIP3    H241172   4.060   3.389   2.241  0.6995 -0.2455  0.3994
 6513TIP3   OH241173   3.653   4.842   1.594  0.2824  0.6283 -0.2266
 6513TIP3    H141174   3.643   4.795   1.677  1.5253  0.3477 -0.2195
 6513TIP3    H241175   3.738   4.885   1.601  0.8329 -0.1445 -1.7127
 6514TIP3   OH241176   3.281   5.608   2.009  0.4431  0.1586  0.2217
 6514TIP3    H141177   3.198   5.574   2.046 -0.5464  0.0424 -1.9667
 6514TIP3    H241178   3.317   5.533   1.961 -0.3292  1.3039 -2.2946
 6515TIP3   OH241179   5.032   1.741   2.636 -0.3007 -0.6934  0.7330
 6515TIP3    H141180   5.009   1.649   2.648 -0.8447 -0.3226  2.9848
 6515TIP3    H241181   5.125   1.739   2.610 -1.0520 -1.9245 -2.3224
 6516TIP3   OH241182   2.411   6.249   8.717  0.3701 -0.2522  0.0953
 6516TIP3    H141183   2.333   6.229   8.769  0.2751 -1.0277 -0.3304
 6516TIP3    H241184   2.436   6.165   8.678  0.7876  0.2014 -0.6396
 6517TIP3   OH241185   5.054   5.143   9.273  0.0572 -0.3294 -0.6576
 6517TIP3    H141186   5.060   5.070   9.211 -0.5469 -1.3247  0.4020
 6517TIP3    H241187   4.966   5.178   9.261 -0.6208 -1.4785  0.5962
 6518TIP3   OH241188   3.333   3.381   2.274 -0.2225 -0.2086  0.0339
 6518TIP3    H141189   3.402   3.417   2.218  0.1302 -0.8986  0.0223
 6518TIP3    H241190   3.379   3.333   2.342 -0.6807 -0.3403  0.2538
 6519TIP3   OH241191   0.091   3.235   0.603 -0.4749  0.2247  0.4483
 6519TIP3    H141192   0.055   3.305   0.657  2.8150  0.5865  2.4763
 6519TIP3    H241193   0.102   3.161   0.663 -0.9057 -0.9697 -0.8834
 6520TIP3   OH241194   1.037   2.980   9.854  0.1968  0.1158 -0.4414
 6520TIP3    H141195   1.021   3.047   9.787  0.1830 -0.2408 -0.8047
 6520TIP3    H241196   0.965   2.990   9.916  1.2298  1.7012  0.5668
 6521TIP3   OH241197   4.418   4.089   1.106 -0.7963 -0.2346 -0.4334
 6521TIP3    H141198   4.416   4.182   1.130 -2.0959 -0.8286  2.1920
 6521TIP3    H241199   4.510   4.071   1.087 -0.3345  1.3379  0.1382
 6522TIP3   OH241200   5.703   2.378   8.969 -0.5609  0.2043  0.0635
 6522TIP3    H141201   5.624   2.326   8.954 -0.1595 -1.0381  1.9161
 6522TIP3    H241202   5.672   2.468   8.969 -1.4972 -0.0529 -1.9005
 6523TIP3   OH241203   4.569   0.418   1.589  0.2095 -0.0037  0.2864
 6523TIP3    H141204   4.571   0.514   1.590 -1.3661  0.0573  0.6535
 6523TIP3    H241205   4.619   0.392   1.666 -1.6398  0.6336  1.7747
 6524TIP3   OH241206   1.807   3.556   8.890  0.0492 -0.4194 -0.0098
 6524TIP3    H141207   1.886   3.503   8.901  1.2406  0.9994 -1.2741
 6524TIP3    H241208   1.835   3.645   8.912 -1.3990 -0.0020  0.2250
 6525TIP3   OH241209   6.088   1.787   2.221  0.1775  0.2675 -0.0192
 6525TIP3    H141210   6.059   1.700   2.249 -0.4877  0.7518  0.8641
 6525TIP3    H241211   6.107   1.834   2.303  0.9227  0.8286 -0.4937
 6526TIP3   OH241212   0.166   3.331   3.824  0.2363  0.6107  0.1150
 6526TIP3    H141213   0.181   3.409   3.877 -1.9721 -0.4244  2.4986
 6526TIP3    H241214   0.209   3.350   3.741 -0.0225  4.2588  0.6418
 6527TIP3   OH241215   6.349   5.302   9.391 -0.1899 -0.1424 -0.5144
 6527TIP3    H141216   6.344   5.392   9.357 -1.9392  0.2712  0.7204
 6527TIP3    H241217   6.305   5.249   9.325  0.1722  0.0123 -0.8861
 6528TIP3   OH241218   2.288   5.484   1.655  0.0963 -0.6199 -0.1247
 6528TIP3    H141219   2.255   5.533   1.580  3.0730  1.0428 -0.5159
 6528TIP3    H241220   2.327   5.406   1.616  1.4259  0.1264 -0.3718
 6529TIP3   OH241221   2.122   5.753   7.732  0.2506 -0.0280  0.1815
 6529TIP3    H141222   2.040   5.762   7.684  0.5548 -2.0671 -0.7889
 6529TIP3    H241223   2.120   5.824   7.796 -1.7326  0.6513 -0.5778
 6530TIP3   OH241224   0.881   4.454   8.399  0.4867 -0.3296  0.0048
 6530TIP3    H141225   0.817   4.494   8.342 -0.4860 -0.5537  0.9052
 6530TIP3    H241226   0.965   4.470   8.356  0.0416  1.7145 -0.1898
 6531TIP3   OH241227   4.021   3.295   9.894 -0.3277  0.2994 -0.5543
 6531TIP3    H141228   3.950   3.235   9.873 -0.7035  0.4332  0.2800
 6531TIP3    H241229   3.978   3.379   9.907  0.3548  1.1501 -3.2372
 6532TIP3   OH241230   3.025   3.673   1.820  0.0712  0.2977  0.0563
 6532TIP3    H141231   3.062   3.733   1.885  0.7719 -2.7334  2.7030
 6532TIP3    H241232   3.097   3.657   1.759  0.5721  0.4436  0.5978
 6533TIP3   OH241233   2.109   2.856   0.876 -0.1185 -0.1629  0.7408
 6533TIP3    H141234   2.141   2.798   0.806  2.5958 -1.9555  3.2166
 6533TIP3    H241235   2.147   2.941   0.856  3.4472 -1.3959  1.5728
 6534TIP3   OH241236   1.644   1.172   1.398 -0.4101 -0.6542  0.4365
 6534TIP3    H141237   1.712   1.203   1.458 -1.2926  0.0305  1.1020
 6534TIP3    H241238   1.692   1.134   1.325  0.8301  3.5974 -1.2254
 6535TIP3   OH241239   2.468   4.718   0.540  0.5443 -0.0721  0.1954
 6535TIP3    H141240   2.548   4.768   0.525  0.9774 -0.6605  0.5116
 6535TIP3    H241241   2.489   4.660   0.613 -0.6281  0.7590  1.2476
 6536TIP3   OH241242   6.271   2.167   0.002 -0.3000 -0.6971  0.4146
 6536TIP3    H141243   6.288   2.073  -0.003  0.7617 -0.5629  1.1582
 6536TIP3    H241244   6.181   2.177  -0.028 -0.9394 -2.1224  1.7513
 6537TIP3   OH241245   1.237   3.991   0.874  0.0018  0.4655 -0.1971
 6537TIP3    H141246   1.280   3.994   0.789 -2.4479  2.2351 -1.5192
 6537TIP3    H241247   1.186   3.910   0.872  1.4840 -0.5160  0.4688
 6538TIP3   OH241248   6.401   4.499   9.272 -0.5307 -0.2291 -0.3431
 6538TIP3    H141249   6.409   4.404   9.263  1.0917 -0.2506  0.8242
 6538TIP3    H241250   6.491   4.531   9.266 -0.9948  1.1769 -0.0915
 6539TIP3   OH241251   0.698   2.315  10.010  0.5629 -0.7256 -0.1922
 6539TIP3    H141252   0.637   2.296  10.081 -2.0407  0.3762 -1.9690
 6539TIP3    H241253   0.676   2.251   9.942  1.4564 -0.3557 -0.8494
 6540TIP3   OH241254   5.154   4.320   2.968 -0.8807  0.2076  0.3382
 6540TIP3    H141255   5.164   4.303   3.062 -1.6922  0.0591  0.4078
 6540TIP3    H241256   5.059   4.325   2.955 -0.7571  1.3872 -0.2671
 6541TIP3   OH241257   5.793   1.821   0.837  0.2088  0.9269  0.7682
 6541TIP3    H141258   5.845   1.758   0.787  1.9439  3.2713 -0.5912
 6541TIP3    H241259   5.815   1.802   0.929  3.0793  1.3970  0.2851
 6542TIP3   OH241260   4.879   1.206   8.692 -0.7804  0.2576 -0.3271
 6542TIP3    H141261   4.967   1.244   8.682  0.2737 -2.0523 -0.4163
 6542TIP3    H241262   4.849   1.192   8.602 -0.7099 -0.0517 -0.3054
 6543TIP3   OH241263   0.984   1.138   9.632 -0.5571 -0.0980 -0.7549
 6543TIP3    H141264   0.896   1.154   9.665 -0.3702 -0.6537  0.0352
 6543TIP3    H241265   1.041   1.192   9.687 -0.2391 -1.0521 -0.1249
 6544TIP3   OH241266   3.450   0.233   8.011 -0.0080  0.0910 -0.7293
 6544TIP3    H141267   3.414   0.146   8.024  0.4391  0.0255  0.1137
 6544TIP3    H241268   3.374   0.287   7.990 -0.8306  0.1855  2.0599
 6545TIP3   OH241269   4.582   5.637   9.014 -0.0500 -0.4913  0.3388
 6545TIP3    H141270   4.656   5.686   8.977 -0.4231 -0.3127 -0.1853
 6545TIP3    H241271   4.607   5.546   9.005 -0.2356 -0.4589 -0.5987
 6546TIP3   OH241272   2.653   1.836   8.712 -0.0798 -0.0311 -0.0278
 6546TIP3    H141273   2.652   1.889   8.792 -0.6610 -0.3713  0.1953
 6546TIP3    H241274   2.575   1.782   8.718 -0.5226  0.4362 -1.1558
 6547TIP3   OH241275   3.580   2.168   8.334 -0.1378  0.1426  0.3762
 6547TIP3    H141276   3.629   2.211   8.405  0.2841  1.0188 -0.4225
 6547TIP3    H241277   3.647   2.141   8.272 -0.6581  2.6053 -1.4221
 6548TIP3   OH241278   0.374   4.008   3.418  0.3737  0.9647  0.2588
 6548TIP3    H141279   0.295   3.999   3.365 -0.6766 -0.2672  1.9509
 6548TIP3    H241280   0.393   4.102   3.417  0.2939  1.0124 -2.0709
 6549TIP3   OH241281   3.926   1.941   0.186 -0.0440  0.1255  0.1885
 6549TIP3    H141282   3.950   1.858   0.228 -3.1563 -0.8012  0.3699
 6549TIP3    H241283   3.943   2.007   0.253  0.0793 -0.6938  0.9863
 6550TIP3   OH241284   2.648   2.383   1.590  0.0892  0.2632  0.0612
 6550TIP3    H141285   2.582   2.400   1.658  0.2361 -1.1811  0.5921
 6550TIP3    H241286   2.639   2.290   1.571  0.8343  0.4135 -1.0963
 6551TIP3   OH241287   3.070   6.077   8.812 -0.2137 -0.7914  0.2513
 6551TIP3    H141288   3.068   5.987   8.780 -1.3327 -0.0025 -2.1583
 6551TIP3    H241289   3.163   6.098   8.822  0.2701 -1.0559 -2.8959
 6552TIP3   OH241290   0.536   2.266   9.014 -0.0161  0.0811  0.3066
 6552TIP3    H141291   0.449   2.304   9.000  0.0486 -0.0655 -0.5574
 6552TIP3    H241292   0.520   2.171   9.015 -0.1132  0.0962  1.9906
 6553TIP3   OH241293   2.001   5.571   9.079 -0.0782 -0.4032 -0.1944
 6553TIP3    H141294   2.050   5.615   9.011 -0.0325  0.8920  0.6475
 6553TIP3    H241295   2.024   5.478   9.069 -0.7735 -0.3855 -2.4707
 6554TIP3   OH241296   5.443   1.014   1.058 -0.3759  0.2046 -0.0293
 6554TIP3    H141297   5.377   0.958   1.016  0.2708  0.1741 -1.0212
 6554TIP3    H241298   5.419   1.012   1.151 -0.7437 -1.2131 -0.1231
 6555TIP3   OH241299   0.106   4.191   9.389  0.5572 -0.0918  0.4786
 6555TIP3    H141300   0.132   4.099   9.385  1.0224  0.0152  0.8676
 6555TIP3    H241301   0.041   4.201   9.320  1.1335 -0.5064 -0.1389
 6556TIP3   OH241302   1.585   1.654   9.295  0.6120  0.0879  0.4206
 6556TIP3    H141303   1.583   1.558   9.295 -0.6252  0.0833  2.2427
 6556TIP3    H241304   1.503   1.680   9.254  2.0827  0.4547 -2.5409
 6557TIP3   OH241305   2.753   1.045   9.915 -0.1815 -0.2748 -0.1108
 6557TIP3    H141306   2.664   1.057   9.880 -0.2239 -0.0255  0.0752
 6557TIP3    H241307   2.794   1.131   9.904 -1.1774  0.7878  3.2266
 6558TIP3   OH241308   1.710   4.956   9.574  0.3846 -0.5837 -0.4352
 6558TIP3    H141309   1.786   4.906   9.546  0.6933 -1.0680  1.1694
 6558TIP3    H241310   1.696   4.929   9.665 -1.1380  0.1881 -0.4153
 6559TIP3   OH241311   4.548   5.171   3.433  0.0487 -0.3962 -0.7242
 6559TIP3    H141312   4.502   5.133   3.508 -0.4750  2.2238  0.4106
 6559TIP3    H241313   4.630   5.123   3.428  0.4824 -0.1231  2.1333
 6560TIP3   OH241314   0.411   0.411   2.803  0.0272 -0.2524 -0.2069
 6560TIP3    H141315   0.364   0.433   2.883  0.0438  1.0987 -0.5329
 6560TIP3    H241316   0.482   0.475   2.799 -0.4749  0.2563 -1.7035
 6561TIP3   OH241317   5.896   1.518   9.873 -0.1023  0.2502 -0.3206
 6561TIP3    H141318   5.922   1.435   9.833 -0.4715  0.1837 -0.4314
 6561TIP3    H241319   5.829   1.553   9.813 -0.4808  0.2713  0.1089
 6562TIP3   OH241320   0.478   1.417   1.666 -0.0216 -0.5799  0.1417
 6562TIP3    H141321   0.463   1.471   1.744 -1.8991 -1.2162  0.2640
 6562TIP3    H241322   0.561   1.450   1.631 -1.0020  2.3451  0.2678
 6563TIP3   OH241323   3.668   0.508   2.259 -0.2770 -0.6997 -0.4822
 6563TIP3    H141324   3.755   0.499   2.298  0.2832 -0.6865 -1.6679
 6563TIP3    H241325   3.685   0.512   2.164 -1.4031  1.2044 -0.6585
 6564TIP3   OH241326   3.767   5.319   9.381  0.2643  1.3899 -0.2330
 6564TIP3    H141327   3.800   5.233   9.352 -2.6634 -0.4566  1.4153
 6564TIP3    H241328   3.697   5.340   9.320 -1.4663  0.7319  1.4282
 6565TIP3   OH241329   4.852   3.418   0.501  0.4788  0.2789  0.2936
 6565TIP3    H141330   4.800   3.484   0.456  0.9145 -0.6662 -1.7291
 6565TIP3    H241331   4.943   3.444   0.484  0.7335 -1.8893 -2.4811
 6566TIP3   OH241332   5.213   0.356   1.099 -0.3767  0.3105  0.5195
 6566TIP3    H141333   5.251   0.421   1.158 -2.0026  0.1921  1.7713
 6566TIP3    H241334   5.250   0.378   1.013  1.0418  1.3096  1.3292
 6567TIP3   OH241335   2.424   4.551   3.374 -0.2552 -0.0856  0.9923
 6567TIP3    H141336   2.419   4.474   3.317 -1.4844  0.5724  0.1821
 6567TIP3    H241337   2.419   4.515   3.462 -1.2277 -0.9211  0.6197
 6568TIP3   OH241338   5.210   5.750   2.150 -0.0734 -0.0679 -0.2347
 6568TIP3    H141339   5.203   5.785   2.239 -1.5950  0.9014 -0.6728
 6568TIP3    H241340   5.133   5.694   2.141 -0.3908  0.5043 -1.1939
 6569TIP3   OH241341   1.385   0.797   7.486 -0.1354  0.2934 -0.1331
 6569TIP3    H141342   1.372   0.709   7.522  0.2604 -0.2654 -1.3081
 6569TIP3    H241343   1.464   0.829   7.528 -2.3029  1.7238  3.3021
 6570TIP3   OH241344   0.003   2.832   8.736  0.0309  1.1320  0.1851
 6570TIP3    H141345   0.027   2.912   8.690 -0.5939  1.4521  0.3991
 6570TIP3    H241346  -0.047   2.862   8.812  0.0389  0.5533  0.4255
 6571TIP3   OH241347   5.761   0.287   2.626  0.1810 -0.2263 -0.1796
 6571TIP3    H141348   5.721   0.316   2.544 -1.0041  1.2475  0.8614
 6571TIP3    H241349   5.851   0.321   2.622  0.3851 -0.8565 -1.1888
 6572TIP3   OH241350   2.736   0.927   9.599 -0.6563 -0.1827  0.5032
 6572TIP3    H141351   2.693   0.984   9.662  0.4371  0.7826  0.4221
 6572TIP3    H241352   2.822   0.967   9.586 -0.4511 -0.9764 -0.7611
 6573TIP3   OH241353   1.716   5.377   9.697 -0.5408  0.1425  0.5498
 6573TIP3    H141354   1.677   5.401   9.781  4.0527  2.5681  2.3842
 6573TIP3    H241355   1.763   5.456   9.670  0.3083 -1.4037 -3.0183
 6574TIP3   OH241356   6.037   0.253   9.059 -0.3307 -0.5925  0.7458
 6574TIP3    H141357   6.050   0.171   9.011  0.6236 -0.2980  0.4875
 6574TIP3    H241358   5.945   0.249   9.088 -0.8403 -0.9354 -0.8085
 6575TIP3   OH241359   3.566   4.595   8.374 -0.1276 -0.5812  0.0552
 6575TIP3    H141360   3.612   4.679   8.381 -1.6798  0.2400  0.9542
 6575TIP3    H241361   3.634   4.530   8.390  1.0653  0.5095 -0.3607
 6576TIP3   OH241362   4.975   0.347   3.182 -0.2837  0.7499 -0.3491
 6576TIP3    H141363   5.060   0.361   3.140  0.2913 -0.2755  0.4427
 6576TIP3    H241364   4.926   0.427   3.162  0.8923  1.4054 -0.7380
 6577TIP3   OH241365   0.516   3.568   8.976 -0.1552 -0.1127 -0.6208
 6577TIP3    H141366   0.441   3.624   9.000 -0.2543 -0.2136 -0.6910
 6577TIP3    H241367   0.558   3.614   8.903 -1.4393 -1.1113 -2.0723
 6578TIP3   OH241368   0.353   5.168   2.583  0.4281 -0.6024 -0.2229
 6578TIP3    H141369   0.367   5.262   2.568 -0.1862 -0.4295  0.2469
 6578TIP3    H241370   0.357   5.157   2.678 -0.4997 -0.8760 -0.2042
 6579TIP3   OH241371   2.633   2.081   2.130  0.0868 -0.5917 -0.5184
 6579TIP3    H141372   2.726   2.069   2.112  0.0617 -0.1197 -0.9868
 6579TIP3    H241373   2.595   1.993   2.121  0.2221 -0.5346 -1.9597
 6580TIP3   OH241374   2.978   3.064   2.192  0.3910  0.5441  0.2649
 6580TIP3    H141375   3.027   3.141   2.163 -1.7262  2.8739  2.3247
 6580TIP3    H241376   2.985   3.065   2.287 -1.1294 -0.8063  0.4389
 6581TIP3   OH241377   4.256   0.671   1.526  0.4610  0.1247  0.3752
 6581TIP3    H141378   4.183   0.724   1.493 -1.0538 -0.4322  2.5742
 6581TIP3    H241379   4.290   0.722   1.600  3.3585  1.0688 -1.4330
 6582TIP3   OH241380   5.410   3.366   2.442 -0.2635  0.3641  0.3954
 6582TIP3    H141381   5.353   3.349   2.518 -0.4033 -0.4068  0.1297
 6582TIP3    H241382   5.440   3.456   2.455  0.6888 -0.1388  2.0117
 6583TIP3   OH241383   0.169   1.912   1.616  0.1488 -0.2557 -0.4010
 6583TIP3    H141384   0.099   1.931   1.678 -0.9653 -1.1169 -1.3644
 6583TIP3    H241385   0.210   1.833   1.649  0.2533 -0.1125 -0.1868
 6584TIP3   OH241386   1.048   1.626   1.903 -0.0278 -0.1972 -0.2413
 6584TIP3    H141387   1.128   1.659   1.862  0.2654 -2.0008 -1.2493
 6584TIP3    H241388   1.079   1.583   1.983 -0.3557  1.4923  0.8373
 6585TIP3   OH241389   1.499   0.588   0.268  0.6019 -0.7171 -0.5290
 6585TIP3    H141390   1.575   0.623   0.223 -1.2937  2.8114 -1.3172
 6585TIP3    H241391   1.457   0.531   0.204  0.3102  0.7613 -1.6947
 6586TIP3   OH241392   1.048   2.148   1.141 -0.2994  0.2679  0.2036
 6586TIP3    H141393   0.983   2.118   1.077 -0.5298  0.4897  0.3316
 6586TIP3    H241394   1.011   2.229   1.177 -0.1654  0.1516  0.6081
 6587TIP3   OH241395   4.879   0.799   9.005 -0.3322 -0.4602 -0.0848
 6587TIP3    H141396   4.850   0.875   8.955 -1.1547 -0.2201  0.7234
 6587TIP3    H241397   4.812   0.788   9.073  1.4625  0.1518  1.9147
 6588TIP3   OH241398   5.759   3.200   2.062 -0.0574  0.1309 -0.0379
 6588TIP3    H141399   5.757   3.158   2.148  0.1214  1.4112  0.6107
 6588TIP3    H241400   5.758   3.127   2.000 -3.0379 -0.8087  0.9573
 6589TIP3   OH241401   5.441   2.951   1.449  0.8200  0.0960  0.2128
 6589TIP3    H141402   5.495   3.030   1.453  1.9001 -0.5487 -0.9883
 6589TIP3    H241403   5.477   2.901   1.376 -0.6897 -0.8981  0.1101
 6590TIP3   OH241404   3.696   4.929   0.342 -0.4348 -0.3343 -0.4542
 6590TIP3    H141405   3.632   4.934   0.413 -0.8909 -0.7310 -0.8302
 6590TIP3    H241406   3.667   4.855   0.288 -1.1163  1.0050 -2.0349
 6591TIP3   OH241407   2.442   5.677   0.836 -0.7358 -0.4582  0.2422
 6591TIP3    H141408   2.445   5.603   0.896  0.3952 -0.1159  0.6323
 6591TIP3    H241409   2.517   5.665   0.778 -0.3530  0.5462  0.5149
 6592TIP3   OH241410   1.177   5.083   2.016  0.1930  0.2511 -0.4435
 6592TIP3    H141411   1.144   5.071   2.105  1.7622  1.4356  0.3526
 6592TIP3    H241412   1.179   4.994   1.979  0.6107 -0.4307  1.1208
 6593TIP3   OH241413   5.085   4.566   3.310 -0.6070  0.0731  0.4114
 6593TIP3    H141414   5.140   4.586   3.385 -0.2415  1.1173 -0.1184
 6593TIP3    H241415   5.108   4.477   3.286  1.6721  0.8363 -0.4639
 6594TIP3   OH241416   5.268   1.651   8.341 -0.1123  0.2234 -0.4664
 6594TIP3    H141417   5.174   1.666   8.347 -0.4525 -1.4239 -1.0747
 6594TIP3    H241418   5.301   1.719   8.283 -0.9487  0.7233 -0.3589
 6595TIP3   OH241419   0.559   1.831   2.368 -0.5766 -0.0640 -0.1801
 6595TIP3    H141420   0.575   1.888   2.443  0.2400 -0.6949  0.1474
 6595TIP3    H241421   0.497   1.766   2.401 -2.2332  1.1424 -0.8241
 6596TIP3   OH241422   3.161   2.853   3.163  0.5249 -0.0399  0.2072
 6596TIP3    H141423   3.078   2.901   3.170  0.6117  0.2050 -0.3688
 6596TIP3    H241424   3.143   2.768   3.203 -0.0479 -0.0384 -0.0346
 6597TIP3   OH241425   1.869   1.945   8.457  0.7964 -0.0639  0.1111
 6597TIP3    H141426   1.922   2.019   8.487  2.0241 -0.8755  0.0208
 6597TIP3    H241427   1.786   1.955   8.504  0.5030  1.9718 -0.7268
 6598TIP3   OH241428   0.755   5.593   9.838 -0.1800  0.2110 -0.7109
 6598TIP3    H141429   0.818   5.600   9.909  0.2339  0.9090 -1.1307
 6598TIP3    H241430   0.676   5.559   9.879  0.6465 -1.2780 -0.2956
 6599TIP3   OH241431   3.102   4.022   2.548  0.4320 -0.4906  0.3374
 6599TIP3    H141432   3.024   4.008   2.496  1.5791 -1.5074 -1.1781
 6599TIP3    H241433   3.114   4.117   2.548 -0.0592 -0.4219 -0.5374
 6600TIP3   OH241434   0.611   3.326   2.703  0.4798  0.0414 -0.2331
 6600TIP3    H141435   0.520   3.311   2.729  0.4862 -1.6119 -1.0097
 6600TIP3    H241436   0.646   3.383   2.771 -1.3490  1.4071 -0.3629
 6601TIP3   OH241437   5.932   1.491   8.897 -0.0475  0.6756 -0.4891
 6601TIP3    H141438   5.917   1.436   8.820 -0.7981  1.3699 -0.8602
 6601TIP3    H241439   5.940   1.430   8.970 -0.4436  0.0621 -0.9534
 6602TIP3   OH241440   0.510   2.087   8.639  0.6184  0.2485 -0.6611
 6602TIP3    H141441   0.473   2.091   8.551  0.1558  0.5910 -0.4499
 6602TIP3    H241442   0.564   2.007   8.638 -1.1946 -1.0313 -0.5519
 6603TIP3   OH241443   0.840   3.696   9.887  0.7297  0.2266  0.0071
 6603TIP3    H141444   0.841   3.608   9.851  1.9665 -0.0566  0.6627
 6603TIP3    H241445   0.890   3.748   9.825  1.7087  0.0232  0.6008
 6604TIP3   OH241446   5.247   1.017   9.774  0.2163 -0.1819 -0.2559
 6604TIP3    H141447   5.242   1.107   9.806 -0.3031 -0.3411  0.1194
 6604TIP3    H241448   5.156   0.993   9.754  0.1740 -1.0609  0.8730
 6605TIP3   OH241449   0.705   1.383   9.890  0.2861 -1.0064 -0.0949
 6605TIP3    H141450   0.648   1.413   9.961  1.7264  2.4624 -0.2226
 6605TIP3    H241451   0.671   1.427   9.812  1.7446 -0.7214 -0.5855
 6606TIP3   OH241452   3.162   4.150   0.461 -0.6188  0.1075  0.2174
 6606TIP3    H141453   3.139   4.224   0.404 -1.1792  0.3267  0.7174
 6606TIP3    H241454   3.079   4.106   0.478 -0.6334  0.6731  1.7273
 6607TIP3   OH241455   1.642   4.595   8.809 -0.8081  0.7596 -0.1477
 6607TIP3    H141456   1.577   4.526   8.825 -0.3641 -0.0948 -1.8227
 6607TIP3    H241457   1.720   4.566   8.856 -0.7680  0.3508 -0.4622
 6608TIP3   OH241458   1.420   2.624   1.707 -0.5711 -0.2607  0.0643
 6608TIP3    H141459   1.366   2.551   1.677  0.2649 -1.5513  1.5568
 6608TIP3    H241460   1.379   2.653   1.788 -0.7395  0.7823 -0.3757
 6609TIP3   OH241461   4.880   2.644   9.508 -0.2876  0.3865  0.0991
 6609TIP3    H141462   4.831   2.613   9.584  1.1019  0.1867  0.9275
 6609TIP3    H241463   4.854   2.736   9.500 -1.2791  0.1287  0.1182
 6610TIP3   OH241464   3.047   0.406   9.238 -0.0966  0.5537  0.0923
 6610TIP3    H141465   2.987   0.342   9.277  0.4943 -0.1046 -0.0567
 6610TIP3    H241466   2.989   0.470   9.197 -0.7077  0.0108  0.0747
 6611TIP3   OH241467   6.186   5.769   0.085 -0.0947  0.0316 -0.3112
 6611TIP3    H141468   6.231   5.749   0.167  1.0854 -1.2213 -1.2191
 6611TIP3    H241469   6.239   5.838   0.045  0.2648 -0.5064 -0.7688
 6612TIP3   OH241470   0.765   4.172   7.801  0.0200  0.1195  0.0120
 6612TIP3    H141471   0.818   4.097   7.830 -0.3853  0.4513  1.7435
 6612TIP3    H241472   0.675   4.147   7.822 -0.1103  1.1067  0.7059
 6613TIP3   OH241473   3.859   5.330   1.697  1.1778 -0.6272 -0.1334
 6613TIP3    H141474   3.838   5.289   1.781 -0.3324  0.9791  0.3232
 6613TIP3    H241475   3.943   5.373   1.712  0.9936 -0.4759  0.5136
 6614TIP3   OH241476   5.597   1.458   8.564 -0.0064  0.0453 -0.0533
 6614TIP3    H141477   5.603   1.530   8.501  2.1205  0.2724  0.3493
 6614TIP3    H241478   5.547   1.390   8.518 -2.2974  1.8192 -0.3453
 6615TIP3   OH241479   3.977   5.405   9.784 -0.0181  0.1229  0.7522
 6615TIP3    H141480   4.021   5.414   9.699  0.0419 -1.4895  0.5739
 6615TIP3    H241481   3.891   5.369   9.762 -0.9115  1.8809  1.2158
 6616TIP3   OH241482   1.362   3.586   0.138 -0.1571 -0.0329  0.1729
 6616TIP3    H141483   1.401   3.668   0.168  0.4884 -1.2071  2.7960
 6616TIP3    H241484   1.390   3.521   0.202 -2.7373 -1.8377 -0.3773
 6617TIP3   OH241485   5.394   5.695   1.747 -0.4635 -0.4183 -0.5234
 6617TIP3    H141486   5.420   5.754   1.676  0.2109  0.3145  0.3133
 6617TIP3    H241487   5.422   5.608   1.717 -1.1042 -0.2705 -1.5899
 6618TIP3   OH241488   5.065   2.734   9.723 -0.1678  0.3914 -0.2666
 6618TIP3    H141489   5.064   2.829   9.711 -0.8501  0.6881  1.7668
 6618TIP3    H241490   4.993   2.702   9.669 -0.8331  1.2089  0.1135
 6619TIP3   OH241491   2.112   0.765   1.815 -0.1557 -0.5021 -0.4925
 6619TIP3    H141492   2.089   0.675   1.791 -1.4119 -1.1792  2.7526
 6619TIP3    H241493   2.028   0.807   1.835  0.4780  1.1699 -1.0912
 6620TIP3   OH241494   2.377   2.074   9.889  0.0470 -0.2266 -0.3266
 6620TIP3    H141495   2.290   2.038   9.872 -0.0862  0.1116 -0.3778
 6620TIP3    H241496   2.424   2.063   9.807 -0.0054 -0.2476 -0.3543
 6621TIP3   OH241497   3.792   1.720   9.527  0.1268  0.1584 -0.3259
 6621TIP3    H141498   3.887   1.705   9.525  0.0097 -0.5681 -1.8637
 6621TIP3    H241499   3.756   1.641   9.568  0.2034  0.6308  0.6731
 6622TIP3   OH241500   0.179   4.099   9.771 -0.1538  0.0992  0.3273
 6622TIP3    H141501   0.257   4.081   9.823  0.0432  1.4107  0.5127
 6622TIP3    H241502   0.148   4.013   9.744  1.5042 -0.4315  0.0252
 6623TIP3   OH241503   5.370   4.241   9.788  0.0059  0.0701 -0.1240
 6623TIP3    H141504   5.371   4.331   9.820  0.5678  0.3162 -0.8127
 6623TIP3    H241505   5.289   4.235   9.737 -1.3164 -0.5580  1.9139
 6624TIP3   OH241506   3.652   3.944   1.251  0.4492 -0.0746 -0.2050
 6624TIP3    H141507   3.612   3.863   1.285 -0.0648  0.2678  0.0228
 6624TIP3    H241508   3.681   3.921   1.163 -1.8620  0.1351 -1.0899
 6625TIP3   OH241509   4.568   5.553   1.686  0.0503 -0.1430 -0.2596
 6625TIP3    H141510   4.647   5.499   1.685  0.4170  0.3773  0.1043
 6625TIP3    H241511   4.509   5.510   1.623  0.8241 -0.2237 -0.9474
 6626TIP3   OH241512   0.820   5.601   1.491 -0.6549  0.6487  0.4253
 6626TIP3    H141513   0.897   5.589   1.546 -1.2547  1.0392  1.3827
 6626TIP3    H241514   0.747   5.606   1.552 -1.9014 -2.7065 -0.5711
 6627TIP3   OH241515   0.398   4.424   8.883  0.1819 -0.0668  0.2626
 6627TIP3    H141516   0.486   4.404   8.850  0.4088 -0.6627  1.2033
 6627TIP3    H241517   0.403   4.515   8.912  0.3234  0.0757 -0.1910
 6628TIP3   OH241518   3.563   4.673   2.752  0.7925  1.0513 -0.2184
 6628TIP3    H141519   3.597   4.589   2.724 -0.1067  0.5506  0.1461
 6628TIP3    H241520   3.473   4.655   2.779  1.0783  1.7999  1.3992
 6629TIP3   OH241521   6.390   4.205   8.044 -0.1363 -0.1673 -0.0842
 6629TIP3    H141522   6.416   4.124   8.002 -0.6833 -1.4732  1.9418
 6629TIP3    H241523   6.469   4.260   8.042  0.1194 -0.5535 -1.8337
 6630TIP3   OH241524   5.182   3.272   0.042  0.1920  0.3525 -0.0278
 6630TIP3    H141525   5.111   3.332   0.019  0.0320  0.3643  0.4891
 6630TIP3    H241526   5.260   3.312   0.004  0.1272  1.0241  0.5304
 6631TIP3   OH241527   2.093   2.564   8.718  0.3465  0.1102  0.1965
 6631TIP3    H141528   2.162   2.499   8.700 -0.0072  0.2051 -1.7740
 6631TIP3    H241529   2.014   2.511   8.729  0.5485  0.0585  1.5634
 6632TIP3   OH241530   1.817   2.547   8.861 -0.8323 -0.5313  0.4302
 6632TIP3    H141531   1.764   2.533   8.939  0.9520  0.9592  2.0254
 6632TIP3    H241532   1.905   2.519   8.887 -0.1142  0.3735 -0.9031
 6633TIP3   OH241533   2.363   0.383   0.489 -0.2673  0.1877 -0.5386
 6633TIP3    H141534   2.397   0.338   0.411  0.1472 -1.0942  0.3381
 6633TIP3    H241535   2.276   0.346   0.501  0.7773 -1.9295  1.2764
 6634TIP3   OH241536   3.146   3.008   1.353  0.1479 -0.4121  0.3603
 6634TIP3    H141537   3.138   3.083   1.295 -0.4624  0.2102  1.2177
 6634TIP3    H241538   3.122   3.042   1.440  1.1520 -1.2795  1.0078
 6635TIP3   OH241539   5.615   6.349   3.108  0.1653 -0.3939  0.2326
 6635TIP3    H141540   5.574   6.338   3.194 -0.9970 -3.7871 -0.5838
 6635TIP3    H241541   5.564   6.417   3.065 -1.2588 -0.8275  1.1525
 6636TIP3   OH241542   5.727   3.890   1.163  0.2450 -0.0458 -0.1852
 6636TIP3    H141543   5.774   3.904   1.244 -1.2313  0.3900  0.6385
 6636TIP3    H241544   5.709   3.978   1.129  1.6403 -0.2264 -1.4928
 6637TIP3   OH241545   0.669   6.171   6.916  0.1805 -0.6009  0.3111
 6637TIP3    H141546   0.603   6.164   6.848 -1.1838  0.2935  1.4848
 6637TIP3    H241547   0.704   6.082   6.924  0.3065 -0.7463 -1.4442
 6638TIP3   OH241548   6.261   4.717   9.187  0.2623 -0.4316 -0.1905
 6638TIP3    H141549   6.331   4.782   9.190 -0.7595  0.6701  2.1967
 6638TIP3    H241550   6.302   4.636   9.218  0.6345  0.0185  0.5003
 6639TIP3   OH241551   1.363   2.673   0.351 -0.3162  0.4163 -0.3117
 6639TIP3    H141552   1.421   2.651   0.425 -1.2746  0.2363  0.4000
 6639TIP3    H241553   1.297   2.731   0.389 -1.9449 -1.2037 -0.5602
 6640TIP3   OH241554   4.824   4.355   0.207 -0.0072  0.3532 -0.2834
 6640TIP3    H141555   4.852   4.400   0.288  2.1435  0.4474 -1.0062
 6640TIP3    H241556   4.766   4.418   0.164  0.1624  1.0021  0.4071
 6641TIP3   OH241557   4.955   1.631   8.840  0.1424  0.3633  0.7857
 6641TIP3    H141558   5.032   1.613   8.786 -0.9315 -0.7038 -0.4414
 6641TIP3    H241559   4.919   1.544   8.861 -0.0530  0.7955  2.3713
 6642TIP3   OH241560   1.919   0.383   0.568 -0.2846  0.1491 -0.5347
 6642TIP3    H141561   1.883   0.336   0.644  0.5900  1.2645  0.6096
 6642TIP3    H241562   1.856   0.454   0.552  0.7274  1.3754  0.7115
 6643TIP3   OH241563   2.518   6.157   0.881  0.1286  0.0131 -0.3317
 6643TIP3    H141564   2.458   6.230   0.895 -0.0171 -0.1353 -0.1647
 6643TIP3    H241565   2.468   6.080   0.910 -0.2629 -0.3492 -1.8738
 6644TIP3   OH241566   2.940   3.532   0.022 -0.0578 -0.0865 -0.7390
 6644TIP3    H141567   3.026   3.560  -0.009 -0.4311  2.0708 -0.0044
 6644TIP3    H241568   2.959   3.468   0.091  0.8614 -1.1754 -1.9547
 6645TIP3   OH241569   2.861   2.030   1.458 -0.2984 -0.0886 -0.2706
 6645TIP3    H141570   2.935   2.085   1.487 -1.1558  1.0789 -0.2049
 6645TIP3    H241571   2.873   1.947   1.504  0.7671  0.2082  0.0260
 6646TIP3   OH241572   5.017   2.808   3.095 -0.1143  0.0949  0.7748
 6646TIP3    H141573   4.996   2.812   3.188  2.3980 -0.4860  1.4415
 6646TIP3    H241574   5.088   2.744   3.089 -0.4275 -0.1201 -1.6014
 6647TIP3   OH241575   0.837   4.536   0.212  0.2728  0.1647 -0.2092
 6647TIP3    H141576   0.866   4.569   0.297 -0.9512  0.1761  0.2135
 6647TIP3    H241577   0.787   4.608   0.174  0.8825  0.1941 -0.9988
 6648TIP3   OH241578   6.177   5.831   0.732 -0.6105 -0.0618  0.0858
 6648TIP3    H141579   6.102   5.789   0.773  1.3068 -1.6182  2.2487
 6648TIP3    H241580   6.190   5.911   0.782 -0.5103 -0.0700  0.0724
 6649TIP3   OH241581   2.877   4.761   9.242 -0.2102  0.3920 -0.2159
 6649TIP3    H141582   2.952   4.707   9.217  0.4174  0.8351  0.6451
 6649TIP3    H241583   2.832   4.710   9.309  0.0937  0.7016  0.2304
 6650TIP3   OH241584   5.945   5.160   9.584  0.0166 -0.6402 -0.0395
 6650TIP3    H141585   6.036   5.189   9.576  0.0053  0.7048  3.2165
 6650TIP3    H241586   5.893   5.239   9.569 -0.4267 -0.6612  1.2668
 6651TIP3   OH241587   2.204   1.491   2.111 -0.1923  0.0581 -0.5965
 6651TIP3    H141588   2.292   1.455   2.115  0.6103  1.9609  0.3031
 6651TIP3    H241589   2.185   1.520   2.201 -1.7316 -0.2928 -0.7736
 6652TIP3   OH241590   5.341   4.544   0.602 -0.0871  0.2495  0.0914
 6652TIP3    H141591   5.402   4.541   0.528  0.3212 -1.1209  0.4520
 6652TIP3    H241592   5.264   4.588   0.567  0.8865  1.5393 -0.5275
 6653TIP3   OH241593   0.682   0.527   0.166  0.2636 -0.5637 -0.1032
 6653TIP3    H141594   0.697   0.544   0.073  2.0515 -0.1182  0.2170
 6653TIP3    H241595   0.701   0.433   0.176  0.7257 -0.4687 -0.0775
 6654TIP3   OH241596   5.697   3.649   1.024 -0.0145  0.0733  0.8524
 6654TIP3    H141597   5.693   3.578   1.088  1.1054 -0.4434  0.3709
 6654TIP3    H241598   5.682   3.728   1.076 -0.0326 -0.4099  1.6006
 6655TIP3   OH241599   5.342   1.930   1.608 -0.1693  0.3382  0.1978
 6655TIP3    H141600   5.286   1.854   1.599 -0.5144  0.4098  1.5633
 6655TIP3    H241601   5.417   1.899   1.659 -0.4947  0.9754  1.0994
 6656TIP3   OH241602   1.561   5.379   9.955 -0.1918 -0.4352 -0.2313
 6656TIP3    H141603   1.473   5.349   9.934  0.3168 -1.2383 -1.2990
 6656TIP3    H241604   1.560   5.391  10.050 -1.4764 -0.3070 -0.2436
 6657TIP3   OH241605   5.639   2.486   8.612 -0.5389 -0.0757 -0.0180
 6657TIP3    H141606   5.725   2.477   8.571 -1.1157 -3.0712 -0.8298
 6657TIP3    H241607   5.578   2.493   8.539 -1.0513  2.2238  0.5569
 6658TIP3   OH241608   4.592   3.927   0.788  0.0902  0.5541 -0.4697
 6658TIP3    H141609   4.623   3.861   0.726 -0.3413  0.6232 -0.7606
 6658TIP3    H241610   4.605   4.010   0.742 -0.6790  0.5731 -0.6586
 6659TIP3   OH241611   2.264   5.440   2.212  0.0767  0.1533  0.5809
 6659TIP3    H141612   2.226   5.468   2.128  1.1004  0.6993  0.2713
 6659TIP3    H241613   2.230   5.352   2.226  0.0489 -0.0291 -0.5224
 6660TIP3   OH241614   3.173   0.553   1.586  0.1401 -0.7849 -0.0157
 6660TIP3    H141615   3.221   0.572   1.667  1.0398  0.9568 -0.9054
 6660TIP3    H241616   3.089   0.519   1.616  0.2238  0.3414  1.6724
 6661TIP3   OH241617   1.161   2.396   2.493  0.6189  0.5588 -0.0030
 6661TIP3    H141618   1.199   2.334   2.431  1.0967  1.1326 -0.2922
 6661TIP3    H241619   1.221   2.394   2.568 -0.2593 -0.5616  0.7150
 6662TIP3   OH241620   0.456   0.161   8.567 -0.6600  0.5837 -0.3637
 6662TIP3    H141621   0.449   0.151   8.662  0.4781 -0.3835 -0.3515
 6662TIP3    H241622   0.530   0.221   8.554 -0.7346  0.6212 -0.6284
 6663TIP3   OH241623   5.493   1.250   8.063 -0.1839 -0.7808  0.7337
 6663TIP3    H141624   5.500   1.311   7.990 -2.6641 -0.3023  0.7923
 6663TIP3    H241625   5.438   1.296   8.127  1.1919 -1.5218  2.5534
 6664TIP3   OH241626   4.092   0.559   9.516  0.0434 -0.2135  0.2784
 6664TIP3    H141627   4.076   0.642   9.472 -0.2002 -0.8065 -0.7985
 6664TIP3    H241628   4.185   0.561   9.539  0.6646 -0.6489 -1.9876
 6665TIP3   OH241629   3.981   2.195  10.013 -0.6622 -0.5677 -0.0425
 6665TIP3    H141630   3.965   2.176  10.105 -0.2265 -1.7394 -0.1998
 6665TIP3    H241631   3.979   2.291  10.008  2.5442 -0.2348  1.8127
 6666TIP3   OH241632   2.719   5.749   1.020  0.1162  0.3979  0.6799
 6666TIP3    H141633   2.704   5.658   0.996  0.5289  0.4140  0.3352
 6666TIP3    H241634   2.655   5.767   1.088  2.1356 -1.1023  3.1376
 6667TIP3   OH241635   5.362   0.426   0.857  0.0413 -0.0045  0.1777
 6667TIP3    H141636   5.407   0.377   0.788  0.1210  0.2153  0.0726
 6667TIP3    H241637   5.404   0.512   0.856 -1.6586  0.8462 -1.1861
 6668TIP3   OH241638   1.618   6.351   1.139  0.2215 -0.0176 -0.3450
 6668TIP3    H141639   1.637   6.389   1.053 -2.3123  0.9456 -0.5564
 6668TIP3    H241640   1.578   6.267   1.119  0.5804 -0.2636 -0.0454
 6669TIP3   OH241641   1.758   4.694   0.757  0.2125 -0.1549 -0.2958
 6669TIP3    H141642   1.789   4.631   0.823  0.0269 -0.1399 -0.1942
 6669TIP3    H241643   1.823   4.764   0.759 -0.8161  0.8228  1.2975
 6670TIP3   OH241644   3.139   4.278   2.624  0.3352 -0.5521 -0.2346
 6670TIP3    H141645   3.225   4.269   2.665 -0.1771  0.6124  1.1610
 6670TIP3    H241646   3.123   4.372   2.624 -1.6352 -0.8418  1.0553
 6671TIP3   OH241647   1.473   2.899   3.022 -0.2937  0.0173 -0.2841
 6671TIP3    H141648   1.504   2.828   2.966 -1.1509 -0.6336  0.0435
 6671TIP3    H241649   1.399   2.936   2.974 -0.8294 -0.3367  0.2568
 6672TIP3   OH241650   0.899   4.240   1.752 -0.2619 -0.2661 -0.5684
 6672TIP3    H141651   0.963   4.177   1.786  3.2617  2.6774 -1.0994
 6672TIP3    H241652   0.872   4.204   1.668  0.0387 -1.9735  0.0137
 6673TIP3   OH241653   1.163   0.328   7.662 -0.4095  0.0937 -0.3227
 6673TIP3    H141654   1.216   0.342   7.740 -0.5847 -1.0949  0.0323
 6673TIP3    H241655   1.079   0.370   7.681 -0.4455 -0.1787  0.1271
 6674TIP3   OH241656   3.670   2.380   0.068 -0.1435  0.1611 -0.1522
 6674TIP3    H141657   3.598   2.371   0.006  0.8371  1.9802 -1.6666
 6674TIP3    H241658   3.749   2.364   0.015  0.6297 -1.9840  1.4908
 6675TIP3   OH241659   3.176   0.768   0.602  0.2046  0.0472  0.4604
 6675TIP3    H141660   3.177   0.711   0.680  0.3440  1.9589  1.9414
 6675TIP3    H241661   3.232   0.842   0.626  0.5571  0.5192 -1.6423
 6676TIP3   OH241662   5.498   1.353   0.558  0.0229 -0.1342 -0.2719
 6676TIP3    H141663   5.479   1.259   0.560  0.5269 -0.2305  0.8414
 6676TIP3    H241664   5.452   1.388   0.634  0.2681  0.4332 -0.3808
 6677TIP3   OH241665   4.828   0.923   9.354 -0.3356  0.6478  0.5514
 6677TIP3    H141666   4.795   0.957   9.271 -0.8002  0.2724  0.5832
 6677TIP3    H241667   4.783   0.840   9.367  1.5365 -0.5295 -0.0278
 6678TIP3   OH241668   3.111   3.761   9.704  0.0218 -0.2864  0.1315
 6678TIP3    H141669   3.091   3.817   9.630 -2.0276  0.2443  1.0208
 6678TIP3    H241670   3.040   3.697   9.706  0.4220 -0.7261  1.2212
 6679TIP3   OH241671   1.281   0.236   7.191 -0.2156 -0.2859  0.0617
 6679TIP3    H141672   1.315   0.315   7.233 -2.3629  1.3796 -1.1214
 6679TIP3    H241673   1.296   0.250   7.097 -2.1331 -0.4121 -0.3149
 6680TIP3   OH241674   5.656   3.126   1.454 -0.0806 -0.4202 -0.1854
 6680TIP3    H141675   5.652   3.203   1.511 -0.0484 -1.4711  1.2887
 6680TIP3    H241676   5.741   3.087   1.473 -0.9917 -2.0337  0.7531
 6681TIP3   OH241677   4.140   3.398   1.298  0.0119  0.4470 -0.0618
 6681TIP3    H141678   4.170   3.466   1.358 -2.2019  0.4142  1.1737
 6681TIP3    H241679   4.136   3.319   1.352 -1.1492  0.2175 -0.4529
 6682TIP3   OH241680   5.266   3.451   3.079 -0.4252  0.2292  0.0731
 6682TIP3    H141681   5.319   3.386   3.124  1.0667 -0.2175 -2.2058
 6682TIP3    H241682   5.329   3.516   3.047 -1.0500 -0.6680 -3.3088
 6683TIP3   OH241683   3.127   2.642   8.043 -0.0234  0.2528 -0.1440
 6683TIP3    H141684   3.197   2.591   8.084 -0.0470  0.5931  0.3252
 6683TIP3    H241685   3.056   2.579   8.030  0.5907 -0.2407 -1.2005
 6684TIP3   OH241686   3.263   0.651   9.974 -0.1479 -0.3142 -0.3704
 6684TIP3    H141687   3.280   0.619   9.885 -0.0766 -0.1985 -0.3982
 6684TIP3    H241688   3.208   0.583  10.013  0.4769 -0.7484 -0.2408
 6685TIP3   OH241689   4.278   1.664   8.065 -0.3144  0.0839 -0.7618
 6685TIP3    H141690   4.205   1.724   8.080  0.7949  0.8303  2.2862
 6685TIP3    H241691   4.357   1.719   8.075  0.7058 -1.5300  0.5165
 6686TIP3   OH241692   4.473   1.136   0.816  0.4391  0.2335  0.4655
 6686TIP3    H141693   4.502   1.046   0.833 -0.5781 -0.3123 -0.5217
 6686TIP3    H241694   4.411   1.155   0.886 -0.8451 -0.5902 -0.4076
 6687TIP3   OH241695   6.157   2.548   9.330 -0.1078 -0.2294  0.0958
 6687TIP3    H141696   6.152   2.644   9.320  0.6914 -0.2828 -0.9984
 6687TIP3    H241697   6.187   2.517   9.245 -0.9624 -1.5252  0.2358
 6688TIP3   OH241698   4.913   2.357   1.130 -0.1044 -0.5050 -0.3383
 6688TIP3    H141699   4.903   2.304   1.051 -2.6178  1.0934 -1.2495
 6688TIP3    H241700   4.830   2.345   1.177  0.6924 -0.1258  1.2412
 6689TIP3   OH241701   5.487   2.975   9.409  0.6223  0.0920  0.1393
 6689TIP3    H141702   5.415   2.927   9.367  1.4205  0.0333 -1.2053
 6689TIP3    H241703   5.530   2.910   9.464  1.6797 -0.7779 -1.6486
 6690TIP3   OH241704   3.979   2.853   1.980  0.3990 -0.8818 -0.1428
 6690TIP3    H141705   4.013   2.767   1.958  2.5053  0.0016 -0.5496
 6690TIP3    H241706   4.014   2.872   2.067  2.7792  0.8761 -1.3819
 6691TIP3   OH241707   5.413   1.524   3.141  0.6341  0.5331 -0.1218
 6691TIP3    H141708   5.486   1.495   3.086  0.8648  0.2230  0.3535
 6691TIP3    H241709   5.348   1.454   3.134  0.5651  0.6032 -0.1867
 6692TIP3   OH241710   6.303   6.315   8.406 -0.2119 -0.0304  0.2887
 6692TIP3    H141711   6.302   6.229   8.449  2.8008 -0.4230 -0.2678
 6692TIP3    H241712   6.261   6.373   8.470  0.1415 -1.4220  1.8700
 6693TIP3   OH241713   3.670   3.094   1.493  0.0933 -0.2749 -0.9196
 6693TIP3    H141714   3.758   3.090   1.454  0.4936 -0.5527 -0.0263
 6693TIP3    H241715   3.623   3.022   1.452  0.8993 -1.3626 -0.0141
 6694TIP3   OH241716   6.175   0.922   9.259  0.4128  0.3277  0.5219
 6694TIP3    H141717   6.146   0.929   9.350 -0.1181 -0.6072  0.4425
 6694TIP3    H241718   6.120   0.984   9.211  1.3218  1.4964  0.9581
 6695TIP3   OH241719   5.714   5.876   2.044  0.6836 -0.0022  0.2066
 6695TIP3    H141720   5.641   5.817   2.060  0.7123  0.1194  0.8301
 6695TIP3    H241721   5.747   5.897   2.132  0.3391  1.3488  0.0280
 6696TIP3   OH241722   0.399   0.185   8.101  0.2533  0.3279 -0.0488
 6696TIP3    H141723   0.338   0.174   8.028  0.2343 -0.1651  0.0380
 6696TIP3    H241724   0.365   0.259   8.151  0.6698  1.1517 -0.9496
 6697TIP3   OH241725   3.198   4.685   1.368  0.0199 -0.3202 -0.3109
 6697TIP3    H141726   3.224   4.772   1.337 -1.2372 -0.3336 -1.5337
 6697TIP3    H241727   3.272   4.654   1.419  0.4386  1.5402  0.2773
 6698TIP3   OH241728   3.502   0.077   9.290  0.2767 -0.0407 -0.0245
 6698TIP3    H141729   3.580   0.114   9.332 -0.0792  0.2034  0.4202
 6698TIP3    H241730   3.491  -0.008   9.333 -1.4743  1.1683  2.1487
 6699TIP3   OH241731   0.254   4.840   9.461 -0.1210  0.2028 -0.2996
 6699TIP3    H141732   0.250   4.919   9.514 -1.1503  0.3093 -0.5002
 6699TIP3    H241733   0.268   4.769   9.523  0.1602  0.4784 -0.0482
 6700TIP3   OH241734   5.888   0.413   0.852 -0.0519 -0.2121 -0.3341
 6700TIP3    H141735   5.908   0.497   0.811 -0.2212  0.6036  1.1711
 6700TIP3    H241736   5.819   0.433   0.916  1.3134 -1.0468  1.5095
 6701TIP3   OH241737   3.550   3.106   9.090  0.3267  0.4165  0.4131
 6701TIP3    H141738   3.621   3.045   9.073 -0.6800 -0.7688  0.3404
 6701TIP3    H241739   3.534   3.148   9.006 -0.2613 -0.6531 -0.0265
 6702TIP3   OH241740   2.234   0.204   1.175  0.1283 -0.2876 -0.5535
 6702TIP3    H141741   2.320   0.201   1.216  1.1529 -2.2682 -2.6257
 6702TIP3    H241742   2.178   0.152   1.233  0.4994  0.3284  0.3816
 6703TIP3   OH241743   1.881   1.648   9.764  0.0447 -0.1450  0.2572
 6703TIP3    H141744   1.858   1.619   9.676  0.1201 -0.4156  0.3271
 6703TIP3    H241745   1.898   1.568   9.813 -0.4353 -0.0137  0.6414
 6704TIP3   OH241746   2.538   4.349   2.934  0.1038 -0.1503 -0.2298
 6704TIP3    H141747   2.500   4.437   2.939  0.3545 -0.0850  0.7342
 6704TIP3    H241748   2.628   4.363   2.904  0.5739  0.0640  1.2175
 6705TIP3   OH241749   4.937   5.306   2.979 -0.1015 -0.2951  0.2012
 6705TIP3    H141750   4.996   5.379   2.961 -0.8291  0.3773  0.4518
 6705TIP3    H241751   4.985   5.249   3.039 -0.1978  0.9418  1.4992
 6706TIP3   OH241752   3.161   0.170   0.702  0.2339  0.3360 -0.6676
 6706TIP3    H141753   3.200   0.083   0.712 -0.2226  0.1865 -0.1677
 6706TIP3    H241754   3.232   0.231   0.723  0.2294  0.0677  0.1298
 6707TIP3   OH241755   2.348   1.535   0.033 -0.9930  0.8081  0.0441
 6707TIP3    H141756   2.368   1.458  -0.020  0.8815  0.3506  1.3079
 6707TIP3    H241757   2.254   1.548   0.023 -1.4541 -1.9002  0.1245
 6708TIP3   OH241758   3.780   3.386   0.099  0.0442 -0.1065 -0.2037
 6708TIP3    H141759   3.737   3.458   0.052 -0.3986 -1.2460 -1.6060
 6708TIP3    H241760   3.836   3.430   0.163  0.1239  1.5066 -1.3103
 6709TIP3   OH241761   0.522   0.764   9.148 -0.0060 -0.1394  0.0206
 6709TIP3    H141762   0.557   0.853   9.159  0.0872 -0.1700 -0.0301
 6709TIP3    H241763   0.599   0.709   9.134 -0.1079 -0.1283 -0.6304
 6710TIP3   OH241764   3.022   5.096   1.480 -0.4553  0.0708  0.0267
 6710TIP3    H141765   3.043   5.025   1.541  1.6146 -1.5408 -2.3496
 6710TIP3    H241766   3.070   5.172   1.512  1.7241 -1.1173 -0.2445
 6711TIP3   OH241767   1.431   1.977   7.638 -0.8055 -0.0217 -0.1487
 6711TIP3    H141768   1.510   1.972   7.691 -0.4648  0.4125 -0.5989
 6711TIP3    H241769   1.457   1.940   7.553 -0.8192  0.9439 -0.5887
 6712TIP3   OH241770   1.712   6.309   9.559  0.0592  0.3471  0.4180
 6712TIP3    H141771   1.699   6.232   9.504  1.0496  0.9575 -0.7087
 6712TIP3    H241772   1.804   6.333   9.547 -0.2868  1.8579  0.5194
 6713TIP3   OH241773   5.191   5.235   2.802  0.4601 -0.1879 -0.4249
 6713TIP3    H141774   5.258   5.279   2.855  0.1359 -0.1806 -0.0099
 6713TIP3    H241775   5.170   5.298   2.733  0.9691 -0.2405 -0.6329
 6714TIP3   OH241776   5.120   0.177   0.380  0.0606 -0.6646 -0.0989
 6714TIP3    H141777   5.134   0.229   0.459 -1.4068  0.0254 -0.2787
 6714TIP3    H241778   5.064   0.105   0.408 -1.4904  0.2511 -0.7213
 6715TIP3   OH241779   3.417   3.282   1.255 -0.1980  0.2153  0.1795
 6715TIP3    H141780   3.452   3.199   1.222 -1.9213 -0.7424  0.6530
 6715TIP3    H241781   3.328   3.286   1.220 -0.6176  1.1924  1.3040
 6716TIP3   OH241782   2.313   0.813   7.282 -0.6802  0.0521  0.0900
 6716TIP3    H141783   2.231   0.833   7.327  0.4047  1.0247  1.7298
 6716TIP3    H241784   2.316   0.876   7.210 -1.0744  0.4437  0.4059
 6717TIP3   OH241785   0.827   5.806   0.029 -0.4495 -0.3787 -0.9473
 6717TIP3    H141786   0.749   5.860   0.042 -0.2436  0.0125 -1.3043
 6717TIP3    H241787   0.870   5.844  -0.048  0.1947 -0.4729 -0.6412
 6718TIP3   OH241788   5.054   2.539   0.574 -0.2183 -0.3823 -0.3914
 6718TIP3    H141789   5.087   2.575   0.492 -1.1924  0.6713 -0.3382
 6718TIP3    H241790   5.046   2.614   0.632 -3.0235 -0.4937 -0.5109
 6719TIP3   OH241791   4.536   5.117   0.909  0.0307 -0.1373  0.7246
 6719TIP3    H141792   4.622   5.119   0.869 -0.1549 -0.8568  0.2582
 6719TIP3    H241793   4.490   5.046   0.863 -1.2910  1.1522 -0.0427
 6720TIP3   OH241794   0.673   2.535   9.427  0.3614 -0.4238 -0.0019
 6720TIP3    H141795   0.692   2.442   9.418 -0.0594 -0.5467  0.3431
 6720TIP3    H241796   0.666   2.567   9.337  0.7230 -0.6756 -0.1229
 6721TIP3   OH241797   0.202   4.322   9.629  0.1084 -0.1340  0.3429
 6721TIP3    H141798   0.194   4.241   9.680  0.4094 -0.2194  0.2534
 6721TIP3    H241799   0.172   4.298   9.541  0.9747 -0.3638  0.0993
 6722TIP3   OH241800   0.268   2.931   9.028 -0.1152 -0.3669  0.0288
 6722TIP3    H141801   0.204   2.978   9.082 -1.1144 -0.8358 -0.6980
 6722TIP3    H241802   0.285   2.989   8.954 -1.0859 -0.9548 -0.6902
 6723TIP3   OH241803   6.028   3.318   2.159 -1.1134 -0.1681 -0.4143
 6723TIP3    H141804   5.946   3.270   2.148 -0.1669 -2.1054  0.3267
 6723TIP3    H241805   6.036   3.329   2.254 -0.8012  0.5456 -0.5181
 6724TIP3   OH241806   5.596   5.486   8.861  0.2356 -0.1399  0.1530
 6724TIP3    H141807   5.552   5.562   8.823  0.2622 -0.1831  0.0369
 6724TIP3    H241808   5.559   5.479   8.949  0.4768  0.2129  0.2854
 6725TIP3   OH241809   3.491   5.069   1.528 -0.2527  0.7585 -0.4133
 6725TIP3    H141810   3.565   5.080   1.468 -0.1701 -0.3612 -0.5388
 6725TIP3    H241811   3.497   4.978   1.557 -0.3691  1.2520  1.2210
 6726TIP3   OH241812   2.855   3.119   0.808 -0.2019 -0.2981  0.3238
 6726TIP3    H141813   2.864   3.043   0.751 -0.0280  0.1962 -0.3245
 6726TIP3    H241814   2.944   3.140   0.834 -0.3179 -0.7762  1.1281
 6727TIP3   OH241815   5.288   1.373   8.275 -0.2579  0.4063 -0.1396
 6727TIP3    H141816   5.315   1.465   8.269  1.3244 -0.0952 -1.5298
 6727TIP3    H241817   5.208   1.368   8.223 -0.1278  0.9096 -0.3955
 6728TIP3   OH241818   0.609   4.366   2.474 -0.5316 -0.0352 -0.8351
 6728TIP3    H141819   0.680   4.315   2.513 -0.3621 -0.5301 -1.7762
 6728TIP3    H241820   0.544   4.302   2.449 -0.5471  0.2582 -1.5560
 6729TIP3   OH241821   1.838   0.159   1.885  0.0566  0.3211  0.5911
 6729TIP3    H141822   1.825   0.232   1.824 -0.4996 -0.7302 -0.5828
 6729TIP3    H241823   1.750   0.137   1.914 -0.1208 -1.5897 -1.1568
 6730TIP3   OH241824   5.318   5.146   0.710 -0.5549 -0.1210 -0.0082
 6730TIP3    H141825   5.226   5.168   0.720 -0.1239  1.9350 -0.0982
 6730TIP3    H241826   5.322   5.096   0.629 -1.4488  0.9303 -0.7336
 6731TIP3   OH241827   5.272   0.396   7.804 -0.2661 -0.4023  0.4570
 6731TIP3    H141828   5.275   0.491   7.805 -0.3504 -0.3983  0.2897
 6731TIP3    H241829   5.364   0.369   7.802 -0.2337 -0.3296  0.8667
 6732TIP3   OH241830   6.019   1.142   0.183 -0.1190  0.2621 -0.0090
 6732TIP3    H141831   6.099   1.091   0.178 -0.8402 -0.7488 -2.1907
 6732TIP3    H241832   5.954   1.082   0.220 -0.7534 -0.2198 -1.7821
 6733TIP3   OH241833   0.888   1.546   0.650 -0.2623 -0.3304  0.2936
 6733TIP3    H141834   0.939   1.489   0.593  1.2001 -0.6990  1.8657
 6733TIP3    H241835   0.906   1.634   0.618 -0.1883 -0.5806 -0.3679
 6734TIP3   OH241836   3.365   5.929   2.254 -0.1084 -0.0439 -0.1178
 6734TIP3    H141837   3.340   5.841   2.280 -0.7676  0.1781  0.0037
 6734TIP3    H241838   3.283   5.975   2.240  0.2177  0.1661 -1.5511
 6735TIP3   OH241839   0.733   4.740   3.472  0.6902  0.3991  0.1545
 6735TIP3    H141840   0.707   4.720   3.382  2.7438 -0.1993 -0.3518
 6735TIP3    H241841   0.700   4.666   3.523  2.8764 -1.3234 -0.7648
 6736TIP3   OH241842   5.891   1.262   2.352 -0.1580 -0.1480  0.2352
 6736TIP3    H141843   5.950   1.199   2.392  1.3483  1.2096  0.2593
 6736TIP3    H241844   5.881   1.233   2.262  0.3668 -0.5182  0.2958
 6737TIP3   OH241845   1.831   4.107   2.431 -0.5454  0.9512 -0.4114
 6737TIP3    H141846   1.873   4.069   2.508  2.1223  0.7847 -1.8443
 6737TIP3    H241847   1.789   4.034   2.387 -1.3301  0.9009  0.3986
 6738TIP3   OH241848   3.058   3.281   9.652  0.6779  0.6321 -0.2270
 6738TIP3    H141849   3.008   3.244   9.579 -0.0483 -0.9219  0.9916
 6738TIP3    H241850   3.150   3.265   9.629  0.4152 -1.9858  0.1628
 6739TIP3   OH241851   0.232   4.639   7.455 -0.1687 -0.1924  0.2668
 6739TIP3    H141852   0.161   4.699   7.477  0.6337  0.1091  2.2012
 6739TIP3    H241853   0.257   4.600   7.538  2.4251  0.2796 -0.1999
 6740TIP3   OH241854   2.525   2.852   3.104 -0.1929  0.1363 -0.5109
 6740TIP3    H141855   2.568   2.924   3.150 -0.0271 -0.1045 -0.2886
 6740TIP3    H241856   2.556   2.773   3.148  0.1745 -0.1165 -1.1935
 6741TIP3   OH241857   2.369   6.316   0.040  0.1660 -0.3604 -0.7947
 6741TIP3    H141858   2.350   6.254  -0.030 -0.2097 -1.4362  0.2377
 6741TIP3    H241859   2.378   6.262   0.118  1.5154  0.7199 -0.1643
 6742TIP3   OH241860   5.058   2.001   1.731 -0.0884 -0.7161 -0.1485
 6742TIP3    H141861   5.052   2.053   1.651 -0.2120 -0.7218 -0.1420
 6742TIP3    H241862   5.056   2.065   1.802 -0.4204 -0.7435 -0.1343
 6743TIP3   OH241863   4.666   1.674   0.955  0.3792  0.4504  0.1456
 6743TIP3    H141864   4.651   1.582   0.934  2.0893  0.3591 -0.8030
 6743TIP3    H241865   4.611   1.722   0.893  0.1716  0.0911  0.0467
 6744TIP3   OH241866   4.766   5.325   3.722  0.1120 -0.4328  0.0578
 6744TIP3    H141867   4.789   5.234   3.706  0.3838 -0.5027  0.8169
 6744TIP3    H241868   4.826   5.375   3.666  1.1840 -0.6628  0.9742
 6745TIP3   OH241869   1.122   0.669   9.439 -0.7135 -0.0869 -0.0881
 6745TIP3    H141870   1.201   0.632   9.399 -0.3424  0.8916 -0.2774
 6745TIP3    H241871   1.154   0.737   9.498 -1.3661 -0.3425  0.5776
 6746TIP3   OH241872   0.608   4.620   8.780  0.8244 -0.1190 -0.4390
 6746TIP3    H141873   0.619   4.579   8.866 -0.2124  1.3470  0.4294
 6746TIP3    H241874   0.516   4.643   8.775  0.8515 -0.2014 -1.9875
 6747TIP3   OH241875   6.371   2.235   8.607 -0.0494 -0.0715  0.1831
 6747TIP3    H141876   6.436   2.297   8.575  0.9198  0.0389  2.1828
 6747TIP3    H241877   6.413   2.195   8.684 -1.5407 -1.5382  0.2824
 6748TIP3   OH241878   4.113   2.985   3.525 -0.5659  0.0821 -0.2429
 6748TIP3    H141879   4.043   3.016   3.582  1.2410  1.9449  1.1638
 6748TIP3    H241880   4.168   2.930   3.582 -0.5219 -0.8164 -1.1299
 6749TIP3   OH241881   0.348   2.164   2.848  0.2458 -0.0466  0.1335
 6749TIP3    H141882   0.354   2.073   2.877 -2.3200  0.0598  1.1909
 6749TIP3    H241883   0.301   2.161   2.765  0.0077  0.3329  0.2505
 6750TIP3   OH241884   4.127   2.095   0.729 -0.4322 -0.5702 -0.0953
 6750TIP3    H141885   4.073   2.016   0.720 -0.7969 -0.7109  2.5383
 6750TIP3    H241886   4.063   2.167   0.731 -0.3281 -0.4874  0.3448
 6751TIP3   OH241887   0.812   3.431   7.832  0.2240  0.1173  0.4870
 6751TIP3    H141888   0.775   3.388   7.909 -0.7446  0.8595  0.4592
 6751TIP3    H241889   0.851   3.359   7.782 -0.3805 -0.5808  0.9777
 6752TIP3   OH241890   0.406   0.867   8.116  0.0912  0.5213  0.3842
 6752TIP3    H141891   0.493   0.830   8.131 -0.3530 -0.5448  0.3528
 6752TIP3    H241892   0.369   0.879   8.203 -0.1023  0.0667  0.3672
 6753TIP3   OH241893   4.677   4.341   0.646  0.7588 -0.4502  0.1372
 6753TIP3    H141894   4.719   4.412   0.597  0.2681 -1.2847 -1.5604
 6753TIP3    H241895   4.749   4.280   0.665  0.5751 -1.4479 -2.0006
 6754TIP3   OH241896   5.797   2.140   0.776  0.0316  0.5415  0.5486
 6754TIP3    H141897   5.777   2.214   0.718  1.8183  0.2225 -0.5924
 6754TIP3    H241898   5.713   2.097   0.791 -0.7079  1.5057 -0.6285
 6755TIP3   OH241899   6.329   0.817   9.022  0.0082  0.7636  0.1475
 6755TIP3    H141900   6.299   0.869   9.097  1.7069 -1.2079  2.3419
 6755TIP3    H241901   6.340   0.881   8.952 -0.8530  2.8501  1.7925
 6756TIP3   OH241902   2.817   5.505   1.167 -0.6083 -0.1009  0.1540
 6756TIP3    H141903   2.788   5.539   1.252  0.4273  0.6565  0.2203
 6756TIP3    H241904   2.906   5.537   1.158 -0.3071 -1.1407 -0.7110
 6757TIP3   OH241905   2.269   4.125   3.434  0.0776  0.3691  0.2836
 6757TIP3    H141906   2.187   4.118   3.483  1.3483  1.0097  2.6662
 6757TIP3    H241907   2.326   4.177   3.490  1.5741  1.4690 -2.0807
 6758TIP3   OH241908   6.287   0.826   9.593 -0.3807  0.5926 -0.1286
 6758TIP3    H141909   6.244   0.911   9.603 -3.0946 -0.5811 -0.8724
 6758TIP3    H241910   6.335   0.832   9.511  0.2618  1.6866  0.3058
 6759TIP3   OH241911   2.895   2.580   2.073  0.4177 -0.4303 -0.6866
 6759TIP3    H141912   2.973   2.636   2.082  0.5022 -0.8649  2.6024
 6759TIP3    H241913   2.884   2.569   1.978  1.7321  3.2503 -1.4390
 6760TIP3   OH241914   1.974   1.527   8.479 -0.0126 -0.4580 -0.4603
 6760TIP3    H141915   1.966   1.592   8.548  0.1453  0.3466 -1.1755
 6760TIP3    H241916   1.889   1.528   8.435 -0.7756 -2.3031  0.8290
 6761TIP3   OH241917   0.599   4.775   3.228 -0.2656  0.1955  0.5458
 6761TIP3    H141918   0.508   4.804   3.220 -0.6972 -1.1332  0.3781
 6761TIP3    H241919   0.650   4.842   3.183 -1.4482 -0.6100 -2.2104
 6762TIP3   OH241920   1.961   1.696   8.710  0.4351 -0.6367  0.0848
 6762TIP3    H141921   1.919   1.659   8.787 -0.1881 -0.7427 -0.2974
 6762TIP3    H241922   2.040   1.740   8.744 -2.1169  3.4300  1.5063
 6763TIP3   OH241923   1.903   1.481   9.309  0.5342  0.0110  0.4163
 6763TIP3    H141924   1.977   1.497   9.369 -0.9576 -0.7542  2.5725
 6763TIP3    H241925   1.848   1.559   9.319 -0.5784 -0.8714  1.4222
 6764TIP3   OH241926   5.157   3.102   2.444 -0.0174  0.3800  0.2595
 6764TIP3    H141927   5.244   3.067   2.426  0.2761  1.7751 -1.3356
 6764TIP3    H241928   5.151   3.180   2.389 -2.0126  0.7289  0.8827
 6765TIP3   OH241929   4.731   2.553   2.881  0.2840 -0.9907 -0.3155
 6765TIP3    H141930   4.818   2.523   2.907 -0.7076 -1.5487  2.9058
 6765TIP3    H241931   4.736   2.648   2.886  0.5705 -1.0370  0.5318
 6766TIP3   OH241932   4.480   1.513   2.157 -0.6794 -0.1530 -0.4109
 6766TIP3    H141933   4.436   1.476   2.234 -1.4179 -0.3379 -0.9127
 6766TIP3    H241934   4.567   1.472   2.158 -1.3145 -1.5631 -0.6896
 6767TIP3   OH241935   3.749   1.866   3.154 -0.2776 -0.4243  0.4911
 6767TIP3    H141936   3.835   1.848   3.192  0.4691  0.0892 -0.8957
 6767TIP3    H241937   3.758   1.843   3.062 -1.0488  1.4286 -0.0919
 6768TIP3   OH241938   1.756   1.691   0.878  0.4192 -0.3011  0.5826
 6768TIP3    H141939   1.743   1.686   0.973  0.0540 -0.9200  0.5054
 6768TIP3    H241940   1.826   1.755   0.867  0.3979 -0.1500  1.2642
 6769TIP3   OH241941   3.701   5.566   1.761  0.4905 -0.0156 -0.2362
 6769TIP3    H141942   3.727   5.482   1.724  1.1440 -0.3772  0.9731
 6769TIP3    H241943   3.606   5.568   1.750  0.5403 -0.6422 -0.8234
 6770TIP3   OH241944   0.143   2.021   2.592  0.1973  0.4850  0.5092
 6770TIP3    H141945   0.083   2.085   2.553 -0.9291  0.2179  1.7410
 6770TIP3    H241946   0.226   2.037   2.548 -0.6746  1.0911 -1.0309
 6771TIP3   OH241947   6.191   0.788   0.816  0.6334  0.6760  0.1363
 6771TIP3    H141948   6.206   0.762   0.725  1.2763  1.0733  0.1201
 6771TIP3    H241949   6.277   0.779   0.857  0.4536  0.9847  0.5772
 6772TIP3   OH241950   4.484   5.992   8.322 -0.4624 -0.0758  0.3166
 6772TIP3    H141951   4.480   5.976   8.227  2.2357  1.5680 -0.1744
 6772TIP3    H241952   4.455   6.083   8.332 -0.8464 -0.2781  1.0970
 6773TIP3   OH241953   2.025   2.099   7.867 -0.4107 -0.2411  0.5877
 6773TIP3    H141954   2.000   2.124   7.778 -0.6626 -1.0779  0.4076
 6773TIP3    H241955   2.109   2.143   7.882  0.6537 -1.6406 -0.8286
 6774TIP3   OH241956   4.955   3.458   2.110  0.1188 -0.6852 -0.0264
 6774TIP3    H141957   4.933   3.435   2.200  0.0928  1.8135  0.6862
 6774TIP3    H241958   4.882   3.513   2.081  0.1186 -1.4575 -1.6053
 6775TIP3   OH241959   6.342   6.387   1.329  0.0742 -0.2623  0.3264
 6775TIP3    H141960   6.391   6.373   1.248 -0.5626 -1.4841  0.1256
 6775TIP3    H241961   6.252   6.362   1.308 -0.7559  2.1756  0.6266
 6776TIP3   OH241962   5.107   2.540   1.019 -0.2754 -0.2063  0.4763
 6776TIP3    H141963   5.032   2.502   1.063 -0.7406  0.6235  0.4206
 6776TIP3    H241964   5.173   2.550   1.088 -0.6473  0.1753  0.7824
 6777TIP3   OH241965   4.607   3.116   2.457 -0.3946 -0.0013  0.2447
 6777TIP3    H141966   4.688   3.163   2.478 -0.9389  0.1492  2.1242
 6777TIP3    H241967   4.546   3.141   2.526 -2.4156  0.6985 -1.6740
 6778TIP3   OH241968   5.996   2.367   0.676  0.8039 -0.0885  0.1582
 6778TIP3    H141969   6.090   2.384   0.678  1.3880 -2.8130 -0.2052
 6778TIP3    H241970   5.973   2.347   0.767  0.1439  2.1999  0.5669
 6779TIP3   OH241971   3.421   0.527   0.329  0.6067 -0.3785  0.0490
 6779TIP3    H141972   3.431   0.452   0.388  0.4312  0.2965  0.9502
 6779TIP3    H241973   3.484   0.592   0.361 -1.2906  1.0148  1.1616
 6780TIP3   OH241974   2.224   5.976   1.882 -0.0789 -0.0355 -0.2167
 6780TIP3    H141975   2.283   6.046   1.852 -0.8540  0.1874 -1.3236
 6780TIP3    H241976   2.150   6.022   1.920 -0.9120 -0.1873 -1.5617
 6781TIP3   OH241977   3.654   3.270   3.092  0.2377 -0.0918  0.2911
 6781TIP3    H141978   3.656   3.365   3.084 -0.6819 -0.1800 -4.9196
 6781TIP3    H241979   3.575   3.251   3.144 -0.6420  2.0151 -0.1967
 6782TIP3   OH241980   5.557   0.287   8.575 -0.3588  0.0662  0.0556
 6782TIP3    H141981   5.610   0.342   8.632  1.9732 -0.8075 -1.1632
 6782TIP3    H241982   5.481   0.342   8.554  0.1492  1.4761  1.6465
 6783TIP3   OH241983   5.514   0.678   0.914  0.0534  0.0135  0.2679
 6783TIP3    H141984   5.580   0.747   0.913 -0.5592  0.6201  0.8057
 6783TIP3    H241985   5.430   0.725   0.913 -0.3744 -0.6924  1.2095
 6784TIP3   OH241986   4.462   5.053   9.302 -0.4589 -0.5734 -0.2621
 6784TIP3    H141987   4.509   5.064   9.220 -0.0019 -0.1079  0.0543
 6784TIP3    H241988   4.528   5.066   9.370 -1.2504  1.2160  0.2080
 6785TIP3   OH241989   1.844   1.583   0.658 -0.0225  0.0451  0.5648
 6785TIP3    H141990   1.933   1.575   0.692 -0.0024  0.5306  0.6349
 6785TIP3    H241991   1.789   1.595   0.735 -0.0388  0.6201  0.4738
 6786TIP3   OH241992   4.871   2.809   9.061  0.0319 -0.6303  0.6464
 6786TIP3    H141993   4.910   2.738   9.112 -1.0579 -0.5396  1.6295
 6786TIP3    H241994   4.851   2.877   9.125  1.0845  0.6176 -0.2792
 6787TIP3   OH241995   6.321   4.020   2.914  0.7168  0.2665  0.5001
 6787TIP3    H141996   6.410   4.053   2.918  0.2280  1.6697  0.4536
 6787TIP3    H241997   6.283   4.042   2.999  1.1478 -2.6883  1.5743
 6788TIP3   OH241998   0.138   5.611   1.794 -0.3490  0.2177  0.1954
 6788TIP3    H141999   0.068   5.676   1.783 -0.6084 -0.1348 -0.2681
 6788TIP3    H242000   0.122   5.572   1.879  0.5226  1.6075  1.0466
 6789TIP3   OH242001   5.013   4.073   1.968  0.3623  0.2089 -0.2744
 6789TIP3    H142002   5.096   4.034   1.996 -0.3867 -3.0569 -2.1836
 6789TIP3    H242003   4.950   4.045   2.034  0.2724  0.4707 -0.2448
 6790TIP3   OH242004   4.105   1.479   9.340 -0.0142 -0.3353 -0.5209
 6790TIP3    H142005   4.178   1.418   9.338  0.5266  0.2913 -0.1646
 6790TIP3    H242006   4.027   1.423   9.336  0.4597 -1.0819  0.2843
 6791TIP3   OH242007   6.007   1.254   0.504  0.3524 -0.4321  0.3616
 6791TIP3    H142008   5.950   1.186   0.468  1.0737 -0.0837 -1.5512
 6791TIP3    H242009   5.990   1.252   0.599 -0.4815 -2.4559  0.2135
 6792TIP3   OH242010   4.146   5.848   1.392 -0.2145  0.6208  0.3557
 6792TIP3    H142011   4.084   5.776   1.393  0.1887  0.2246 -1.0857
 6792TIP3    H242012   4.232   5.807   1.404  0.1213  0.7032 -1.5051
 6793TIP3   OH242013   3.228   3.292   0.350  0.2366 -0.4808 -0.0249
 6793TIP3    H142014   3.267   3.329   0.271 -0.1674 -2.1951 -1.0766
 6793TIP3    H242015   3.214   3.199   0.329 -1.9075 -0.5099  1.2599
 6794TIP3   OH242016   4.534   4.402   2.227  0.0526 -0.1272  0.5505
 6794TIP3    H142017   4.500   4.458   2.297  0.5377 -0.1519  0.8118
 6794TIP3    H242018   4.609   4.357   2.266 -0.0698 -0.6353  0.2081
 6795TIP3   OH242019   5.918   0.826   9.072  0.6882  1.3300  0.2125
 6795TIP3    H142020   5.977   0.750   9.062 -1.3790 -0.3332 -0.1210
 6795TIP3    H242021   5.864   0.803   9.148 -0.7328  1.9392 -0.5971
 6796TIP3   OH242022   1.035   0.805   9.964  0.0957 -0.6619  0.5365
 6796TIP3    H142023   0.955   0.838   9.924  0.8356 -0.4371 -0.7975
 6796TIP3    H242024   1.020   0.813  10.058 -0.8168  0.9052  0.2838
 6797TIP3   OH242025   5.494   0.613   9.726  0.3226 -0.4418 -0.1453
 6797TIP3    H142026   5.487   0.689   9.784 -2.3394 -0.3732 -0.4274
 6797TIP3    H242027   5.572   0.567   9.757  0.3193  0.8194  1.9789
 6798TIP3   OH242028   1.601   5.398   9.331 -0.1882 -0.4540 -0.2784
 6798TIP3    H142029   1.639   5.311   9.344  1.8897  0.3491 -0.6067
 6798TIP3    H242030   1.597   5.409   9.236 -0.7092 -0.2727 -0.2424
 6799TIP3   OH242031   4.296   4.861   9.412  0.3681 -0.0644 -0.2329
 6799TIP3    H142032   4.345   4.926   9.363 -0.1062 -1.0146 -2.0937
 6799TIP3    H242033   4.362   4.800   9.446  0.6670  0.2155 -0.3160
 6800TIP3   OH242034   5.050   1.338   0.640  0.3099  0.5034  0.3547
 6800TIP3    H142035   4.982   1.281   0.603 -1.4608  2.2898  0.6280
 6800TIP3    H242036   5.114   1.347   0.570  0.4422 -1.4692  0.1794
 6801TIP3   OH242037   3.741   0.150   9.404 -0.0852  0.8426  0.1736
 6801TIP3    H142038   3.683   0.218   9.438 -0.6896  0.5177 -0.2071
 6801TIP3    H242039   3.734   0.078   9.467 -1.9751 -0.1631 -1.0867
 6802TIP3   OH242040   0.126   1.976   2.981 -0.3043  0.3044  0.6761
 6802TIP3    H142041   0.157   1.886   2.988 -1.0726 -0.0943 -0.6882
 6802TIP3    H242042   0.151   2.017   3.064  2.1930 -0.4767  0.4002
 6803TIP3   OH242043   5.839   3.379   3.155  0.4740 -0.1642 -0.3602
 6803TIP3    H142044   5.759   3.334   3.183 -0.8142  0.9170 -2.0834
 6803TIP3    H242045   5.845   3.454   3.214 -0.5167  0.4323 -0.9834
 6804TIP3   OH242046   0.411   5.553   9.781  0.4198  0.7214  0.2836
 6804TIP3    H142047   0.473   5.531   9.711 -0.0437  2.2618 -0.6724
 6804TIP3    H242048   0.377   5.639   9.756 -3.2833 -0.6744 -0.0741
 6805TIP3   OH242049   4.137   4.763   1.944  0.1233  0.0032 -0.0653
 6805TIP3    H142050   4.215   4.799   1.902 -0.2194 -0.0926 -0.7951
 6805TIP3    H242051   4.142   4.794   2.035  0.1193  1.4226 -0.5275
 6806TIP3   OH242052   2.582   5.684   0.115  0.0555 -0.5038  0.1786
 6806TIP3    H142053   2.553   5.608   0.064  0.9679 -1.7425  1.3976
 6806TIP3    H242054   2.536   5.675   0.199  1.5500 -0.7904  1.0101
 6807TIP3   OH242055   1.012   6.103   1.414  0.0531 -0.6714  0.1112
 6807TIP3    H142056   1.000   6.020   1.461 -1.4841 -0.5042  0.0533
 6807TIP3    H242057   0.933   6.112   1.361 -0.7390  1.7590  1.5427
 6808TIP3   OH242058   4.767   5.666   2.289 -0.1472  0.0665 -0.3946
 6808TIP3    H142059   4.818   5.746   2.273  0.3883  0.0144  0.9739
 6808TIP3    H242060   4.796   5.606   2.220  0.7508  0.4477 -0.3737
 6809TIP3   OH242061   3.710   3.516   1.938 -0.0827  0.3331  0.2758
 6809TIP3    H142062   3.692   3.558   1.854  0.4274 -1.6960 -0.9437
 6809TIP3    H242063   3.800   3.484   1.930 -1.1737 -3.1747 -0.0410
 6810TIP3   OH242064   0.654   3.968   2.097 -0.6224  0.1745  0.8169
 6810TIP3    H142065   0.640   4.058   2.128  0.0958 -0.2911  2.6482
 6810TIP3    H242066   0.634   3.913   2.173  2.1623 -1.0130  0.7933
 6811TIP3   OH242067   4.865   3.461   2.367  0.2988 -0.7289  0.1759
 6811TIP3    H142068   4.774   3.443   2.388  0.4188 -1.1673  0.3415
 6811TIP3    H242069   4.915   3.421   2.438  0.5456  1.5616  1.3699
 6812TIP3   OH242070   2.353   2.991   1.399 -0.2088  0.3530  0.2082
 6812TIP3    H142071   2.320   2.902   1.399  1.1841 -0.2039  1.4153
 6812TIP3    H242072   2.317   3.031   1.320 -0.6425 -1.3491 -0.4780
 6813TIP3   OH242073   4.704   0.113   8.483  0.2762  0.9320  0.2671
 6813TIP3    H142074   4.669   0.090   8.397 -1.0835 -0.1204  1.0824
 6813TIP3    H242075   4.791   0.148   8.464  1.0298 -1.5568 -1.3676
 6814TIP3   OH242076   1.647   1.226   9.722  0.1229 -0.1197 -0.7337
 6814TIP3    H142077   1.623   1.136   9.699  0.7518 -1.1009  2.0635
 6814TIP3    H242078   1.723   1.245   9.667  0.2828 -1.4894 -1.0431
 6815TIP3   OH242079   2.235   5.654   1.435 -0.4606  0.3201  0.1685
 6815TIP3    H142080   2.187   5.704   1.369  0.5589  0.1379 -0.7360
 6815TIP3    H242081   2.240   5.714   1.510 -0.3876  1.0846 -0.4312
 6816TIP3   OH242082   1.212   4.807   1.994  0.0309  0.2489 -0.0978
 6816TIP3    H142083   1.305   4.794   1.976  0.0041 -0.1030  0.0082
 6816TIP3    H242084   1.206   4.812   2.090 -0.4550 -3.1248  0.1560
 6817TIP3   OH242085   2.541   3.921   1.620 -0.6071  0.3671 -0.1779
 6817TIP3    H142086   2.604   3.865   1.666  0.9120  1.8323 -0.4068
 6817TIP3    H242087   2.490   3.962   1.690 -1.4777 -0.9425  0.0032
 6818TIP3   OH242088   2.444   4.255   0.832 -0.4436  0.2398 -0.2931
 6818TIP3    H142089   2.417   4.297   0.751 -0.1152  2.4966  0.7133
 6818TIP3    H242090   2.374   4.192   0.851 -2.2007  2.0226 -0.6029
 6819TIP3   OH242091   1.266   1.322   1.899  0.0778 -0.6712 -0.3175
 6819TIP3    H142092   1.293   1.392   1.840  0.5613 -0.8978 -0.3737
 6819TIP3    H242093   1.243   1.367   1.980 -1.3156 -0.2830 -0.8898
 6820TIP3   OH242094   5.501   1.599   1.992 -0.6623  0.1449  0.2534
 6820TIP3    H142095   5.412   1.572   2.014 -0.1033 -1.5282  0.6297
 6820TIP3    H242096   5.548   1.597   2.075 -0.0104 -0.1534 -0.1121
 6821TIP3   OH242097   4.146   2.449   1.752  0.2565  0.7090  0.1321
 6821TIP3    H142098   4.221   2.435   1.695 -1.0988  0.7952 -1.7949
 6821TIP3    H242099   4.141   2.370   1.805  0.9628  0.1338 -0.6235
 6822TIP3   OH242100   2.094   3.246   0.256 -0.3570 -0.5287  0.2165
 6822TIP3    H142101   2.120   3.216   0.343 -2.4988 -2.1270  0.3832
 6822TIP3    H242102   2.105   3.341   0.259 -0.9779 -0.4837  2.4607
 6823TIP3   OH242103   3.648   5.965   9.090  0.1267 -0.0906 -0.2046
 6823TIP3    H142104   3.610   5.931   9.009  1.8458  1.2985 -1.6818
 6823TIP3    H242105   3.607   5.914   9.160 -1.4443 -1.3001 -1.9374
 6824TIP3   OH242106   4.305   3.131   1.178  0.1366 -0.1850  0.3294
 6824TIP3    H142107   4.298   3.091   1.265  3.1549  0.3430  0.9145
 6824TIP3    H242108   4.359   3.070   1.128  0.7933  0.8534 -0.2663
 6825TIP3   OH242109   6.231   4.504   9.616 -0.2439 -0.3011  0.2389
 6825TIP3    H142110   6.295   4.457   9.669  0.9375  1.5405  0.5240
 6825TIP3    H242111   6.184   4.435   9.569  3.0238 -1.7089 -1.2827
 6826TIP3   OH242112   5.312   0.407   2.746  0.0403 -0.4043  0.4353
 6826TIP3    H142113   5.226   0.431   2.712 -0.2743 -0.6749  1.0350
 6826TIP3    H242114   5.350   0.490   2.776 -0.5342 -0.4661  1.3461
 6827TIP3   OH242115   0.351   6.115   8.291 -0.5084  0.5909  0.3748
 6827TIP3    H142116   0.407   6.189   8.269  1.4631 -1.3705 -1.9462
 6827TIP3    H242117   0.282   6.117   8.225  0.1851 -0.2003 -0.4003
 6828TIP3   OH242118   3.524   6.121   1.022  0.1174 -0.6060 -0.4498
 6828TIP3    H142119   3.522   6.043   0.965  0.7772 -1.6404  0.8855
 6828TIP3    H242120   3.437   6.122   1.063 -0.0584 -0.3513 -0.8212
 6829TIP3   OH242121   1.750   2.356   0.244 -0.2472 -0.2203  0.0718
 6829TIP3    H142122   1.703   2.273   0.242  0.5118 -0.6828  0.7000
 6829TIP3    H242123   1.745   2.388   0.154 -1.8977 -0.1559  0.1506
 6830TIP3   OH242124   0.100   0.109   8.497 -0.1830  0.1854  0.0989
 6830TIP3    H142125   0.163   0.073   8.434  0.0018  0.1250  0.3187
 6830TIP3    H242126   0.109   0.053   8.574  1.1210  1.5439  0.9894
 6831TIP3   OH242127   1.918   4.561   2.791 -0.7133 -0.9176 -0.2422
 6831TIP3    H142128   1.991   4.572   2.852 -0.5421  2.6194 -0.8288
 6831TIP3    H242129   1.959   4.558   2.704 -1.1498 -0.4403 -0.4763
 6832TIP3   OH242130   6.303   1.062   1.495 -0.5012  0.3234  0.4670
 6832TIP3    H142131   6.325   1.151   1.469 -1.0852  0.4547  0.4157
 6832TIP3    H242132   6.367   1.007   1.451 -0.3352  0.6936  0.2476
 6833TIP3   OH242133   0.955   1.135   8.289 -0.0703  0.0175  0.2123
 6833TIP3    H142134   0.889   1.185   8.241  0.4545  0.3686 -0.1639
 6833TIP3    H242135   1.030   1.131   8.229 -0.1419 -1.3468  0.1720
 6834TIP3   OH242136   2.395   0.307   9.488  0.3561 -0.3390 -0.1192
 6834TIP3    H142137   2.484   0.341   9.480  0.4424 -0.8742 -1.5588
 6834TIP3    H242138   2.405   0.226   9.538  0.3355  0.8229  1.9183
 6835TIP3   OH242139   5.721   0.749   8.273 -0.0846  0.1094  0.4944
 6835TIP3    H142140   5.742   0.808   8.345  0.7843 -0.5620  0.8050
 6835TIP3    H242141   5.763   0.788   8.197 -0.6865  0.6211  0.4191
 6836TIP3   OH242142   4.547   0.109   9.389 -0.2524  0.3091 -0.3686
 6836TIP3    H142143   4.459   0.142   9.375 -1.1777 -1.9770 -0.4352
 6836TIP3    H242144   4.595   0.134   9.310 -0.5212  2.4230  0.0938
 6837TIP3   OH242145   3.528   5.953   9.775 -0.0918 -0.2003  0.1092
 6837TIP3    H142146   3.488   6.033   9.742 -0.6204 -0.5716 -0.1568
 6837TIP3    H242147   3.615   5.951   9.736 -1.0450 -1.1448 -2.1019
 6838TIP3   OH242148   3.917   0.456   0.614 -0.3700  0.1254  0.3398
 6838TIP3    H142149   3.943   0.514   0.685  1.7381  1.4406 -1.4013
 6838TIP3    H242150   3.877   0.514   0.549 -0.4117 -0.7433 -0.4358
 6839TIP3   OH242151   5.250   2.211   0.587 -0.5331  0.1301  0.1944
 6839TIP3    H142152   5.271   2.118   0.589 -1.2985 -0.0364  0.8132
 6839TIP3    H242153   5.287   2.246   0.668  1.0316  0.6714 -0.7022
 6840TIP3   OH242154   6.394   1.057   2.676 -0.6441  0.3763 -0.1894
 6840TIP3    H142155   6.305   1.082   2.701 -1.5985 -0.2567 -2.6030
 6840TIP3    H242156   6.431   1.136   2.636 -0.6743  0.2440 -0.4846
 6841TIP3   OH242157   3.218   6.024   0.973  0.3590 -0.3653  0.5323
 6841TIP3    H142158   3.143   6.059   1.022  0.2520 -1.5749  1.2772
 6841TIP3    H242159   3.180   5.980   0.898  0.3356 -0.6993  0.7368
 6842TIP3   OH242160   1.880   4.515   0.543 -0.5509 -0.5221 -0.2827
 6842TIP3    H142161   1.900   4.609   0.537 -0.1365 -0.5515  0.4790
 6842TIP3    H242162   1.785   4.511   0.541 -0.5529 -0.2222 -1.9942
 6843TIP3   OH242163   4.354   3.312   9.474  0.1338  0.1522 -0.0259
 6843TIP3    H142164   4.288   3.380   9.464 -0.4811 -0.3810  0.3327
 6843TIP3    H242165   4.331   3.267   9.555 -0.9640 -2.0680 -1.4782
 6844TIP3   OH242166   0.197   6.109   2.196 -0.2758  0.1833  0.3300
 6844TIP3    H142167   0.145   6.095   2.116 -0.5769  2.2026  0.1206
 6844TIP3    H242168   0.160   6.049   2.260 -1.0837 -0.3387 -0.6032
 6845TIP3   OH242169   0.265   5.036   9.838  0.3191 -0.0077  0.5689
 6845TIP3    H142170   0.243   4.962   9.782  1.5300  0.9033 -1.1778
 6845TIP3    H242171   0.358   5.052   9.823  0.5103  0.7770  2.2716
 6846TIP3   OH242172   2.300   5.366   9.870 -0.2170 -0.0939 -0.7695
 6846TIP3    H142173   2.345   5.365   9.785 -2.5758  2.0104 -2.2106
 6846TIP3    H242174   2.247   5.286   9.870 -0.1596 -0.1369 -1.2592
 6847TIP3   OH242175   0.120   3.266   9.515 -0.0690 -0.5814 -0.6210
 6847TIP3    H142176   0.179   3.338   9.535  1.1778 -0.9020 -2.8335
 6847TIP3    H242177   0.157   3.191   9.562 -0.0486 -0.2983 -0.1769
 6848TIP3   OH242178   4.430   4.230   9.544  0.2834  0.7531 -0.2324
 6848TIP3    H142179   4.393   4.151   9.584  0.8322  0.5551 -0.1059
 6848TIP3    H242180   4.393   4.233   9.456 -2.2069  2.0480  0.7646
 6849TIP3   OH242181   6.151   3.349   1.447 -0.6214  0.2201  0.2039
 6849TIP3    H142182   6.232   3.395   1.471  1.0720 -1.4368 -1.8548
 6849TIP3    H242183   6.102   3.412   1.395 -0.0962  0.8640  0.4731
 6850TIP3   OH242184   1.611   2.139   8.304 -0.0429  0.2607 -0.2647
 6850TIP3    H142185   1.588   2.224   8.266 -0.1884 -0.2157 -1.2662
 6850TIP3    H242186   1.649   2.090   8.231 -3.3920 -1.9010 -0.7572
 6851TIP3   OH242187   0.490   2.964   2.329  0.3808 -0.2654 -0.7066
 6851TIP3    H142188   0.474   2.975   2.423  1.0447 -0.4061 -0.5752
 6851TIP3    H242189   0.413   3.004   2.288  0.8411  1.2692 -0.1421
 6852TIP3   OH242190   2.427   2.053   1.901  0.5368 -0.4522 -0.1711
 6852TIP3    H142191   2.339   2.066   1.936  0.9649 -1.2172  1.2824
 6852TIP3    H242192   2.458   1.973   1.945  1.4855 -0.9029 -1.6016
 6853TIP3   OH242193   2.236   1.701   1.439 -0.0664 -0.2913  0.1478
 6853TIP3    H142194   2.258   1.738   1.524 -0.5473 -1.4916  0.8223
 6853TIP3    H242195   2.252   1.772   1.377  0.5990  0.5046  1.1964
 6854TIP3   OH242196   2.725   5.791   0.716 -0.4546 -0.1140  0.2004
 6854TIP3    H142197   2.804   5.747   0.686 -0.2747 -0.2830  0.9131
 6854TIP3    H242198   2.736   5.801   0.811 -1.2335 -0.0351  0.2955
 6855TIP3   OH242199   2.800   1.308   9.920  0.1672 -0.6436  0.4519
 6855TIP3    H142200   2.896   1.315   9.918  0.2456 -0.7425  2.2078
 6855TIP3    H242201   2.769   1.398   9.921  0.1758 -0.6022 -1.3338
 6856TIP3   OH242202   6.094   6.156   0.542 -0.1722  0.5312  0.0745
 6856TIP3    H142203   6.074   6.157   0.636  2.0646 -0.9375  0.6681
 6856TIP3    H242204   6.190   6.159   0.539 -0.1400 -0.9543 -2.0837
 6857TIP3   OH242205   3.636   5.047   0.046  0.7750 -0.4030 -0.2386
 6857TIP3    H142206   3.548   5.048   0.082  0.6628 -2.2694 -0.3677
 6857TIP3    H242207   3.689   5.003   0.113  1.4326 -0.1037 -0.5492
 6858TIP3   OH242208   4.687   2.845   3.213  0.1033 -0.1531 -0.3403
 6858TIP3    H142209   4.747   2.898   3.266  1.2010 -1.2495 -0.4250
 6858TIP3    H242210   4.651   2.781   3.274  0.6967 -0.8593 -0.7026
 6859TIP3   OH242211   0.762   3.083   7.697 -0.4780 -0.1319 -0.0566
 6859TIP3    H142212   0.824   3.144   7.736 -1.2136 -0.2510  1.3601
 6859TIP3    H242213   0.681   3.133   7.687 -0.1576  0.0768 -2.0624
 6860TIP3   OH242214   6.318   0.790   8.208 -0.2603  0.3549  0.3714
 6860TIP3    H142215   6.260   0.850   8.161 -0.4266 -0.7584 -0.8995
 6860TIP3    H242216   6.337   0.834   8.291  0.1487  2.4523 -0.7825
 6861TIP3   OH242217   4.484   3.788   3.494 -0.1352  0.1318 -0.5483
 6861TIP3    H142218   4.479   3.734   3.573  0.6385  0.1331 -0.4919
 6861TIP3    H242219   4.545   3.742   3.436  0.9485  1.1745 -0.2898
 6862TIP3   OH242220   0.366   4.782   2.871  0.1106  0.0107  0.1760
 6862TIP3    H142221   0.315   4.855   2.905 -0.9911 -0.0387 -1.3097
 6862TIP3    H242222   0.328   4.762   2.786 -0.2474 -2.8932  0.8889
 6863TIP3   OH242223   1.398   2.216   2.604 -0.0066 -0.5432 -0.3932
 6863TIP3    H142224   1.404   2.245   2.513 -1.6801 -0.1088 -0.4067
 6863TIP3    H242225   1.406   2.297   2.655  2.6391 -0.9518  0.0015
 6864TIP3   OH242226   2.126   4.927   1.572 -0.2094 -0.5321  0.1963
 6864TIP3    H142227   2.180   4.848   1.573  0.2274 -0.3073  3.1246
 6864TIP3    H242228   2.037   4.896   1.559  0.2274 -1.1617 -1.7194
 6865TIP3   OH242229   4.131   1.019   0.738 -0.2924  0.3697  0.4347
 6865TIP3    H142230   4.211   0.969   0.717 -1.5640 -1.9217  0.7117
 6865TIP3    H242231   4.120   1.008   0.832 -0.4914  1.3877  0.5367
 6866TIP3   OH242232   0.550   4.203   9.086  0.7285  0.8132 -0.5304
 6866TIP3    H142233   0.464   4.181   9.122  1.4187  1.1438  1.4724
 6866TIP3    H242234   0.612   4.152   9.139  1.7315 -0.8376 -3.1016
 6867TIP3   OH242235   2.746   4.870   2.923  0.2581 -0.8091 -0.1628
 6867TIP3    H142236   2.771   4.957   2.891  0.9176 -1.2053 -0.7472
 6867TIP3    H242237   2.651   4.875   2.934  0.2160 -0.1927 -0.7539
 6868TIP3   OH242238   3.705   4.082   0.390  0.1716  0.3218 -0.2514
 6868TIP3    H142239   3.647   4.156   0.372 -0.2967 -0.3509 -1.6366
 6868TIP3    H242240   3.753   4.068   0.308  0.8976 -0.3504  0.2684
 6869TIP3   OH242241   1.469   5.018   9.440  0.1476  0.3526 -0.0225
 6869TIP3    H142242   1.554   5.006   9.483  0.3540 -1.6527 -0.8606
 6869TIP3    H242243   1.447   5.110   9.454  2.7671  1.0963 -0.3287
 6870TIP3   OH242244   5.026   1.596   2.084 -0.3903 -0.0527  0.0345
 6870TIP3    H142245   5.070   1.663   2.136 -0.9707 -0.6083  1.2820
 6870TIP3    H242246   4.933   1.613   2.097 -0.5563  0.1401 -1.3028
 6871TIP3   OH242247   4.401   4.488   0.877 -0.4481 -0.0938 -0.1057
 6871TIP3    H142248   4.486   4.486   0.921 -0.3954  1.2473 -0.1108
 6871TIP3    H242249   4.404   4.415   0.816 -0.0811 -1.3075  1.2887
 6872TIP3   OH242250   1.933   4.344   2.600 -0.5670  0.1094 -0.2353
 6872TIP3    H142251   1.940   4.335   2.695  0.1903 -0.5432 -0.3490
 6872TIP3    H242252   1.978   4.268   2.565  1.0024  1.4160 -1.1690
 6873TIP3   OH242253   0.610   0.759   1.588 -0.0316 -0.0194 -0.7052
 6873TIP3    H142254   0.570   0.839   1.622 -1.4151 -0.8267 -0.3851
 6873TIP3    H242255   0.635   0.710   1.666  3.1279  1.1344 -0.8428
 6874TIP3   OH242256   1.392   1.584   2.971  0.0668 -0.6538 -0.0748
 6874TIP3    H142257   1.472   1.541   2.943 -0.3107 -2.3078  1.1990
 6874TIP3    H242258   1.329   1.512   2.981 -1.4083  0.5367 -0.4801
 6875TIP3   OH242259   4.996   3.946   8.839  0.2970  0.1880  0.1478
 6875TIP3    H142260   4.975   3.907   8.924  1.9815  1.4809  1.2205
 6875TIP3    H242261   5.081   3.909   8.816  0.8384  1.4139  0.0841
 6876TIP3   OH242262   3.587   2.558   2.110  0.3885  0.3654  0.0161
 6876TIP3    H142263   3.623   2.647   2.112 -0.6833  0.8938 -1.8857
 6876TIP3    H242264   3.534   2.553   2.190  0.5562  1.3964  0.2121
 6877TIP3   OH242265   2.706   4.163   0.826  0.4860  0.4839  0.1834
 6877TIP3    H142266   2.626   4.215   0.812  0.2069  0.1029  0.3502
 6877TIP3    H242267   2.681   4.099   0.893  0.2655 -1.0860 -1.3324
 6878TIP3   OH242268   0.710   1.055   8.420  1.0484  0.2937  0.1423
 6878TIP3    H142269   0.800   1.045   8.391  1.4278  3.6703 -0.1628
 6878TIP3    H242270   0.686   1.144   8.395 -2.3518 -0.4300  0.3363
 6879TIP3   OH242271   2.029   0.299   7.782 -0.1057  0.1532  0.0711
 6879TIP3    H142272   1.956   0.354   7.753 -0.3108  0.3561  0.9540
 6879TIP3    H242273   2.001   0.263   7.866  0.3431 -0.6942 -0.1269
 6880TIP3   OH242274   6.240   2.429   2.066  0.4480  0.1537 -0.8384
 6880TIP3    H142275   6.195   2.382   1.997 -1.4881 -0.6246  0.8605
 6880TIP3    H242276   6.269   2.361   2.127  2.3277  0.7990 -0.9268
 6881TIP3   OH242277   4.956   1.195   9.202  0.1255  0.3338 -0.2579
 6881TIP3    H142278   4.979   1.123   9.143  0.8904 -1.9908  2.6212
 6881TIP3    H242279   5.022   1.261   9.186  1.2193 -0.8763 -0.9441
 6882TIP3   OH242280   1.463   6.090   0.818  0.0314  0.3601 -0.1103
 6882TIP3    H142281   1.369   6.070   0.822 -0.1549  1.1886 -0.3157
 6882TIP3    H242282   1.468   6.179   0.784  0.8063  1.0163  1.5747
 6883TIP3   OH242283   5.029   1.596   0.404 -0.3131 -0.5464  0.1655
 6883TIP3    H142284   5.068   1.511   0.385 -1.4969 -0.9164 -0.7159
 6883TIP3    H242285   5.091   1.638   0.463  0.4486 -1.8883  0.3580
 6884TIP3   OH242286   4.880   5.503   0.798 -0.0434  0.2028  0.2138
 6884TIP3    H142287   4.827   5.518   0.876 -0.6897  1.0908 -0.3790
 6884TIP3    H242288   4.817   5.479   0.730 -0.0409  3.2791 -1.0602
 6885TIP3   OH242289   5.803   3.571   0.268 -0.2544  0.0565 -0.9290
 6885TIP3    H142290   5.716   3.550   0.304  0.9930 -0.7744  1.9413
 6885TIP3    H242291   5.835   3.488   0.232  0.2094 -0.2551  0.1424
 6886TIP3   OH242292   5.931   5.285   1.665 -0.5035 -0.7539 -0.3128
 6886TIP3    H142293   5.858   5.302   1.724  1.2084 -0.8322  1.9511
 6886TIP3    H242294   5.934   5.362   1.608 -0.6994  0.5394  1.3490
 6887TIP3   OH242295   1.101   5.609   8.282  0.2014  0.1286  0.2669
 6887TIP3    H142296   1.190   5.643   8.296  0.3619  1.9845 -3.8503
 6887TIP3    H242297   1.044   5.675   8.321  0.4075 -1.5919  3.9146
 6888TIP3   OH242298   3.360   4.373   9.303  0.0072 -0.7354 -0.1004
 6888TIP3    H142299   3.414   4.384   9.224  1.9288 -2.4093  0.9026
 6888TIP3    H242300   3.423   4.365   9.374 -1.6151 -1.5497  1.3097
 6889TIP3   OH242301   2.115   0.030   0.063 -0.2496 -0.8744 -0.1072
 6889TIP3    H142302   2.209   0.014   0.052  0.0013 -0.3463  1.0746
 6889TIP3    H242303   2.084  -0.046   0.113 -0.6074 -1.3923 -1.0892
 6890TIP3   OH242304   1.157   2.897   0.287  0.2591  0.1993 -0.2847
 6890TIP3    H142305   1.127   2.980   0.251 -0.7441  0.5118  1.2135
 6890TIP3    H242306   1.175   2.915   0.379  2.0546 -0.7501 -0.4007
 6891TIP3   OH242307   3.036   3.655   9.052 -0.2518 -0.5870 -0.2466
 6891TIP3    H142308   3.024   3.651   8.957  0.1008  1.8051 -0.4394
 6891TIP3    H242309   3.079   3.739   9.067 -2.6379  0.3280  2.2270
 6892TIP3   OH242310   5.258   1.406   0.084 -0.1092 -0.2265 -0.1286
 6892TIP3    H142311   5.207   1.338   0.128  2.2981  0.7255  4.8358
 6892TIP3    H242312   5.209   1.487   0.103  0.6301  0.1332  0.2746
 6893TIP3   OH242313   4.584   1.082   9.548 -0.6140  0.1349 -0.2348
 6893TIP3    H142314   4.560   1.064   9.639 -1.3670  0.0841 -0.4321
 6893TIP3    H242315   4.679   1.083   9.548 -0.5810 -1.0783  0.3217
 6894TIP3   OH242316   1.626   5.115   1.173  0.4747  0.1960  0.2710
 6894TIP3    H142317   1.647   5.054   1.103  1.0631 -0.9501  1.3958
 6894TIP3    H242318   1.538   5.147   1.152  1.2864  1.2353 -1.8711
 6895TIP3   OH242319   1.725   3.204   8.663 -0.1549  0.2293 -0.4304
 6895TIP3    H142320   1.683   3.279   8.706 -0.1859 -0.8202  1.4634
 6895TIP3    H242321   1.687   3.203   8.575 -3.3447  0.0099  0.8119
 6896TIP3   OH242322   3.050   1.894   8.489 -0.2603  0.3905 -0.3700
 6896TIP3    H142323   3.090   1.826   8.435 -1.4798 -0.6148 -0.0446
 6896TIP3    H242324   3.059   1.974   8.436  0.8050 -0.0860 -0.9457
 6897TIP3   OH242325   3.632   5.243   8.815  0.0613 -0.1840  0.2655
 6897TIP3    H142326   3.722   5.211   8.802  0.1393 -0.0968  0.5882
 6897TIP3    H242327   3.585   5.211   8.738  0.3071 -0.4537  0.2210
 6898TIP3   OH242328   2.900   0.156   1.331 -0.3522 -0.2295 -0.0665
 6898TIP3    H142329   2.877   0.239   1.373 -0.6847 -0.3659  0.0229
 6898TIP3    H242330   2.985   0.133   1.368 -1.3292 -1.1469  1.7330
 6899TIP3   OH242331   2.526   3.854   0.654 -0.3207  0.2398  0.1439
 6899TIP3    H142332   2.528   3.843   0.749 -0.4405  0.7635  0.2111
 6899TIP3    H242333   2.433   3.862   0.632 -0.5406 -2.7446 -0.3812
 6900TIP3   OH242334   1.289   4.201   8.274  0.1663 -0.0404  0.3137
 6900TIP3    H142335   1.271   4.209   8.368 -1.8846  0.6821 -0.0977
 6900TIP3    H242336   1.354   4.269   8.257 -1.8803  2.1409  0.6700
 6901TIP3   OH242337   3.530   6.016   0.416  0.2249 -0.1375 -0.2351
 6901TIP3    H142338   3.614   6.058   0.401 -1.1282  2.5196 -0.9742
 6901TIP3    H242339   3.493   6.004   0.328 -0.7668  0.0706  0.1461
 6902TIP3   OH242340   1.590   4.319   9.008  0.2760  0.0279  0.0565
 6902TIP3    H142341   1.573   4.273   9.091  0.5120 -0.2421 -0.0436
 6902TIP3    H242342   1.521   4.385   9.003 -0.9340 -1.2207 -0.4610
 6903TIP3   OH242343   0.317   4.589   9.666  0.1513 -0.7304 -0.3022
 6903TIP3    H142344   0.305   4.501   9.701 -1.8179  0.0566  1.1336
 6903TIP3    H242345   0.335   4.643   9.742 -2.2031  0.6868 -0.6690
 6904TIP3   OH242346   3.833   2.122   2.889 -0.1244  0.3090 -0.4475
 6904TIP3    H142347   3.766   2.187   2.869 -1.1384 -0.1945  1.0639
 6904TIP3    H242348   3.787   2.038   2.881  1.1078 -0.2360 -2.1857
 6905TIP3   OH242349   2.305   2.603   0.153  0.5578 -0.2194 -0.7634
 6905TIP3    H142350   2.221   2.643   0.175  0.1690 -0.5708 -1.5857
 6905TIP3    H242351   2.354   2.604   0.235  0.0174  0.6311 -0.4434
 6906TIP3   OH242352   1.393   3.693   0.773  0.2762 -0.3366 -0.0871
 6906TIP3    H142353   1.334   3.650   0.711 -1.0362  1.3152 -0.0433
 6906TIP3    H242354   1.469   3.717   0.721  0.5578 -1.7045 -0.3418
 6907TIP3   OH242355   2.751   4.087   1.933 -0.4844 -0.2688 -0.1992
 6907TIP3    H142356   2.758   4.179   1.906 -1.7316 -0.1956 -0.3602
 6907TIP3    H242357   2.798   4.082   2.016  1.0968  0.1105 -1.0251
 6908TIP3   OH242358   3.185   5.038   0.049  0.1251  0.3523  0.2018
 6908TIP3    H142359   3.092   5.041   0.072  0.0048  0.9546 -0.3279
 6908TIP3    H242360   3.191   5.088  -0.033  1.0884  1.2954  0.8297
 6909TIP3   OH242361   1.192   4.419   1.003 -0.5650 -0.1390  0.1019
 6909TIP3    H142362   1.196   4.458   0.915 -0.5435 -1.0389 -0.3053
 6909TIP3    H242363   1.192   4.494   1.062  0.3060  0.4632 -0.6351
 6910TIP3   OH242364   0.853   2.961   1.197 -0.2566  0.9396  0.4543
 6910TIP3    H142365   0.849   2.935   1.105  0.9081  0.1882  0.5890
 6910TIP3    H242366   0.934   3.011   1.205 -0.1040  0.5950  1.1627
 6911TIP3   OH242367   2.066   4.365   3.272 -0.9385  0.9161  0.2402
 6911TIP3    H142368   2.051   4.447   3.320  0.6991  1.0433  0.5997
 6911TIP3    H242369   2.158   4.344   3.289 -0.8023  0.0193 -1.4193
 6912TIP3   OH242370   2.406   3.139   9.269  0.0724  0.4494 -0.3629
 6912TIP3    H142371   2.462   3.088   9.209 -1.5663  0.3396 -1.8846
 6912TIP3    H242372   2.320   3.098   9.262 -0.6487  1.7474  0.5064
 6913TIP3   OH242373   4.891   2.919   3.373  0.3613 -0.5519 -0.6744
 6913TIP3    H142374   4.971   2.947   3.417 -0.2714 -1.6337  1.2653
 6913TIP3    H242375   4.878   2.829   3.401 -1.9407 -0.1763 -0.3193
 6914TIP3   OH242376   0.634   2.244   3.397  0.2492  0.1271 -0.4905
 6914TIP3    H142377   0.669   2.320   3.351  1.6263 -0.0109  0.2810
 6914TIP3    H242378   0.701   2.222   3.462 -0.8797 -0.7223  0.4243
 6915TIP3   OH242379   4.459   4.876   0.801 -0.1795  0.0388  0.0673
 6915TIP3    H142380   4.548   4.851   0.824 -1.0121 -1.6412  1.7968
 6915TIP3    H242381   4.444   4.836   0.715  0.7006  0.3141 -0.2263
 6916TIP3   OH242382   3.765   0.507   0.341 -0.1327 -0.5307 -0.1359
 6916TIP3    H142383   3.840   0.565   0.352 -0.9164  0.5150 -0.1967
 6916TIP3    H242384   3.690   0.559   0.369 -0.8686 -1.4986 -0.2481
 6917TIP3   OH242385   6.174   3.754   9.177  0.1018  0.3415 -0.7620
 6917TIP3    H142386   6.080   3.733   9.179  0.1907 -0.3733 -2.5275
 6917TIP3    H242387   6.214   3.682   9.226 -0.3801  1.7751  1.9369
 6918TIP3   OH242388   4.412   5.494   2.743 -0.2731 -0.2342 -0.0268
 6918TIP3    H142389   4.445   5.438   2.813 -1.6149 -1.6295 -0.4279
 6918TIP3    H242390   4.411   5.437   2.666 -0.3402  0.7818 -0.7928
 6919TIP3   OH242391   1.617   5.878   8.163 -0.0750  0.5673 -0.5118
 6919TIP3    H142392   1.544   5.818   8.148  0.5840 -0.0909 -1.1410
 6919TIP3    H242393   1.680   5.856   8.095  1.4819 -0.0797  1.0747
 6920TIP3   OH242394   6.085   3.592   2.819 -0.2813  0.4325  0.0669
 6920TIP3    H142395   6.092   3.520   2.882 -0.1985  0.7383  0.4056
 6920TIP3    H242396   6.115   3.669   2.866  2.6647  0.2036 -1.1817
 6921TIP3   OH242397   0.414   1.929   1.357  0.2208  0.2255 -0.5408
 6921TIP3    H142398   0.376   1.972   1.280 -0.1275 -1.5424 -1.4063
 6921TIP3    H242399   0.426   2.000   1.420 -2.6270  1.2273 -0.9541
 6922TIP3   OH242400   4.061   4.288   9.562  0.1467 -0.4297  0.0462
 6922TIP3    H142401   4.115   4.302   9.484 -0.9618 -0.2180 -0.7040
 6922TIP3    H242402   4.043   4.375   9.595 -0.3809 -0.4535 -0.1674
 6923TIP3   OH242403   2.371   1.854   9.536  0.0102  0.2443 -0.3883
 6923TIP3    H142404   2.437   1.854   9.467 -0.7219 -1.1688 -1.1301
 6923TIP3    H242405   2.421   1.869   9.617  1.0060  0.8416 -1.1018
 6924TIP3   OH242406   0.004   3.806   2.742 -0.4417  0.7458 -0.7642
 6924TIP3    H142407  -0.046   3.771   2.669 -0.2120 -2.1385  0.3201
 6924TIP3    H242408  -0.048   3.879   2.774 -2.2524 -0.0628 -1.7296
 6925TIP3   OH242409   3.145   1.336   0.113  0.9458  0.2516 -0.0579
 6925TIP3    H142410   3.149   1.308   0.021  1.6113 -1.0428  0.3388
 6925TIP3    H242411   3.214   1.285   0.156  0.9794  1.2197  1.0684
 6926TIP3   OH242412   3.122   0.479   0.119  0.2975  0.2581  0.3819
 6926TIP3    H142413   3.093   0.477   0.211 -2.4814  1.0116 -0.3713
 6926TIP3    H242414   3.090   0.396   0.083  2.0397 -0.3787  0.2055
 6927TIP3   OH242415   1.313   3.013   9.988  0.2003 -0.0612 -0.2540
 6927TIP3    H142416   1.262   2.938   9.957 -0.3078  0.7619 -1.4681
 6927TIP3    H242417   1.249   3.082  10.002  0.4628 -0.2412  2.3027
 6928TIP3   OH242418   0.584   2.991   0.741 -0.2801  0.3269  0.6590
 6928TIP3    H142419   0.490   2.980   0.758 -0.9334  4.7094  1.1940
 6928TIP3    H242420   0.594   2.977   0.647 -1.2053 -1.2013  0.7550
 6929TIP3   OH242421   4.361   3.576   1.397  0.0302 -0.1761 -0.1237
 6929TIP3    H142422   4.334   3.574   1.489 -0.4195  0.5539 -0.2317
 6929TIP3    H242423   4.322   3.656   1.362  1.2715  0.2235 -0.6352
 6930TIP3   OH242424   2.455   2.086   0.687  0.5019 -0.1423  0.5991
 6930TIP3    H142425   2.507   2.035   0.625 -0.8396 -1.3556  0.4117
 6930TIP3    H242426   2.482   2.177   0.672 -0.2122 -0.3015 -2.2894
 6931TIP3   OH242427   2.385   3.684   1.532  0.2475  0.3002  0.6285
 6931TIP3    H142428   2.458   3.742   1.552  2.4139 -1.4496 -1.5534
 6931TIP3    H242429   2.386   3.619   1.603  1.8086 -0.5243 -0.1033
 6932TIP3   OH242430   5.334   1.532   2.799 -0.3947 -0.0453 -0.8095
 6932TIP3    H142431   5.420   1.502   2.828 -0.3033  2.7460  2.4295
 6932TIP3    H242432   5.274   1.461   2.823  0.6827 -1.0109 -0.9018
 6933TIP3   OH242433   0.194   0.286   0.625 -0.0052 -0.3039  0.1733
 6933TIP3    H142434   0.234   0.243   0.700 -0.4732 -0.5978  0.2581
 6933TIP3    H242435   0.268   0.311   0.569  0.3745  0.2946  0.9235
 6934TIP3   OH242436   1.071   2.417   0.237  0.3264  0.8077 -0.1057
 6934TIP3    H142437   1.051   2.411   0.330 -0.2056 -0.5231 -0.2773
 6934TIP3    H242438   1.155   2.462   0.233  1.2589 -0.7131  1.1460
 6935TIP3   OH242439   1.105   5.953   8.803  0.7658  0.4330 -0.1029
 6935TIP3    H142440   1.037   5.972   8.868  0.6789  0.6127 -0.2455
 6935TIP3    H242441   1.061   5.962   8.719 -0.1397 -3.3964 -0.2059
 6936TIP3   OH242442   2.055   5.173   2.958 -0.1609 -0.6808  0.0610
 6936TIP3    H142443   1.962   5.166   2.979 -0.0233 -1.1921  0.5459
 6936TIP3    H242444   2.098   5.166   3.043  0.2685  0.7724 -0.0237
 6937TIP3   OH242445   1.411   1.209  10.006  0.1088  0.0895 -0.0959
 6937TIP3    H142446   1.366   1.151  10.068 -0.4696  0.8839  0.2473
 6937TIP3    H242447   1.504   1.188  10.017 -0.1066 -0.9747 -0.1977
 6938TIP3   OH242448   4.084   3.917   9.902 -0.1077  0.3934 -0.3828
 6938TIP3    H142449   4.112   3.867   9.978  1.7423  0.8431 -0.7336
 6938TIP3    H242450   4.125   4.003   9.913 -2.6674  1.6883 -0.1191
 6939TIP3   OH242451   1.755   3.848   1.680 -0.1914  0.1222  0.2527
 6939TIP3    H142452   1.826   3.807   1.630 -0.9032  0.7847 -1.3891
 6939TIP3    H242453   1.721   3.778   1.736 -0.0514 -0.9610 -0.9762
 6940TIP3   OH242454   2.813   6.183   8.360 -0.1822  0.3332 -0.2974
 6940TIP3    H142455   2.794   6.089   8.363  0.7637  0.0907 -1.4277
 6940TIP3    H242456   2.860   6.200   8.442 -0.2435 -0.2096 -0.1451
 6941TIP3   OH242457   0.516   5.902   0.582  0.1411  0.3462 -0.1314
 6941TIP3    H142458   0.472   5.817   0.590 -0.0301  0.3985 -0.4983
 6941TIP3    H242459   0.603   5.887   0.619 -0.4243  0.4468  1.3262
 6942TIP3   OH242460   1.152   3.664  10.015 -0.6053 -0.2759  0.1870
 6942TIP3    H142461   1.084   3.600  10.038  2.0961 -3.0875  1.0139
 6942TIP3    H242462   1.231   3.630  10.056  1.2020  3.2576 -0.0653
 6943TIP3   OH242463   5.660   3.010   3.049 -0.5386 -0.0582 -0.1773
 6943TIP3    H142464   5.585   3.010   2.990 -0.4895  0.0605 -0.2377
 6943TIP3    H242465   5.673   3.102   3.073  0.7807  0.1915 -1.6680
 6944TIP3   OH242466   3.680   0.726   0.721  0.4532  0.3055 -0.3301
 6944TIP3    H142467   3.614   0.787   0.751 -0.0899  0.4298 -1.7300
 6944TIP3    H242468   3.731   0.705   0.800  0.2518  2.0335  0.3025
 6945TIP3   OH242469   2.882   3.036   2.448 -0.3244  0.0779  0.2225
 6945TIP3    H142470   2.891   3.108   2.511 -0.5714 -0.6981  1.1644
 6945TIP3    H242471   2.898   2.957   2.499 -1.9013 -0.6611 -0.3681
 6946TIP3   OH242472   6.297   4.408   2.201 -0.5214  0.0894 -0.7097
 6946TIP3    H142473   6.327   4.473   2.137 -1.9753  1.0396 -0.4681
 6946TIP3    H242474   6.202   4.409   2.193 -0.6382 -0.9470  0.3592
 6947TIP3   OH242475   3.436   5.926   1.488 -0.3471  0.3767 -0.4401
 6947TIP3    H142476   3.438   6.021   1.502  0.2831  0.1216  1.4249
 6947TIP3    H242477   3.528   5.900   1.495 -0.7800 -0.7452  2.2203
 6948TIP3   OH242478   0.621   0.887   1.284  0.0624 -0.1745  0.3256
 6948TIP3    H142479   0.652   0.907   1.196  0.1269 -2.5374 -0.2507
 6948TIP3    H242480   0.526   0.900   1.280  0.0438 -0.4633 -0.1498
 6949TIP3   OH242481   1.540   6.245   0.450  0.5142 -0.0800 -0.6523
 6949TIP3    H142482   1.513   6.288   0.369  0.6053  0.2565 -0.5072
 6949TIP3    H242483   1.539   6.152   0.429 -0.0058 -0.0292 -0.8770
 6950TIP3   OH242484   0.082   2.734   9.440 -0.0962  0.1178  0.4557
 6950TIP3    H142485   0.005   2.751   9.387  0.5841  0.5209 -0.4230
 6950TIP3    H242486   0.152   2.783   9.398  1.1022 -1.8357  0.0302
 6951TIP3   OH242487   0.552   2.726   1.760 -0.2310 -0.2588 -0.4404
 6951TIP3    H142488   0.589   2.754   1.844 -2.4522  2.0037 -0.0653
 6951TIP3    H242489   0.464   2.696   1.782 -0.3638 -0.9601 -1.8087
 6952TIP3   OH242490   5.349   3.904   3.067 -0.2234 -0.0550  0.4963
 6952TIP3    H142491   5.376   3.982   3.017  0.0750 -0.7615 -0.4814
 6952TIP3    H242492   5.310   3.846   3.001 -2.0279 -0.0364  1.5002
 6953TIP3   OH242493   3.848   0.983   1.331 -0.1100 -0.3418 -0.1599
 6953TIP3    H142494   3.802   1.054   1.286  0.7454 -0.5811 -1.4761
 6953TIP3    H242495   3.858   1.014   1.421  1.1751  1.7317 -0.9318
 6954TIP3   OH242496   5.764   5.409   9.525  0.0419 -0.0556  0.1158
 6954TIP3    H142497   5.699   5.343   9.499  2.0953 -2.6820  1.2053
 6954TIP3    H242498   5.764   5.407   9.621  0.0575  1.6962  0.1828
 6955TIP3   OH242499   4.226   0.536   1.040  0.6983  0.1661 -0.4856
 6955TIP3    H142500   4.257   0.569   1.124 -1.3582 -0.7386  0.7328
 6955TIP3    H242501   4.300   0.488   1.004  1.5572  0.3516  0.9515
 6956TIP3   OH242502   6.204   1.941   1.580 -0.1717  0.0306  0.3701
 6956TIP3    H142503   6.228   1.935   1.488  0.3352 -2.2829  0.5930
 6956TIP3    H242504   6.108   1.933   1.580 -0.0812 -1.1928  0.1005
 6957TIP3   OH242505   3.748   5.509   0.816 -0.4272 -0.0273  0.0655
 6957TIP3    H142506   3.694   5.443   0.772 -1.1451 -0.1433  1.0730
 6957TIP3    H242507   3.824   5.519   0.760 -1.0844 -0.5101 -0.9486
 6958TIP3   OH242508   2.333   4.204   7.681  0.8097  0.5502 -0.3642
 6958TIP3    H142509   2.253   4.241   7.717  0.9083 -2.5827  3.8088
 6958TIP3    H242510   2.303   4.131   7.626  0.7463 -0.1707  0.6117
 6959TIP3   OH242511   5.637   5.980  10.011  0.0851 -0.1480 -0.7911
 6959TIP3    H142512   5.557   5.985   9.959 -0.6601 -2.4638  0.0025
 6959TIP3    H242513   5.629   6.052  10.074  0.8608  2.5178 -3.4892
 6960TIP3   OH242514   1.565   1.458   7.906 -0.2398 -0.5637 -0.8772
 6960TIP3    H142515   1.484   1.414   7.930 -0.3218  0.1269  0.1762
 6960TIP3    H242516   1.588   1.510   7.983  1.1917 -0.7264 -1.1618
 6961TIP3   OH242517   2.051   3.944   9.492  0.0382  0.3354 -0.0150
 6961TIP3    H142518   2.023   3.877   9.429 -0.6100  0.3382  0.2651
 6961TIP3    H242519   2.073   4.020   9.439  0.9849 -0.1508 -0.3591
 6962TIP3   OH242520   1.620   1.945   1.594 -0.5707 -0.0454 -0.0430
 6962TIP3    H142521   1.671   1.885   1.540  1.1068  0.3954  0.9831
 6962TIP3    H242522   1.659   1.938   1.681 -2.4787  0.1062  0.8774
 6963TIP3   OH242523   6.117   3.219   9.378 -0.1134  0.3221  0.6913
 6963TIP3    H142524   6.143   3.224   9.470  0.8315 -0.4597  0.4860
 6963TIP3    H242525   6.029   3.256   9.376  0.3011  1.4082  1.7148
 6964TIP3   OH242526   1.749   3.261   8.960  0.2526 -0.1527 -0.0114
 6964TIP3    H142527   1.821   3.212   8.921 -0.2390 -0.1575 -0.9509
 6964TIP3    H242528   1.712   3.202   9.026  2.2472  0.5396  1.8612
 6965TIP3   OH242529   1.484   1.603   1.295  0.0686  0.4604 -0.6996
 6965TIP3    H142530   1.475   1.563   1.381  0.3765  0.5073 -0.6453
 6965TIP3    H242531   1.534   1.683   1.310 -0.8632  1.0605 -0.7565
 6966TIP3   OH242532   0.831   0.756   8.591 -0.0356  0.3574  0.0432
 6966TIP3    H142533   0.758   0.695   8.587  0.6062 -0.3720 -2.2726
 6966TIP3    H242534   0.791   0.840   8.613 -1.0692 -0.6085  2.2638
 6967TIP3   OH242535   5.433   1.608   0.766  0.1262 -0.0542  0.2400
 6967TIP3    H142536   5.355   1.616   0.711  1.5353 -1.4424 -2.1252
 6967TIP3    H242537   5.402   1.568   0.847 -1.8482  1.0068  0.0709
 6968TIP3   OH242538   1.784   0.729   8.447 -0.4689 -0.1477 -0.2870
 6968TIP3    H142539   1.829   0.809   8.424 -0.4405  0.3046  1.2461
 6968TIP3    H242540   1.750   0.696   8.363  0.5358  0.8056 -1.1057
 6969TIP3   OH242541   5.646   6.032   1.504 -0.1404 -0.4996  0.1550
 6969TIP3    H142542   5.691   6.104   1.461  1.3867 -1.8708 -0.6584
 6969TIP3    H242543   5.606   6.071   1.582  1.4862  1.0290  0.2750
 6970TIP3   OH242544   5.431   4.767   1.097  0.2620 -0.4129 -0.0301
 6970TIP3    H142545   5.525   4.754   1.109  0.2960 -0.6347 -0.5250
 6970TIP3    H242546   5.422   4.799   1.007  0.0056  1.1489  0.5092
 6971TIP3   OH242547   2.641   2.607   8.484  0.5171 -0.2643 -0.1272
 6971TIP3    H142548   2.563   2.567   8.446 -0.6280 -0.4324  2.2562
 6971TIP3    H242549   2.691   2.534   8.520  0.6833  0.0452  0.2724
 6972TIP3   OH242550   5.705   0.153   1.917  0.1554 -0.2877  0.2815
 6972TIP3    H142551   5.687   0.091   1.847 -2.2201  0.5167  0.1003
 6972TIP3    H242552   5.720   0.099   1.995  1.1991 -1.1244 -0.4710
 6973TIP3   OH242553   3.335   5.406   8.952 -0.3660 -0.3661 -0.6565
 6973TIP3    H142554   3.263   5.387   9.012 -0.7744  1.5437 -0.4894
 6973TIP3    H242555   3.320   5.349   8.877 -0.9741 -1.3389  0.1832
 6974TIP3   OH242556   2.101   2.409   3.095  0.0230  0.0468  0.4388
 6974TIP3    H142557   2.178   2.353   3.089  0.5515  0.9274 -3.1630
 6974TIP3    H242558   2.027   2.349   3.105  0.7544 -1.2427 -1.3724
 6975TIP3   OH242559   5.828   5.859   9.107  0.2727 -0.3174 -0.3988
 6975TIP3    H142560   5.897   5.904   9.156 -0.9195  1.4818 -0.2926
 6975TIP3    H242561   5.875   5.809   9.040  1.6644  1.7271 -1.0394
 6976TIP3   OH242562   5.597   3.852   2.173 -0.8711 -0.2877  0.2147
 6976TIP3    H142563   5.666   3.790   2.151 -1.4379 -1.7513  2.3085
 6976TIP3    H242564   5.541   3.855   2.095 -0.4930 -1.9665 -0.1424
 6977TIP3   OH242565   2.440   2.060   8.550 -0.0757  0.3650 -0.5654
 6977TIP3    H142566   2.428   2.100   8.464 -1.5797 -0.5734 -0.8143
 6977TIP3    H242567   2.364   2.004   8.562  0.5180 -0.1575  1.0389
 6978TIP3   OH242568   0.602   5.640   8.777 -0.3767  0.5380 -0.4873
 6978TIP3    H142569   0.689   5.660   8.812 -0.8161  1.4646  0.1175
 6978TIP3    H242570   0.557   5.595   8.849  0.0203 -1.1465 -1.2482
 6979TIP3   OH242571   1.838   5.133   8.078  0.5897 -0.2502  0.2018
 6979TIP3    H142572   1.892   5.069   8.124  0.3313 -1.8809 -1.5823
 6979TIP3    H242573   1.900   5.186   8.029  0.7504  0.2481  0.9311
 6980TIP3   OH242574   5.440   4.806   9.099 -0.0268  0.1207  0.1195
 6980TIP3    H142575   5.390   4.775   9.024 -0.1047 -2.2520  1.0525
 6980TIP3    H242576   5.491   4.730   9.127  1.9758  1.6585  0.9305
 6981TIP3   OH242577   0.592   0.346   6.824  0.2773  0.2401 -0.0268
 6981TIP3    H142578   0.526   0.296   6.872  2.2290  0.1955  2.8819
 6981TIP3    H242579   0.645   0.280   6.781  0.9024 -0.0576  1.1422
 6982TIP3   OH242580   1.493   0.455   0.990  0.3036 -0.2104  0.0730
 6982TIP3    H142581   1.434   0.491   1.055 -0.6653  1.3436 -1.5716
 6982TIP3    H242582   1.487   0.515   0.916  0.1861 -2.6478 -2.0418
 6983TIP3   OH242583   6.108   0.077   2.473  0.2255  0.4621  0.0913
 6983TIP3    H142584   6.130   0.170   2.472 -0.3713  0.6040 -0.8996
 6983TIP3    H242585   6.028   0.072   2.526 -0.1867  0.6304 -0.5018
 6984TIP3   OH242586   2.769   0.574   8.723  0.4712  0.4195 -0.2395
 6984TIP3    H142587   2.846   0.518   8.720  1.1644  1.3581 -0.3824
 6984TIP3    H242588   2.696   0.515   8.701  1.0491 -0.6175  0.5325
 6985TIP3   OH242589   1.284   5.496   7.467  0.2356 -0.1864  0.6501
 6985TIP3    H142590   1.225   5.475   7.395  1.2231 -0.6896 -0.0318
 6985TIP3    H242591   1.369   5.460   7.441  0.7521  0.1225  1.8064
 6986TIP3   OH242592   0.614   4.553   9.959 -0.3191 -0.5610  0.3886
 6986TIP3    H142593   0.671   4.601   9.899  0.4708 -1.9123  0.0100
 6986TIP3    H242594   0.596   4.470   9.913 -2.3169 -0.3302  0.6469
 6987TIP3   OH242595   5.577   4.814   0.191  0.2471 -0.5025 -0.3251
 6987TIP3    H142596   5.542   4.885   0.136  1.0287 -0.7356 -1.1394
 6987TIP3    H242597   5.603   4.857   0.272 -1.9787 -0.3292  0.3573
 6988TIP3   OH242598   3.757   0.531   7.926 -0.1431 -0.0899  0.1082
 6988TIP3    H142599   3.823   0.554   7.992  2.2936 -3.0566 -1.0258
 6988TIP3    H242600   3.785   0.577   7.847  0.5957 -1.2257 -0.3309
 6989TIP3   OH242601   0.797   4.915   1.466 -0.2094  0.1180 -0.2083
 6989TIP3    H142602   0.860   4.943   1.533 -2.0035  1.0236  1.1848
 6989TIP3    H242603   0.816   4.822   1.453  1.0027  0.2218  0.6390
 6990TIP3   OH242604   6.277   1.863   2.035 -0.0967  0.1896 -0.7362
 6990TIP3    H142605   6.215   1.895   1.968 -0.1568 -0.7275 -1.1299
 6990TIP3    H242606   6.223   1.812   2.095 -0.0708  1.1646  0.1329
 6991TIP3   OH242607   1.253   5.579   2.302  1.0341  0.1813 -0.4267
 6991TIP3    H142608   1.335   5.605   2.259  0.6161 -0.2859 -1.5453
 6991TIP3    H242609   1.201   5.540   2.232  0.6630 -1.3960  0.6697
 6992TIP3   OH242610   3.980   2.007   2.407  0.3600  0.4567 -0.4651
 6992TIP3    H142611   3.997   2.096   2.375  1.8186 -0.0478 -1.1670
 6992TIP3    H242612   4.054   1.956   2.377 -1.6661 -1.6184 -2.3556
 6993TIP3   OH242613   0.957   3.461   0.103 -0.5116 -0.5735 -0.2666
 6993TIP3    H142614   0.976   3.470   0.197  0.0676  1.0587 -0.5119
 6993TIP3    H242615   0.862   3.470   0.096 -0.5340 -0.4871  0.1364
 6994TIP3   OH242616   1.674   5.693   9.917  0.2416 -0.7416  0.0691
 6994TIP3    H142617   1.767   5.710   9.902  0.3907 -2.7191 -1.7621
 6994TIP3    H242618   1.671   5.607   9.959 -0.7771 -0.9722 -0.4321
 6995TIP3   OH242619   2.208   4.269   9.294  0.6158  0.3803  0.0678
 6995TIP3    H142620   2.123   4.236   9.320  0.9195  0.7192  1.5879
 6995TIP3    H242621   2.194   4.363   9.278  0.7367  0.4634  0.4566
 6996TIP3   OH242622   0.741   0.498   2.527 -0.4227 -0.2752  0.2489
 6996TIP3    H142623   0.745   0.409   2.492 -0.9212 -0.3809  0.4588
 6996TIP3    H242624   0.811   0.501   2.593 -1.6793 -1.1445  1.6738
 6997TIP3   OH242625   0.981   3.188   0.411 -0.5460 -0.4877  0.3724
 6997TIP3    H142626   0.944   3.276   0.417  0.1250 -0.2132  0.5198
 6997TIP3    H242627   0.934   3.138   0.478  0.0402  0.1087  1.2412
 6998TIP3   OH242628   0.656   2.725   9.152 -0.0779  0.5322 -0.1212
 6998TIP3    H142629   0.596   2.756   9.084 -1.5576 -1.9653 -0.0867
 6998TIP3    H242630   0.645   2.630   9.152  2.3944  0.1568  1.3490
 6999TIP3   OH242631   6.078   3.397   2.997 -0.3416  0.1694  0.1597
 6999TIP3    H142632   6.074   3.305   2.973 -1.4269  0.0718  0.6516
 6999TIP3    H242633   5.998   3.412   3.048  0.4084  1.0870  1.1120
 7000TIP3   OH242634   0.701   4.960   9.982 -0.5012 -0.8853 -0.2051
 7000TIP3    H142635   0.684   5.051  10.008  0.9439 -0.3278 -1.0939
 7000TIP3    H242636   0.787   4.963   9.942 -0.5857 -2.6084 -0.5633
 7001TIP3   OH242637   4.100   1.201   2.597  0.5363  0.4630  0.1332
 7001TIP3    H142638   4.057   1.186   2.681  1.2209  0.7393  0.5399
 7001TIP3    H242639   4.186   1.236   2.620  0.8539  0.2274 -0.6785
 7002TIP3   OH242640   1.197   5.135   0.649 -0.5470 -0.1495 -0.2210
 7002TIP3    H142641   1.130   5.188   0.607  1.9120  1.6582 -2.1650
 7002TIP3    H242642   1.215   5.180   0.732 -1.4104 -0.4317  0.1331
 7003TIP3   OH242643   2.232   4.655   1.551  0.1522  0.2938  0.4523
 7003TIP3    H142644   2.225   4.668   1.457  0.6583 -1.4590  0.1349
 7003TIP3    H242645   2.325   4.643   1.568 -0.0782 -1.0988  0.8918
 7004TIP3   OH242646   1.851   2.915   8.244 -0.2061 -0.1118  0.0986
 7004TIP3    H142647   1.807   2.875   8.169 -1.7288  1.0286  0.3160
 7004TIP3    H242648   1.884   2.998   8.210 -0.5120  0.2072  0.5756
 7005TIP3   OH242649   2.339   2.772   1.668  0.2862 -0.4269  0.4360
 7005TIP3    H142650   2.271   2.726   1.717 -1.3163  1.7924  0.4295
 7005TIP3    H242651   2.308   2.772   1.578  0.6412 -0.0330  0.3110
 7006TIP3   OH242652   4.438   5.799   9.194 -0.6257 -0.3775 -0.3693
 7006TIP3    H142653   4.501   5.750   9.142  1.8114  1.3930  0.7002
 7006TIP3    H242654   4.367   5.818   9.133  0.4818 -1.3076 -2.0555
 7007TIP3   OH242655   4.832   0.041   8.709 -0.1973  0.3500 -0.0522
 7007TIP3    H142656   4.790   0.095   8.777 -2.4151 -0.3039 -0.7946
 7007TIP3    H242657   4.778   0.055   8.631  0.8398 -0.7881 -1.0088
 7008TIP3   OH242658   5.363   2.947   8.515 -0.2415  0.0276 -0.4624
 7008TIP3    H142659   5.356   3.009   8.442  2.6343 -1.4451 -2.1583
 7008TIP3    H242660   5.437   2.980   8.566 -0.9162 -0.1243  0.6361
 7009TIP3   OH242661   5.578   1.161   9.289 -0.3843  0.3321  0.2712
 7009TIP3    H142662   5.640   1.145   9.360 -0.3756  1.0272  0.4268
 7009TIP3    H242663   5.498   1.188   9.333 -0.8734 -0.7513  0.0802
 7010TIP3   OH242664   5.017   3.565   9.719 -0.4134  0.0875  0.0498
 7010TIP3    H142665   5.070   3.612   9.655  0.4545 -0.1721  0.5647
 7010TIP3    H242666   4.935   3.614   9.723  0.1425  1.0440 -0.0691
 7011TIP3   OH242667   3.627   3.935   3.147  0.1708  0.0149  0.2811
 7011TIP3    H142668   3.639   3.854   3.196 -3.2083 -1.2745 -0.7170
 7011TIP3    H242669   3.596   3.998   3.212  0.5791 -0.1705  0.6589
 7012TIP3   OH242670   0.950   4.445   2.820 -0.6061  0.1169  0.1543
 7012TIP3    H142671   0.964   4.506   2.892 -0.9467 -0.0977  0.4022
 7012TIP3    H242672   1.008   4.372   2.839 -1.0549 -0.1571  0.4628
 7013TIP3   OH242673   3.114   5.208   9.876 -0.4727 -0.3993 -0.0955
 7013TIP3    H142674   3.036   5.203   9.931 -0.2876 -0.0129  0.2047
 7013TIP3    H242675   3.085   5.255   9.798 -0.2925  0.6643  0.4622
 7014TIP3   OH242676   0.026   5.783   9.060  0.4540 -0.0177  0.6588
 7014TIP3    H142677  -0.067   5.796   9.080  0.6064  2.6397 -0.0278
 7014TIP3    H242678   0.071   5.795   9.144  0.4370  2.9040  0.3479
 7015TIP3   OH242679   5.008   5.185   8.142 -0.0779 -0.0905 -0.1755
 7015TIP3    H142680   4.913   5.200   8.138 -0.0309 -0.0340 -2.1748
 7015TIP3    H242681   5.044   5.272   8.161 -0.4096 -0.0815  0.4500
 7016TIP3   OH242682   5.258   1.830   8.734  0.4467 -0.4838  0.1777
 7016TIP3    H142683   5.247   1.858   8.644 -0.1990 -0.6440  0.2006
 7016TIP3    H242684   5.201   1.887   8.785 -0.7296 -1.6655  0.2456
 7017TIP3   OH242685   5.505   2.694   1.229 -0.2217  0.1060  0.2765
 7017TIP3    H142686   5.439   2.756   1.198  0.0342  0.0085 -0.4905
 7017TIP3    H242687   5.572   2.696   1.161 -0.2953 -1.1492  0.1571
 7018TIP3   OH242688   3.139   6.416   0.403  0.6872  0.0101  0.2861
 7018TIP3    H142689   3.163   6.337   0.355 -2.4428  0.5546 -2.5135
 7018TIP3    H242690   3.050   6.398   0.436  0.0324  2.1813 -0.1125
 7019TIP3   OH242691   5.550   3.446   0.360 -0.1526  0.2770  0.0396
 7019TIP3    H142692   5.462   3.461   0.325 -1.7880 -1.2127  3.1368
 7019TIP3    H242693   5.575   3.359   0.327 -0.0314  0.4798 -0.4171
 7020TIP3   OH242694   1.206   4.762   3.747  0.0982 -1.0238  0.1908
 7020TIP3    H142695   1.243   4.786   3.662 -0.5123  0.9281  0.4157
 7020TIP3    H242696   1.275   4.785   3.810  0.0124 -1.1056  0.3151
 7021TIP3   OH242697   0.062   5.606   2.073  0.3479 -0.6134  0.1129
 7021TIP3    H142698   0.004   5.680   2.057  0.7630  0.1143  1.8379
 7021TIP3    H242699   0.005   5.529   2.073 -0.8344  0.1773  2.7057
 7022TIP3   OH242700   4.518   2.139   3.043 -0.1131 -0.0435  0.8176
 7022TIP3    H142701   4.576   2.213   3.027  0.5758 -0.3786  1.6823
 7022TIP3    H242702   4.573   2.062   3.027 -0.5537 -0.3670  0.8544
 7023TIP3   OH242703   3.687   3.630   2.303  0.4773 -0.0832  0.2581
 7023TIP3    H142704   3.596   3.630   2.273 -0.6961 -2.6052  3.3103
 7023TIP3    H242705   3.702   3.720   2.334 -1.3246  0.1416  0.5985
 7024TIP3   OH242706   2.627   5.251   0.283 -0.3115 -0.3760 -0.4136
 7024TIP3    H142707   2.601   5.249   0.191 -0.1860 -0.1183 -0.4549
 7024TIP3    H242708   2.723   5.247   0.281 -0.2898  0.0252 -0.3089
 7025TIP3   OH242709   1.797   5.396   1.261  0.6679 -0.1649  0.5673
 7025TIP3    H142710   1.821   5.478   1.219  0.9382 -0.5874 -0.1351
 7025TIP3    H242711   1.737   5.354   1.199 -0.1074 -0.1345  1.2882
 7026TIP3   OH242712   0.408   0.461   7.447 -0.0902 -0.0696  0.3035
 7026TIP3    H142713   0.465   0.536   7.466 -0.2330  0.3156 -0.7331
 7026TIP3    H242714   0.423   0.442   7.355 -1.4830 -0.0834  0.0549
 7027TIP3   OH242715   4.020   6.332   2.598  0.2809 -0.0933 -0.2775
 7027TIP3    H142716   3.940   6.281   2.610  1.1622 -1.3144  0.6743
 7027TIP3    H242717   4.011   6.406   2.658  0.5961 -1.1556  1.1185
 7028TIP3   OH242718   2.943   2.637   9.466 -0.5957 -0.0420 -0.0453
 7028TIP3    H142719   2.974   2.564   9.412  0.1813 -0.9581  1.5435
 7028TIP3    H242720   2.939   2.712   9.406 -0.5907 -1.1857 -1.5323
 7029TIP3   OH242721   1.961   4.680   0.144 -0.7634 -0.3790 -0.0408
 7029TIP3    H142722   1.976   4.598   0.190  0.4029 -0.4293 -0.4826
 7029TIP3    H242723   1.995   4.665   0.056  1.0309  1.0712  0.3401
 7030TIP3   OH242724   5.105   3.521   9.355 -0.3734  0.2780 -0.1760
 7030TIP3    H142725   5.091   3.595   9.415 -1.1814  0.5802 -0.7237
 7030TIP3    H242726   5.187   3.481   9.385 -0.4035  0.8425  0.6972
 7031TIP3   OH242727   4.624   0.284   8.157  0.2581 -0.0244 -0.2432
 7031TIP3    H142728   4.601   0.202   8.199 -1.2534  1.8710  2.9926
 7031TIP3    H242729   4.541   0.326   8.137  0.8695  2.1766  1.4454
 7032TIP3   OH242730   4.245   6.172   0.537  0.7128  0.0480 -0.4309
 7032TIP3    H142731   4.230   6.123   0.456  0.8748 -0.7349  0.0012
 7032TIP3    H242732   4.304   6.243   0.512 -0.0604  0.4265 -1.2054
 7033TIP3   OH242733   4.636   5.063   9.069  0.3875 -0.4336  0.1652
 7033TIP3    H142734   4.677   5.050   8.983 -0.9897 -0.7835 -0.4852
 7033TIP3    H242735   4.656   4.983   9.118  0.4495 -0.6201 -0.1601
 7034TIP3   OH242736   5.133   1.592   8.568 -0.0502 -0.2174 -0.3196
 7034TIP3    H142737   5.211   1.618   8.519 -0.3240 -1.1923 -1.3069
 7034TIP3    H242738   5.061   1.636   8.524 -0.3263 -1.3028 -0.9833
 7035TIP3   OH242739   5.851   3.362   9.337 -0.2143 -0.7783 -0.1455
 7035TIP3    H142740   5.775   3.304   9.335 -1.1750  0.4398 -1.4560
 7035TIP3    H242741   5.815   3.447   9.362  0.6505 -0.0860 -1.1735
 7036TIP3   OH242742   3.763   0.208   0.607  0.2035 -0.0983  0.1739
 7036TIP3    H142743   3.837   0.168   0.653  0.0736 -2.0323 -1.1820
 7036TIP3    H242744   3.789   0.299   0.594  1.4484 -0.2141  1.5079
 7037TIP3   OH242745   4.963   4.998   0.915  0.1120  0.2905 -0.3173
 7037TIP3    H142746   4.984   4.979   1.007 -0.6256 -0.2701 -0.2509
 7037TIP3    H242747   4.979   5.092   0.905  1.4794  0.1124  0.0245
 7038TIP3   OH242748   6.260   3.920   0.606 -0.3087  0.4422  0.1979
 7038TIP3    H142749   6.272   4.012   0.580 -0.5857  0.1848 -0.8529
 7038TIP3    H242750   6.165   3.909   0.609 -0.2753  0.0962 -0.0065
 7039TIP3   OH242751   6.088   2.413   1.610  0.1505  0.2436 -0.1609
 7039TIP3    H142752   5.998   2.437   1.589  0.7930  2.3792 -0.7266
 7039TIP3    H242753   6.116   2.359   1.536 -0.9040 -1.1580  0.4299
 7040TIP3   OH242754   6.194   5.663   8.726  0.1706  0.3628 -0.1590
 7040TIP3    H142755   6.172   5.633   8.637  0.4461  0.9310 -0.4228
 7040TIP3    H242756   6.272   5.613   8.749 -1.0670 -1.3109  0.5905
 7041TIP3   OH242757   2.963   2.541   8.691  0.2398  0.2997  0.2581
 7041TIP3    H142758   2.917   2.625   8.693  1.8888  1.4101 -2.2903
 7041TIP3    H242759   3.055   2.564   8.702  0.5655 -1.4630  1.6650
 7042TIP3   OH242760   4.291   5.089  10.031 -0.2140  0.2199 -0.3745
 7042TIP3    H142761   4.359   5.153  10.049 -1.0413  0.6204  1.4873
 7042TIP3    H242762   4.252   5.118   9.948  0.5997  1.0830 -0.4711
 7043TIP3   OH242763   1.637   2.358   9.583  0.6678 -0.3366  0.3791
 7043TIP3    H142764   1.636   2.351   9.678  1.3090 -1.9266  0.3085
 7043TIP3    H242765   1.718   2.314   9.557  0.0609 -0.7177 -0.9522
 7044TIP3   OH242766   4.046   1.543   1.486  0.3511 -0.5667 -0.3487
 7044TIP3    H142767   4.061   1.627   1.444 -1.5144 -0.0197 -0.0141
 7044TIP3    H242768   3.984   1.498   1.428 -0.9457 -0.4851  0.9232
 7045TIP3   OH242769   0.658   0.468   0.532 -0.3660  0.5197 -0.6354
 7045TIP3    H142770   0.680   0.540   0.472  0.8763 -0.0618 -0.9090
 7045TIP3    H242771   0.716   0.481   0.607 -1.4985  0.9003  0.1967
 7046TIP3   OH242772   6.376   3.229   1.581 -0.3007  0.0540 -0.3905
 7046TIP3    H142773   6.420   3.312   1.562  2.2398 -1.3748 -1.1609
 7046TIP3    H242774   6.343   3.199   1.497 -1.6974  0.4637 -0.0294
 7047TIP3   OH242775   1.084   3.891   9.223 -0.2287 -0.4300  0.0652
 7047TIP3    H142776   1.176   3.915   9.211 -0.1301 -0.4846  0.6992
 7047TIP3    H242777   1.055   3.864   9.136  0.4192 -0.6379 -0.0922
 7048TIP3   OH242778   3.100   3.609   2.884 -0.2631  0.0337  0.5200
 7048TIP3    H142779   3.043   3.544   2.842  0.9491 -0.7947  0.0954
 7048TIP3    H242780   3.187   3.592   2.847  0.1885  1.5634  0.8069
 7049TIP3   OH242781   4.509   4.910   0.498 -0.1060 -0.2797 -0.0254
 7049TIP3    H142782   4.419   4.926   0.469 -0.0281 -0.2318 -0.2404
 7049TIP3    H242783   4.531   4.985   0.554 -0.4962 -0.7074  0.7267
 7050TIP3   OH242784   0.438   6.261   2.507 -0.2482 -0.1424  0.0432
 7050TIP3    H142785   0.387   6.232   2.583 -0.2007 -0.2811  0.0211
 7050TIP3    H242786   0.513   6.307   2.545 -0.5844  0.3915  0.0726
 7051TIP3   OH242787   6.140   5.825   0.452 -0.3136 -0.1962 -0.2894
 7051TIP3    H142788   6.153   5.916   0.424 -0.6784  0.2115  0.7940
 7051TIP3    H242789   6.163   5.826   0.545 -0.3929 -1.2038 -0.2536
 7052TIP3   OH242790   4.273   0.433   8.754 -0.1360 -0.6835 -0.4672
 7052TIP3    H142791   4.266   0.359   8.693 -2.3527  0.9163 -2.3673
 7052TIP3    H242792   4.351   0.480   8.726  1.0825 -2.0155  0.5209
 7053TIP3   OH242793   3.727   2.796   2.104  0.1210 -0.1669 -0.4125
 7053TIP3    H142794   3.688   2.868   2.153 -0.2737 -1.4733  1.2685
 7053TIP3    H242795   3.811   2.831   2.073 -0.8205  1.5506 -1.1165
 7054TIP3   OH242796   5.250   1.016   0.644  0.3036 -0.2612 -0.3415
 7054TIP3    H142797   5.203   1.058   0.572  0.4526 -1.1893 -0.9920
 7054TIP3    H242798   5.202   1.044   0.723 -0.9040 -0.6013 -0.9234
 7055TIP3   OH242799   6.108   3.171   0.235  0.2981 -0.1515  0.5821
 7055TIP3    H142800   6.048   3.098   0.252 -0.6489  0.6924  0.9269
 7055TIP3    H242801   6.186   3.150   0.288 -0.3235 -0.4739  1.3930
 7056TIP3   OH242802   4.088   4.007   3.120  0.0268  0.0529 -0.4189
 7056TIP3    H142803   4.145   3.937   3.090 -1.0712 -0.9754 -0.1599
 7056TIP3    H242804   4.145   4.063   3.174  0.8210 -0.8529 -0.2986
 7057TIP3   OH242805   4.359   2.290   2.625 -0.3278  0.2221  0.0098
 7057TIP3    H142806   4.389   2.378   2.603 -0.8373  0.0413 -1.5488
 7057TIP3    H242807   4.273   2.283   2.582 -0.2896 -1.0278  0.1028
 7058TIP3   OH242808   5.070   5.451   0.574 -0.2818  0.3162  0.0160
 7058TIP3    H142809   5.151   5.412   0.542 -0.6479  0.3727 -1.0090
 7058TIP3    H242810   5.025   5.481   0.495 -1.5684 -0.2376  0.5121
 7059TIP3   OH242811   1.077   1.815   9.676  0.6830  0.1310  0.4712
 7059TIP3    H142812   1.112   1.728   9.655  2.2057  1.1813 -1.8334
 7059TIP3    H242813   1.147   1.875   9.650 -1.1158  2.1364  0.0000
 7060TIP3   OH242814   1.586   0.961   9.917 -0.4032  0.5228  0.5137
 7060TIP3    H142815   1.649   1.033   9.926 -1.4701  1.4253  1.1062
 7060TIP3    H242816   1.575   0.928  10.006 -2.9454  2.3480  0.9828
 7061TIP3   OH242817   1.577   5.169   3.135  0.0468  0.1208 -0.8200
 7061TIP3    H142818   1.524   5.247   3.152 -1.7731 -1.1835 -0.1745
 7061TIP3    H242819   1.578   5.121   3.218 -1.3273 -1.9248 -1.8780
 7062TIP3   OH242820   4.437   5.022   3.049 -0.1204 -0.3983  0.1984
 7062TIP3    H142821   4.446   5.115   3.024  0.8418 -1.3567 -3.7750
 7062TIP3    H242822   4.353   5.018   3.095  0.4094  2.5900  1.7185
 7063TIP3   OH242823   5.979   0.929   0.628  0.0710  0.0351  0.0168
 7063TIP3    H142824   5.922   0.950   0.555  1.0358  1.1791 -0.4351
 7063TIP3    H242825   6.047   0.996   0.626  0.2869 -0.0840  1.7830
 7064TIP3   OH242826   4.010   2.063   8.931  0.2848 -0.0587  0.3411
 7064TIP3    H142827   4.023   2.051   9.025  1.1416  1.2084  0.4035
 7064TIP3    H242828   3.948   2.136   8.925  0.0093 -0.3250 -0.0761
 7065TIP3   OH242829   6.386   5.762   7.134  0.3631  0.4847  0.0877
 7065TIP3    H142830   6.479   5.750   7.117 -0.1922 -1.0314 -2.2621
 7065TIP3    H242831   6.353   5.674   7.152 -0.7019  0.9646  0.6043
 7066TIP3   OH242832   3.966   4.841   0.311  0.0509 -0.0541 -0.1460
 7066TIP3    H142833   3.993   4.826   0.220  0.2691 -0.4695 -0.0114
 7066TIP3    H242834   3.875   4.871   0.304  0.1414  0.1372 -0.5167
 7067TIP3   OH242835   1.624   2.123   0.269 -0.2067  0.0367  0.6005
 7067TIP3    H142836   1.569   2.073   0.209  0.4780 -0.6110  0.4962
 7067TIP3    H242837   1.606   2.085   0.355 -0.1939  0.0639  0.6152
 7068TIP3   OH242838   4.631   5.964   1.290 -0.4077  0.7025  1.1184
 7068TIP3    H142839   4.699   6.000   1.232 -0.9529  1.1354  0.7350
 7068TIP3    H242840   4.673   5.959   1.375  1.3692 -2.6080  0.2351
 7069TIP3   OH242841   5.526   2.890   0.150 -0.2035 -0.6595 -0.0375
 7069TIP3    H142842   5.516   2.798   0.127 -0.3743 -0.7708  0.4622
 7069TIP3    H242843   5.459   2.935   0.097 -1.0159 -0.9864  0.6904
 7070TIP3   OH242844   6.228   4.468   8.272 -0.1572 -0.3019  0.0958
 7070TIP3    H142845   6.182   4.425   8.199  1.6323 -0.1584 -1.1761
 7070TIP3    H242846   6.184   4.553   8.281 -0.3087 -0.2574 -0.9303
 7071TIP3   OH242847   5.970   2.928   0.242  0.1524 -0.1646 -0.1013
 7071TIP3    H142848   5.896   2.933   0.181  1.0248 -1.0984 -1.2780
 7071TIP3    H242849   5.942   2.865   0.308 -0.8845  1.0123  0.6298
 7072TIP3   OH242850   0.183   5.062   0.463 -0.3370  0.4866 -0.3991
 7072TIP3    H142851   0.230   5.145   0.461  0.5061  0.0174 -2.3740
 7072TIP3    H242852   0.243   5.001   0.506 -0.2190  0.5014 -0.5423
 7073TIP3   OH242853   1.643   3.602   0.543 -0.0390  0.0692  0.5269
 7073TIP3    H142854   1.727   3.645   0.557  0.2702  0.4182 -1.9008
 7073TIP3    H242855   1.581   3.674   0.529 -0.5665 -0.2039  1.4184
 7074TIP3   OH242856   3.107   2.608   3.284  0.5377 -0.1303 -0.4366
 7074TIP3    H142857   3.127   2.564   3.367  1.0757  0.9655  0.0344
 7074TIP3    H242858   3.140   2.548   3.217 -0.9513 -1.5967  0.0468
 7075TIP3   OH242859   0.732   3.190   0.975 -0.1505 -0.4834 -0.0271
 7075TIP3    H142860   0.680   3.174   1.054  1.2678  0.2603  1.0915
 7075TIP3    H242861   0.782   3.109   0.963 -2.6021 -1.8423 -2.0238
 7076TIP3   OH242862   1.352   1.627   8.119 -0.3623 -0.5736  0.1614
 7076TIP3    H142863   1.444   1.613   8.143  0.8139  1.6973 -2.4098
 7076TIP3    H242864   1.321   1.541   8.092  1.0348 -1.3675  0.9473
 7077TIP3   OH242865   6.406   0.259   8.260 -0.4831 -0.1476 -0.3441
 7077TIP3    H142866   6.366   0.289   8.179  1.6502 -0.5152 -1.5867
 7077TIP3    H242867   6.435   0.170   8.241 -1.2382 -0.7995  1.3245
 7078TIP3   OH242868   4.396   0.297   1.898  0.2259 -0.2221 -0.2126
 7078TIP3    H142869   4.380   0.219   1.845  1.4924 -0.0182 -0.9204
 7078TIP3    H242870   4.469   0.341   1.856  0.4823  0.5930  1.0180
 7079TIP3   OH242871   0.012   4.481   1.061 -0.0323 -0.0437 -0.3911
 7079TIP3    H142872   0.025   4.460   0.968  0.9186  1.6515 -0.6700
 7079TIP3    H242873   0.007   4.576   1.064 -1.1272 -0.1195  1.1926
 7080TIP3   OH242874   4.870   5.564   3.430 -0.6013  0.5279  0.3810
 7080TIP3    H142875   4.901   5.612   3.353  1.1563 -0.7720  0.2256
 7080TIP3    H242876   4.859   5.632   3.497 -0.2968  1.4257 -0.4509
 7081TIP3   OH242877   2.725   4.899   1.086  0.6107 -0.0770 -0.5635
 7081TIP3    H142878   2.698   4.982   1.047 -0.3408 -0.4435 -0.7206
 7081TIP3    H242879   2.810   4.917   1.126 -0.6688  1.6805  1.6096
 7082TIP3   OH242880   1.987   2.209   2.401 -0.5649  0.1643 -0.7735
 7082TIP3    H142881   1.991   2.173   2.489 -2.7999 -1.1315 -1.1400
 7082TIP3    H242882   1.995   2.133   2.343 -0.4471  0.8371 -1.6696
 7083TIP3   OH242883   0.396   5.507   9.279 -0.0577  0.1694 -0.0994
 7083TIP3    H142884   0.413   5.414   9.295  1.2777  0.0331 -1.9906
 7083TIP3    H242885   0.483   5.546   9.270 -0.5808  1.7354  1.1404
 7084TIP3   OH242886   6.338   0.009   9.451  0.0956  0.3990  0.0705
 7084TIP3    H142887   6.282  -0.026   9.521  0.0675 -0.1904 -0.2463
 7084TIP3    H242888   6.279   0.024   9.378  0.4673 -0.9851 -0.5426
 7085TIP3   OH242889   6.294   3.419   0.880 -0.4429  0.1080  0.2116
 7085TIP3    H142890   6.360   3.463   0.826 -2.1065  3.0532  0.3299
 7085TIP3    H242891   6.338   3.341   0.914  2.8583  1.7200  0.0176
 7086TIP3   OH242892   0.735   1.128   9.777  0.4631  0.3482 -0.4327
 7086TIP3    H142893   0.725   1.204   9.834  1.1440  1.9335 -2.3325
 7086TIP3    H242894   0.663   1.136   9.714  0.5386 -0.5947 -0.6470
 7087TIP3   OH242895   3.977   1.103   9.600 -0.5223 -0.2882 -0.0133
 7087TIP3    H142896   4.071   1.114   9.612 -0.5554  0.2458 -0.2140
 7087TIP3    H242897   3.938   1.175   9.650 -0.8696 -1.0677  0.8693
 7088TIP3   OH242898   5.128   1.676   9.531  0.3518 -0.2018 -0.5218
 7088TIP3    H142899   5.063   1.612   9.503  0.1798 -0.0915 -0.3721
 7088TIP3    H242900   5.207   1.651   9.483  0.1263 -0.1666 -0.9227
 7089TIP3   OH242901   0.174   3.581   1.318 -0.6864  0.0218 -0.2742
 7089TIP3    H142902   0.240   3.529   1.273 -1.4665  1.2758 -3.0951
 7089TIP3    H242903   0.224   3.650   1.362 -0.0082  0.4124 -1.6005
 7090TIP3   OH242904   0.120   2.222   1.764 -0.0374 -0.0375 -0.0532
 7090TIP3    H142905   0.062   2.149   1.786  0.4888 -0.2927  0.5501
 7090TIP3    H242906   0.144   2.260   1.849  0.3900  0.2796 -0.3101
 7091TIP3   OH242907   2.086   5.878   8.196 -0.1304  0.1240 -0.1054
 7091TIP3    H142908   2.147   5.938   8.152 -0.7866  1.7427  1.1127
 7091TIP3    H242909   2.007   5.930   8.211 -1.5421 -1.6862 -0.8920
 7092TIP3   OH242910   5.082   3.917   0.530 -0.1325  0.0867  0.1060
 7092TIP3    H142911   5.170   3.912   0.567  0.1976  1.3903 -0.4507
 7092TIP3    H242912   5.093   3.891   0.438 -0.8065 -2.3037  0.6090
 7093TIP3   OH242913   1.230   1.949   8.654 -0.4971  0.2042  0.3123
 7093TIP3    H142914   1.232   1.973   8.561 -0.9814 -1.5068 -0.1832
 7093TIP3    H242915   1.282   2.016   8.697  1.2696  0.0807 -1.4502
 7094TIP3   OH242916   1.709   3.284   1.787  0.1117 -0.2812  0.1055
 7094TIP3    H142917   1.711   3.194   1.820 -0.0377 -0.1981  0.3388
 7094TIP3    H242918   1.794   3.321   1.811  0.6791 -0.7495 -1.0847
 7095TIP3   OH242919   6.153   0.279   0.711  0.0558  0.6157  0.3167
 7095TIP3    H142920   6.143   0.212   0.779  2.6264 -1.6137 -1.3255
 7095TIP3    H242921   6.237   0.322   0.732  1.3004 -0.6387 -1.7347
 7096TIP3   OH242922   4.243   4.045   9.393 -0.2400  0.1869 -0.4300
 7096TIP3    H142923   4.179   4.057   9.464 -0.2717  0.8231 -0.5622
 7096TIP3    H242924   4.295   3.969   9.421  0.6023  1.2163  0.9259
 7097TIP3   OH242925   3.789   4.177   9.734  0.3544  0.0797 -0.6691
 7097TIP3    H142926   3.788   4.081   9.729  1.0023  0.0716 -0.7602
 7097TIP3    H242927   3.717   4.205   9.678  0.1833 -0.3537 -0.6686
 7098TIP3   OH242928   1.890   4.810   9.079  0.4651 -0.0504 -0.1484
 7098TIP3    H142929   1.847   4.746   9.023 -0.9951  0.0419  0.8060
 7098TIP3    H242930   1.973   4.828   9.037  1.0203 -2.7379 -0.3189
 7099TIP3   OH242931   1.400   0.829   0.694  0.3482 -0.6784 -0.1150
 7099TIP3    H142932   1.433   0.880   0.768  0.2818  1.4862 -1.4857
 7099TIP3    H242933   1.320   0.874   0.667 -0.4185 -2.2746 -0.6400
 7100TIP3   OH242934   3.716   6.070   1.851  0.1881 -0.1938  1.0522
 7100TIP3    H142935   3.753   5.983   1.836  1.2418  0.3447  0.4056
 7100TIP3    H242936   3.626   6.054   1.877 -1.1125 -1.4160 -3.3299
 7101TIP3   OH242937   4.614   5.939   3.237  0.0295 -0.3586 -0.1312
 7101TIP3    H142938   4.594   5.902   3.151 -0.6552  0.3578 -0.2899
 7101TIP3    H242939   4.530   5.937   3.284  0.3191 -0.4120  0.3936
 7102TIP3   OH242940   4.134   4.737   9.813 -0.2905  0.0718  0.0413
 7102TIP3    H142941   4.223   4.718   9.842  0.2936  0.3398 -1.4817
 7102TIP3    H242942   4.144   4.808   9.749 -1.6680  0.5546  0.3314
 7103TIP3   OH242943   3.958   0.010   1.643 -0.2585  0.6043 -0.5714
 7103TIP3    H142944   3.974   0.104   1.634  0.0991  0.5563 -0.4621
 7103TIP3    H242945   4.045  -0.030   1.633 -0.4320  0.2749 -0.7717
 7104TIP3   OH242946   3.527   0.695   8.454 -0.3042  0.1499 -0.2408
 7104TIP3    H142947   3.579   0.751   8.513 -1.4354  0.2900  0.6619
 7104TIP3    H242948   3.552   0.605   8.479  1.7531  0.1939 -1.9102
 7105TIP3   OH242949   6.412   0.109   7.682  0.5505 -0.5862  0.1804
 7105TIP3    H142950   6.403   0.074   7.593  0.0102 -0.9024  0.3595
 7105TIP3    H242951   6.414   0.204   7.669 -1.9462 -0.4921 -0.0028
 7106TIP3   OH242952   3.365   5.136   0.810  0.1937  0.2861  0.1845
 7106TIP3    H142953   3.385   5.181   0.892 -0.0392  0.7682 -0.0176
 7106TIP3    H242954   3.342   5.047   0.836 -0.2631  0.5443  0.6715
 7107TIP3   OH242955   1.185   2.515   9.068 -0.3096 -0.5616 -0.3451
 7107TIP3    H142956   1.097   2.500   9.103 -0.0685 -1.8888 -0.2560
 7107TIP3    H242957   1.244   2.484   9.138  0.2269 -0.0548 -0.5617
 7108TIP3   OH242958   0.444   1.504   9.254  1.2267  0.2540  0.5365
 7108TIP3    H142959   0.446   1.555   9.335 -0.9938 -1.4776  1.7984
 7108TIP3    H242960   0.388   1.429   9.274  2.0181 -1.1727 -2.0972
 7109TIP3   OH242961   1.301   3.474   1.427  0.1604 -0.1806 -0.3692
 7109TIP3    H142962   1.354   3.417   1.483  2.0831  2.1002  0.3299
 7109TIP3    H242963   1.331   3.563   1.448 -3.2685  1.2296 -0.7563
 7110TIP3   OH242964   3.364   5.308   1.345  0.4708  0.2329  0.0256
 7110TIP3    H142965   3.423   5.304   1.269 -0.7562 -0.7995 -0.9188
 7110TIP3    H242966   3.413   5.269   1.416  0.8656 -0.8271 -0.8035
 7111TIP3   OH242967   5.841   1.087   8.958  0.3194 -0.4073  0.1438
 7111TIP3    H142968   5.861   1.104   8.866  0.7499  0.6512  0.4175
 7111TIP3    H242969   5.874   0.999   8.974 -1.2936 -1.3080 -1.1507
 7112TIP3   OH242970   2.689   1.260   8.808 -0.0161  0.0471  0.3174
 7112TIP3    H142971   2.723   1.349   8.802 -0.6542  0.3194  0.5959
 7112TIP3    H242972   2.725   1.214   8.733  2.8785 -0.3429  1.8135
 7113TIP3   OH242973   5.267   6.175   8.090  0.0117  0.1634  0.2105
 7113TIP3    H142974   5.309   6.160   8.174 -0.3951  0.0530  0.3963
 7113TIP3    H242975   5.178   6.141   8.100  0.3416 -1.0068 -0.6719
 7114TIP3   OH242976   1.161   1.729   8.966  0.2081 -0.2846  0.6191
 7114TIP3    H142977   1.236   1.724   8.908  0.9661  2.8691  1.1463
 7114TIP3    H242978   1.112   1.805   8.937 -1.4991 -0.8589  1.7886
 7115TIP3   OH242979   4.826   3.990   9.525 -0.0718 -0.6442 -0.1953
 7115TIP3    H142980   4.801   3.973   9.434 -1.6273  1.6688 -0.2996
 7115TIP3    H242981   4.857   4.081   9.524 -1.8339  0.0615  1.8357
 7116TIP3   OH242982   2.358   6.402   0.532 -0.3373 -0.0188 -0.0450
 7116TIP3    H142983   2.274   6.444   0.514  0.3994  1.4114 -0.3146
 7116TIP3    H242984   2.403   6.400   0.448 -0.2123 -1.0515  0.0350
 7117TIP3   OH242985   5.177   1.764   2.216  0.1045 -1.0622  0.0966
 7117TIP3    H142986   5.213   1.688   2.262 -0.7843 -1.5079  0.0748
 7117TIP3    H242987   5.170   1.831   2.284  0.3304 -1.1892  0.2490
 7118TIP3   OH242988   3.216   2.284   0.229  0.0238 -0.0025 -0.2050
 7118TIP3    H142989   3.274   2.331   0.289 -1.4498  0.9570  0.5329
 7118TIP3    H242990   3.173   2.218   0.284  0.6622 -0.9640 -0.8274
 7119TIP3   OH242991   1.830   5.078   9.016  0.1248  0.4545 -0.4530
 7119TIP3    H142992   1.761   5.028   8.972 -0.6666  1.8383 -0.8283
 7119TIP3    H242993   1.860   5.020   9.086 -1.8887  0.0531  0.1641
 7120TIP3   OH242994   3.178   5.906   0.162  0.0572 -0.2576  0.3255
 7120TIP3    H142995   3.173   5.991   0.207 -1.0711  0.0559 -0.3402
 7120TIP3    H242996   3.136   5.922   0.077 -1.2828 -1.7669  0.6472
 7121TIP3   OH242997   2.492   4.055   8.144 -0.3512 -0.5020  0.5031
 7121TIP3    H142998   2.404   4.082   8.172  0.4021  0.9370  1.6180
 7121TIP3    H242999   2.499   3.964   8.171 -1.0959 -0.2962  1.4522
 7122TIP3   OH243000   2.321   4.468   8.722  0.2236  0.3281  0.2238
 7122TIP3    H143001   2.377   4.546   8.722 -1.7603  1.8804  2.1709
 7122TIP3    H243002   2.336   4.428   8.636  3.4705  1.1805  0.2447
 7123TIP3   OH243003   4.151   3.589   0.463  0.1906 -0.2962 -0.4873
 7123TIP3    H143004   4.189   3.577   0.550  1.8595 -0.5852 -1.2042
 7123TIP3    H243005   4.189   3.671   0.431 -0.9484  0.1641 -0.6887
 7124TIP3   OH243006   5.831   0.849   6.994  0.2404  0.0311 -0.0832
 7124TIP3    H143007   5.822   0.769   6.942 -1.3343  0.0581  0.1040
 7124TIP3    H243008   5.834   0.819   7.084  3.9779 -0.0981 -0.0889
 7125TIP3   OH243009   0.860   3.332   8.784  0.1417  0.2811 -0.2101
 7125TIP3    H143010   0.819   3.246   8.777 -0.0541  0.5186 -4.5298
 7125TIP3    H243011   0.790   3.394   8.762  1.3691  1.0923 -2.0947
 7126TIP3   OH243012   1.563   4.620   8.076 -0.7824  0.0033  0.0874
 7126TIP3    H143013   1.580   4.693   8.016 -0.8331 -0.4225 -0.4514
 7126TIP3    H243014   1.499   4.566   8.030 -3.4788  1.4155  1.9359
 7127TIP3   OH243015   6.034   5.031   9.980  0.4363 -0.5411 -0.3715
 7127TIP3    H143016   6.081   4.950   9.996 -0.6681 -1.2857 -0.7878
 7127TIP3    H243017   5.990   5.017   9.896 -1.3875 -0.3073  0.4905
 7128TIP3   OH243018   1.792   2.358   0.950  0.4746  0.4258  0.2214
 7128TIP3    H143019   1.780   2.384   1.042  0.9729 -1.2637  0.7967
 7128TIP3    H243020   1.784   2.440   0.901  0.0454  1.3420  1.7552
 7129TIP3   OH243021   1.053   1.672   9.214  0.2307 -0.3202 -0.3476
 7129TIP3    H143022   0.972   1.627   9.238  0.6428 -0.5298  0.6925
 7129TIP3    H243023   1.063   1.653   9.121 -0.2701 -1.3287 -0.2118
 7130TIP3   OH243024   4.732   4.018   0.486  0.1989 -0.3175 -0.1327
 7130TIP3    H143025   4.735   3.924   0.505  1.9805 -0.5561 -1.3485
 7130TIP3    H243026   4.773   4.059   0.563 -3.9198 -0.0627  2.2446
 7131TIP3   OH243027   0.573   5.301   2.779 -0.3628  0.4012  0.7614
 7131TIP3    H143028   0.502   5.246   2.811  0.5937 -0.9267  0.7167
 7131TIP3    H243029   0.530   5.371   2.730 -1.6685  0.3301  1.7698
 7132TIP3   OH243030   0.137   4.230   0.140 -0.3481 -0.6201 -0.0045
 7132TIP3    H143031   0.079   4.202   0.069 -0.8859  0.6884 -0.0924
 7132TIP3    H243032   0.198   4.291   0.099  0.0531 -0.7254  0.4293
 7133TIP3   OH243033   4.747   3.757   1.599  0.5050 -0.4014 -0.4153
 7133TIP3    H143034   4.797   3.758   1.518  1.4444  3.9745 -0.0535
 7133TIP3    H243035   4.658   3.783   1.573  0.4606 -0.3638 -0.2316
 7134TIP3   OH243036   1.493   3.514   2.638 -0.9514  0.6646 -0.3763
 7134TIP3    H143037   1.555   3.489   2.570 -0.8969  0.3126 -0.2012
 7134TIP3    H243038   1.407   3.497   2.600 -0.9589  1.5779 -0.7845
 7135TIP3   OH243039   0.985   5.795   0.276  0.5081 -0.2947  1.0076
 7135TIP3    H143040   0.933   5.785   0.197  0.7211  0.1290  0.8155
 7135TIP3    H243041   1.010   5.705   0.299  0.9140 -0.3719  0.2846
 7136TIP3   OH243042   5.834   0.960   0.388  0.7115 -0.4471 -0.3051
 7136TIP3    H143043   5.783   1.041   0.388 -0.7238 -1.3150  0.0907
 7136TIP3    H243044   5.810   0.916   0.306  1.3662 -0.5556 -0.4500
 7137TIP3   OH243045   3.178   2.714   1.950 -0.4962 -0.1103 -0.9976
 7137TIP3    H143046   3.130   2.793   1.925 -2.8560 -0.5918  1.5754
 7137TIP3    H243047   3.139   2.644   1.898 -0.8053 -0.1098 -0.7654
 7138TIP3   OH243048   2.742   5.697   2.709  0.3617  0.2797  0.0069
 7138TIP3    H143049   2.836   5.712   2.709  0.5539 -0.7875  0.6736
 7138TIP3    H243050   2.706   5.766   2.653  1.6143  0.1804 -0.9461
 7139TIP3   OH243051   0.077   2.414   9.440 -0.2876 -0.2198  0.1258
 7139TIP3    H143052   0.158   2.419   9.389 -0.1930 -1.3892  0.1317
 7139TIP3    H243053   0.021   2.483   9.403  0.7723  0.7293  0.2580
 7140TIP3   OH243054   3.130   1.179   0.937  0.0365  0.1464  0.1520
 7140TIP3    H143055   3.184   1.239   0.988 -0.2676  0.0262  0.6210
 7140TIP3    H243056   3.040   1.200   0.962 -0.0284 -2.4809  2.6824
 7141TIP3   OH243057   2.551   5.607   1.915  0.3109  0.2155 -0.0691
 7141TIP3    H143058   2.563   5.601   2.010 -0.5701  0.3684  0.0568
 7141TIP3    H243059   2.457   5.613   1.902  0.3333 -0.9416 -1.0308
 7142TIP3   OH243060   1.234   6.061   1.189  0.4201 -0.0027 -0.1640
 7142TIP3    H143061   1.183   5.990   1.151  0.3717 -1.0106  1.7102
 7142TIP3    H243062   1.211   6.138   1.136 -0.6459 -1.0571 -1.2974
 7143TIP3   OH243063   0.956   1.060   1.607 -0.3256  0.6049  0.3609
 7143TIP3    H143064   0.882   1.107   1.568 -0.3302 -0.6236 -1.2270
 7143TIP3    H243065   1.014   1.128   1.639 -0.4365  1.7270 -1.6585
 7144TIP3   OH243066   5.283   6.219   2.341  0.4702  0.4887  0.0525
 7144TIP3    H143067   5.215   6.163   2.304 -1.2372  1.1121  2.0451
 7144TIP3    H243068   5.361   6.198   2.290 -0.9731 -0.9029 -1.7653
 7145TIP3   OH243069   1.665   4.027   1.257  0.4596  0.5540  0.4036
 7145TIP3    H143070   1.718   3.948   1.243  0.1210  0.0527  1.8205
 7145TIP3    H243071   1.621   4.041   1.173  1.3122 -0.1556 -0.1843
 7146TIP3   OH243072   3.980   3.107   2.183  0.6365  0.1000 -0.4397
 7146TIP3    H143073   4.060   3.158   2.188  0.5717  0.0977  1.3357
 7146TIP3    H243074   3.912   3.170   2.157  1.1570  0.1278 -1.8094
 7147LIG     O143075   3.218   1.370   9.272  0.1377 -0.0246 -0.2694
 7147LIG     O243076   3.006   1.524   9.350  0.4144  0.3003 -0.3536
 7147LIG     O343077   3.400   1.574   9.421  0.3620  0.3041 -0.1153
 7147LIG     O443078   2.809   1.509   9.467  0.0598  0.5848  0.3028
 7147LIG     O543079   3.140   1.594   9.598 -0.4394 -0.3404  0.3066
 7147LIG     O643080   2.962   1.727   9.786  0.3773  0.0027 -0.1860
 7147LIG     O743081   2.725   1.549   9.823  0.7269 -0.5108 -0.5721
 7147LIG     O843082   2.534   1.579   9.474  0.0997 -0.0078 -0.0590
 7147LIG     O943083   2.515   1.413   9.625  0.6417  0.5579 -0.3396
 7147LIG      N43084   3.196   1.426   8.781 -0.0583 -0.6003 -0.7452
 7147LIG     C143085   3.138   1.393   9.061 -0.0883  0.2631  0.3779
 7147LIG     C243086   3.028   1.450   8.967  0.6231 -0.2968  0.3819
 7147LIG     C343087   3.102   1.342   9.201 -0.0499 -0.4991  1.0094
 7147LIG     C443088   3.107   1.521   8.854  0.4453 -0.0584 -0.0537
 7147LIG     C543089   3.234   1.292   8.980  0.3333  0.3753 -0.2989
 7147LIG     C643090   3.225   1.513   9.092 -0.3059  0.6109 -0.5999
 7147LIG     C743091   3.173   1.654   8.901 -0.5120 -0.4585 -0.2836
 7147LIG     C843092   3.304   1.354   8.859 -0.1014 -0.9055 -0.1208
 7147LIG     C943093   2.978   1.421   9.255 -0.3267  0.0906  0.8197
 7147LIG    C1043094   3.252   1.625   9.030 -0.7303 -0.7541  0.4491
 7147LIG    C1143095   2.919   1.535   9.038 -0.5568  0.1453 -0.0908
 7147LIG    C1243096   3.266   1.490   9.223 -0.3714 -0.3129 -0.6441
 7147LIG    C1343097   2.901   1.513   9.165  0.0042  0.3417 -0.6660
 7147LIG    C1443098   3.135   1.344   8.682  0.0327 -0.7328 -0.9946
 7147LIG    C1543099   3.335   1.723   9.087 -0.5324  0.7058 -1.0895
 7147LIG    C1643100   3.353   1.590   9.291  0.7264  0.2532  0.3969
 7147LIG    C1743101   3.389   1.703   9.217  0.3343 -0.4322  0.8275
 7147LIG    C1843102   2.948   1.499   9.478  1.2488  0.0938  0.7412
 7147LIG    C1943103   3.001   1.613   9.569  0.5113 -0.6296  0.4156
 7147LIG    C2043104   2.930   1.610   9.710 -0.1660  0.2217  0.1436
 7147LIG    C2143105   2.776   1.585   9.701  0.0983 -0.8039  0.3692
 7147LIG    C2243106   2.746   1.488   9.591 -0.4773 -0.5076  0.1176
 7147LIG    C2343107   2.587   1.497   9.576 -0.4716  0.4392 -0.1439
 7147LIG     H143108   2.975   1.368   8.915 -2.0437  1.3265  0.3299
 7147LIG     H243109   3.086   1.232   9.191 -2.3105 -0.1679  0.4886
 7147LIG     H343110   3.029   1.550   8.780 -1.1157 -0.1562  1.4927
 7147LIG     H443111   3.181   1.201   8.947  1.6169 -0.5163  0.0371
 7147LIG     H543112   3.309   1.259   9.055  0.1205  0.2062 -0.1619
 7147LIG     H643113   3.099   1.735   8.914  0.3527  0.3701 -0.4678
 7147LIG     H743114   3.244   1.686   8.822 -1.8030 -0.3637 -1.4577
 7147LIG     H843115   3.378   1.429   8.895 -1.1744 -0.2551  0.8044
 7147LIG     H943116   3.358   1.274   8.804 -0.7343  0.1795 -2.4346
 7147LIG    H1043117   2.902   1.349   9.293  0.0830 -1.9201 -1.8715
 7147LIG    H1143118   2.846   1.595   8.982  0.2192  1.5106  0.2963
 7147LIG    H1243119   2.805   1.541   9.211 -0.3330 -0.1111 -1.0806
 7147LIG    H1343120   3.210   1.284   8.625  1.8699 -0.1452  0.6910
 7147LIG    H1443121   3.105   1.405   8.594 -1.3739  0.5220  0.2952
 7147LIG    H1543122   3.043   1.298   8.723  0.9635  0.8083  3.2923
 7147LIG    H1643123   3.365   1.808   9.028  1.2708  0.2115 -0.9415
 7147LIG    H1743124   3.452   1.778   9.262  0.5649  0.7003 -1.2691
 7147LIG    H1843125   2.988   1.400   9.509  0.9295 -0.9799 -1.9422
 7147LIG    H1943126   2.978   1.709   9.518  0.1019 -0.2068  1.3698
 7147LIG    H2043127   2.972   1.521   9.761 -0.5362 -0.6196 -0.9726
 7147LIG    H2143128   3.368   1.489   9.449  1.4043 -0.0229  0.1124
 7147LIG    H2243129   2.732   1.682   9.669  1.1803 -0.8042 -1.2590
 7147LIG    H2343130   2.763   1.384   9.626 -1.6793 -0.1808  1.7938
 7147LIG    H2443131   3.191   1.605   9.517 -1.8477  0.9906 -0.4619
 7147LIG    H2543132   3.055   1.715   9.810  0.2331  2.5430  2.1008
 7147LIG    H2643133   2.723   1.626   9.880 -2.1832  0.7450 -2.1618
 7147LIG    H2743134   2.438   1.584   9.471  0.1246  0.3982 -0.3694
   6.42062   6.42062  10.03123
