Title
43134
    1CHL1    C3    1   1.276   6.779   6.131 -0.0921 -0.9608 -0.4444
    1CHL1    H3    2   1.333   6.871   6.105  2.4582 -1.7067  2.0016
    1CHL1    O3    3   1.269   6.777   6.272  0.5731 -0.2068  0.2569
    1CHL1   H3'    4   1.296   6.693   6.310 -0.4811 -0.2832  0.8810
    1CHL1    C4    5   1.138   6.779   6.070  0.0760 -0.2633  0.8412
    1CHL1   H4A    6   1.083   6.688   6.103  1.7722 -2.3078 -1.5532
    1CHL1   H4B    7   1.075   6.864   6.102  1.0761 -0.1110  2.5362
    1CHL1    C5    8   1.155   6.789   5.922  0.2140 -0.1698  0.1123
    1CHL1    C6    9   1.098   6.890   5.858  0.3011 -0.1697  0.4405
    1CHL1    H6   10   1.027   6.952   5.916  0.0711 -0.1957  0.1921
    1CHL1    C7   11   1.102   6.910   5.708  0.0807 -0.5236 -0.0713
    1CHL1   H7A   12   0.997   6.931   5.679  0.0946  0.0773  0.3115
    1CHL1   H7B   13   1.159   7.002   5.683  0.7900 -0.3917  1.8762
    1CHL1    C8   14   1.150   6.778   5.635 -0.0386 -0.0839 -0.6235
    1CHL1    H8   15   1.068   6.705   5.655 -0.5190  0.7551  0.5892
    1CHL1   C14   16   1.176   6.802   5.486 -0.3623 -0.2037 -0.4195
    1CHL1   H14   17   1.266   6.867   5.482 -2.2974  2.6740 -0.1664
    1CHL1   C15   18   1.070   6.873   5.410  0.2597  0.4108  0.3003
    1CHL1  H15A   19   0.966   6.849   5.441  0.1224  2.0998  1.2814
    1CHL1  H15B   20   1.086   6.983   5.415  1.3368  0.2352  1.1343
    1CHL1   C16   21   1.086   6.831   5.268 -0.2357 -0.1437  0.8527
    1CHL1  H16A   22   0.999   6.771   5.233  0.5624 -1.8327  1.6338
    1CHL1  H16B   23   1.103   6.917   5.200  2.4888 -0.4677  1.0307
    1CHL1   C17   24   1.206   6.727   5.264 -0.5580 -0.1918 -0.6225
    1CHL1   H17   25   1.294   6.787   5.235 -1.4386  0.4779 -2.0188
    1CHL1   C13   26   1.218   6.680   5.412  0.1833  0.4303 -0.0551
    1CHL1   C18   27   1.107   6.569   5.434  0.6143 -0.4323  0.4015
    1CHL1  H18A   28   1.089   6.538   5.539 -1.9631  0.3286  0.2572
    1CHL1  H18B   29   1.009   6.597   5.388  0.1957 -2.2546  0.0984
    1CHL1  H18C   30   1.130   6.475   5.380 -0.7371 -2.1752  2.6825
    1CHL1   C12   31   1.353   6.626   5.478 -0.9247  0.0584 -0.3032
    1CHL1  H12A   32   1.390   6.538   5.421 -1.7744  0.0822 -0.9074
    1CHL1  H12B   33   1.425   6.710   5.470 -0.4150 -0.3593 -0.0971
    1CHL1   C11   34   1.341   6.596   5.628 -0.2379 -0.3681 -0.3633
    1CHL1  H11A   35   1.272   6.509   5.631  0.4384 -0.9092 -0.1754
    1CHL1  H11B   36   1.438   6.559   5.666 -0.6092 -1.7795 -0.7285
    1CHL1    C9   37   1.272   6.720   5.705 -0.2432  0.2590  0.3967
    1CHL1    H9   38   1.349   6.799   5.698  0.8175 -0.5011  2.5377
    1CHL1   C10   39   1.243   6.683   5.852 -0.8973  0.2252 -0.3564
    1CHL1   C19   40   1.169   6.546   5.873  0.3719 -0.3528 -0.2639
    1CHL1  H19A   41   1.142   6.523   5.979 -1.1692  0.3742 -0.4806
    1CHL1  H19B   42   1.075   6.548   5.814  1.2900 -2.5834 -1.9718
    1CHL1  H19C   43   1.222   6.464   5.820  0.2415 -1.1350  0.7841
    1CHL1    C1   44   1.378   6.673   5.923  0.0945  0.1875  0.1670
    1CHL1   H1A   45   1.430   6.582   5.886  1.9302 -0.2082  3.3789
    1CHL1   H1B   46   1.445   6.751   5.882 -0.3731  0.5400  0.0651
    1CHL1    C2   47   1.365   6.658   6.074 -0.3550  0.5946 -0.4882
    1CHL1   H2A   48   1.468   6.674   6.111 -0.9433  0.2182  1.3859
    1CHL1   H2B   49   1.324   6.562   6.111 -1.2352  0.3167 -2.0711
    1CHL1   C20   50   1.189   6.623   5.154  0.1527  0.1393 -0.3372
    1CHL1   H20   51   1.103   6.555   5.175 -0.4796  0.4436 -1.7999
    1CHL1   C21   52   1.323   6.537   5.144 -0.4891  0.3330 -0.4630
    1CHL1  H21A   53   1.328   6.499   5.039 -1.6363  0.3653 -0.5403
    1CHL1  H21B   54   1.317   6.458   5.221  0.5477 -0.9243 -1.6091
    1CHL1  H21C   55   1.412   6.603   5.151 -0.5418  0.3645 -0.1048
    1CHL1   C22   56   1.153   6.684   5.017  0.0051  0.0300 -0.0262
    1CHL1  H22A   57   1.094   6.777   5.030  0.3308  0.6433 -2.3718
    1CHL1  H22B   58   1.250   6.704   4.966 -0.6087  0.5791 -1.0325
    1CHL1   C23   59   1.069   6.603   4.920  0.2332 -0.2751 -0.0180
    1CHL1  H23A   60   1.111   6.501   4.900 -0.7497 -0.1487 -3.1660
    1CHL1  H23B   61   0.968   6.579   4.958 -0.1051  0.8312 -0.1897
    1CHL1   C24   62   1.044   6.677   4.789  0.3702 -0.1306 -0.3453
    1CHL1  H24A   63   1.003   6.777   4.812  0.5889  0.5536 -2.6632
    1CHL1  H24B   64   1.136   6.687   4.727  0.7313 -1.4578 -0.0721
    1CHL1   C25   65   0.932   6.609   4.701  0.4039  0.0096 -0.1317
    1CHL1   H25   66   0.840   6.593   4.761 -0.2312 -1.0598 -1.3343
    1CHL1   C26   67   0.897   6.708   4.583  0.9295  0.1115  0.3443
    1CHL1  H26A   68   0.979   6.737   4.514  1.6042  3.4015  2.3562
    1CHL1  H26B   69   0.818   6.676   4.511  0.0614  0.3623  1.1673
    1CHL1  H26C   70   0.864   6.806   4.623  1.6217  0.1611  0.8045
    1CHL1   C27   71   0.976   6.477   4.643 -0.1574 -0.5095  0.1710
    1CHL1  H27A   72   1.077   6.480   4.596 -1.1291 -0.3209 -2.0017
    1CHL1  H27B   73   0.963   6.400   4.723  0.6044  0.0412  0.8394
    1CHL1  H27C   74   0.910   6.459   4.555  2.6539 -0.0298 -2.1913
    2CHL1    C3   75   0.787   0.787   6.689  0.5842  0.7740  0.2847
    2CHL1    H3   76   0.707   0.861   6.667 -0.6818 -0.5779  0.2471
    2CHL1    O3   77   0.798   0.765   6.826  0.2337 -0.0444  0.1633
    2CHL1   H3'   78   0.808   0.670   6.834 -1.8642 -0.6522 -2.6833
    2CHL1    C4   79   0.729   0.660   6.617  0.2359 -0.2690  0.4178
    2CHL1   H4A   80   0.786   0.567   6.640 -0.7457 -1.2538 -0.9447
    2CHL1   H4B   81   0.627   0.647   6.659 -0.4037  2.8259  0.0173
    2CHL1    C5   82   0.735   0.671   6.460 -0.3927 -0.0337 -0.1915
    2CHL1    C6   83   0.626   0.658   6.378 -0.2335  0.5194 -0.1334
    2CHL1    H6   84   0.528   0.626   6.416 -0.1245 -0.4422 -0.6341
    2CHL1    C7   85   0.636   0.687   6.227  0.1077  0.0181 -0.6197
    2CHL1   H7A   86   0.572   0.611   6.177  0.4602 -0.6651 -0.0511
    2CHL1   H7B   87   0.602   0.791   6.209  4.1516  1.8402  0.9106
    2CHL1    C8   88   0.782   0.681   6.176  0.1200  0.1960 -0.0269
    2CHL1    H8   89   0.822   0.577   6.181 -0.2097  0.1331  2.1113
    2CHL1   C14   90   0.793   0.747   6.037  0.1220 -0.3784 -0.2700
    2CHL1   H14   91   0.775   0.856   6.052  1.1761 -0.0458 -1.2369
    2CHL1   C15   92   0.685   0.717   5.937 -0.1426 -0.2607 -0.1113
    2CHL1  H15A   93   0.650   0.611   5.945  0.2542 -0.2823  1.6597
    2CHL1  H15B   94   0.599   0.781   5.967 -0.4991  0.0178 -1.6028
    2CHL1   C16   95   0.736   0.742   5.799 -0.5790  0.6403  0.2637
    2CHL1  H16A   96   0.743   0.646   5.744  2.8872  0.7964  0.1910
    2CHL1  H16B   97   0.680   0.817   5.739 -1.2022  0.2078  0.3010
    2CHL1   C17   98   0.890   0.797   5.826 -0.1052 -0.0879 -0.2634
    2CHL1   H17   99   0.869   0.906   5.826 -1.4757 -0.3390  0.2390
    2CHL1   C13  100   0.931   0.742   5.967  0.0236 -0.2039 -0.2100
    2CHL1   C18  101   0.977   0.595   5.961 -0.0535  0.0737 -0.5067
    2CHL1  H18A  102   0.902   0.545   5.897 -1.1218  1.5616 -0.4780
    2CHL1  H18B  103   1.073   0.583   5.907 -0.0970  0.2503 -0.6258
    2CHL1  H18C  104   0.979   0.547   6.062  2.5450 -1.3884 -1.1685
    2CHL1   C12  105   1.022   0.830   6.055 -0.9297  0.0899  0.5459
    2CHL1  H12A  106   1.126   0.830   6.016 -1.7829 -2.0196 -2.0230
    2CHL1  H12B  107   0.985   0.935   6.055 -0.1968  0.3578 -0.0658
    2CHL1   C11  108   1.022   0.773   6.199 -0.1406 -0.1911 -1.0344
    2CHL1  H11A  109   1.070   0.673   6.195  1.3884  0.5071 -0.8105
    2CHL1  H11B  110   1.085   0.835   6.267  2.2625 -1.6657 -1.7968
    2CHL1    C9  111   0.880   0.769   6.260 -0.3281  0.0499 -0.2256
    2CHL1    H9  112   0.840   0.872   6.251  0.4663  0.4286  0.5230
    2CHL1   C10  113   0.877   0.722   6.411  0.7022  0.0735 -0.2077
    2CHL1   C19  114   0.960   0.592   6.418 -0.0657 -0.2801 -0.3521
    2CHL1  H19A  115   0.930   0.508   6.351  0.0490 -2.0073  1.6482
    2CHL1  H19B  116   1.060   0.633   6.393 -0.8101  2.3418  0.6317
    2CHL1  H19C  117   0.963   0.555   6.522 -0.0078  1.4763  0.3045
    2CHL1    C1  118   0.945   0.832   6.498 -0.4435 -0.0220 -0.4377
    2CHL1   H1A  119   1.052   0.831   6.470  0.2398  3.8027  1.4192
    2CHL1   H1B  120   0.887   0.924   6.473 -0.5737  0.1707  0.5423
    2CHL1    C2  121   0.929   0.815   6.647 -0.0922  0.3112 -0.7888
    2CHL1   H2A  122   0.974   0.900   6.702  1.6092  1.5810 -3.8845
    2CHL1   H2B  123   0.987   0.725   6.677 -0.7981  0.2289  0.3804
    2CHL1   C20  124   0.998   0.769   5.708  0.0458  0.4513  0.7342
    2CHL1   H20  125   0.996   0.660   5.684  1.1865  0.4546  0.5645
    2CHL1   C21  126   1.140   0.803   5.746  0.1685  0.2593 -0.3681
    2CHL1  H21A  127   1.193   0.741   5.821  3.7260  2.9293 -0.4341
    2CHL1  H21B  128   1.138   0.909   5.779  0.3451 -0.3696  1.8301
    2CHL1  H21C  129   1.206   0.813   5.657 -1.4493 -0.1299 -1.6564
    2CHL1   C22  130   0.958   0.845   5.583  0.2397  1.0234  0.3654
    2CHL1  H22A  131   0.851   0.827   5.556  1.4758 -2.5769 -3.1381
    2CHL1  H22B  132   0.976   0.954   5.594 -0.8832  1.0288  2.7233
    2CHL1   C23  133   1.039   0.825   5.451  0.4200 -0.0629 -0.4291
    2CHL1  H23A  134   1.119   0.901   5.456 -0.7373  1.2846 -1.5923
    2CHL1  H23B  135   1.076   0.720   5.441  1.5750  0.4442 -1.8624
    2CHL1   C24  136   0.949   0.848   5.327 -0.3086 -0.3149 -0.0464
    2CHL1  H24A  137   0.859   0.784   5.336 -1.0472  0.2096 -2.8033
    2CHL1  H24B  138   0.920   0.955   5.334 -2.6138 -0.9854  1.8017
    2CHL1   C25  139   1.020   0.826   5.194 -0.1211 -0.1277  0.7479
    2CHL1   H25  140   1.036   0.717   5.184 -0.4357 -0.0375 -1.0126
    2CHL1   C26  141   0.918   0.866   5.077 -0.6237 -0.3105 -0.5495
    2CHL1  H26A  142   0.959   0.852   4.975  1.7356 -0.0773  0.3100
    2CHL1  H26B  143   0.827   0.804   5.092 -0.7485 -0.2974 -1.2451
    2CHL1  H26C  144   0.883   0.970   5.095  0.3807 -0.2997  1.7268
    2CHL1   C27  145   1.153   0.907   5.175 -0.9588  0.3426 -0.9836
    2CHL1  H27A  146   1.122   1.013   5.190 -0.6063  0.6190 -2.1230
    2CHL1  H27B  147   1.225   0.880   5.254 -1.6376  1.0831 -0.0822
    2CHL1  H27C  148   1.187   0.890   5.070  0.9018  0.7275 -0.4778
    3CHL1    C3  149   6.054   1.703   6.450 -0.0914  0.2022  0.2410
    3CHL1    H3  150   5.946   1.703   6.425  0.5728  0.7799 -3.1725
    3CHL1    O3  151   6.074   1.683   6.591 -0.4585 -0.0154 -0.0302
    3CHL1   H3'  152   6.084   1.768   6.633  2.2475 -0.3543  0.1601
    3CHL1    C4  153   6.123   1.589   6.377  0.2613  0.3588  0.4252
    3CHL1   H4A  154   6.222   1.576   6.425 -0.7140 -0.6038  2.2871
    3CHL1   H4B  155   6.067   1.497   6.405  0.2223  0.6784  1.4327
    3CHL1    C5  156   6.116   1.598   6.231  0.4216  0.2883  0.0260
    3CHL1    C6  157   6.050   1.508   6.154  0.0009 -0.5135  0.0863
    3CHL1    H6  158   5.998   1.419   6.190 -0.2495 -0.6899 -0.6891
    3CHL1    C7  159   6.044   1.519   6.004 -0.3474 -0.0635 -0.0755
    3CHL1   H7A  160   6.043   1.416   5.961 -2.8320 -0.1441  0.0683
    3CHL1   H7B  161   5.948   1.570   5.984 -0.0376  0.5839  0.0555
    3CHL1    C8  162   6.154   1.607   5.943 -0.5367 -0.0940  0.1719
    3CHL1    H8  163   6.251   1.558   5.966 -0.2407  0.1250 -0.5943
    3CHL1   C14  164   6.136   1.621   5.794  0.0755  0.7596 -0.1093
    3CHL1   H14  165   6.037   1.671   5.785 -0.1417  0.1636 -1.3811
    3CHL1   C15  166   6.122   1.491   5.704 -0.4117  0.0691 -0.1085
    3CHL1  H15A  167   6.191   1.415   5.747 -2.4752 -2.1277 -0.4706
    3CHL1  H15B  168   6.023   1.442   5.713 -1.2470  1.7221  0.1193
    3CHL1   C16  169   6.166   1.535   5.563 -0.2393 -0.2322 -0.1198
    3CHL1  H16A  170   6.242   1.461   5.532 -1.6467 -1.8124  0.0405
    3CHL1  H16B  171   6.080   1.529   5.492 -0.7815 -1.0802  0.5830
    3CHL1   C17  172   6.207   1.685   5.582  0.0247 -0.1276 -0.5621
    3CHL1   H17  173   6.112   1.742   5.583  0.8223  1.3181  1.8802
    3CHL1   C13  174   6.248   1.703   5.727  0.0797 -0.6461  0.3126
    3CHL1   C18  175   6.393   1.642   5.738  0.3433  0.0044 -0.0519
    3CHL1  H18A  176   6.405   1.539   5.699  1.6007  0.2217 -0.2611
    3CHL1  H18B  177   6.470   1.700   5.684  0.5468 -0.5489 -0.3606
    3CHL1  H18C  178   6.425   1.634   5.844  1.0515 -1.1114 -0.3365
    3CHL1   C12  179   6.247   1.844   5.797 -0.0558 -0.2584  0.4867
    3CHL1  H12A  180   6.306   1.921   5.743 -0.9659 -0.7758 -1.3389
    3CHL1  H12B  181   6.148   1.890   5.776  0.5492 -0.2881 -3.1985
    3CHL1   C11  182   6.271   1.834   5.951 -0.5385  0.1218  1.4355
    3CHL1  H11A  183   6.378   1.814   5.973  0.0627  0.8241 -0.6455
    3CHL1  H11B  184   6.254   1.933   5.997 -2.6376  0.8970 -0.7968
    3CHL1    C9  185   6.164   1.744   6.018  0.1196 -0.1237  0.4163
    3CHL1    H9  186   6.062   1.787   6.012 -1.0923 -2.7934  0.4238
    3CHL1   C10  187   6.182   1.727   6.168 -0.9559 -0.3818  0.0393
    3CHL1   C19  188   6.333   1.728   6.208 -0.5048 -0.0559  0.3766
    3CHL1  H19A  189   6.393   1.658   6.146 -1.1039  0.6752 -1.0749
    3CHL1  H19B  190   6.389   1.823   6.195 -0.2841 -0.2458 -0.0854
    3CHL1  H19C  191   6.344   1.709   6.317 -0.6925 -3.3748 -0.0694
    3CHL1    C1  192   6.111   1.842   6.241  0.2193  0.3058  0.1089
    3CHL1   H1A  193   6.137   1.945   6.206 -0.6139  0.6117  0.3538
    3CHL1   H1B  194   6.001   1.838   6.221  0.4911 -0.7760 -1.2958
    3CHL1    C2  195   6.118   1.836   6.390  0.4183 -0.4214 -0.4009
    3CHL1   H2A  196   6.072   1.927   6.435  2.9214  0.7585 -0.0648
    3CHL1   H2B  197   6.220   1.840   6.432  0.4669  0.1343 -0.5518
    3CHL1   C20  198   6.301   1.739   5.471 -0.1543 -0.0561 -0.4368
    3CHL1   H20  199   6.407   1.712   5.494  0.3313  1.8343 -0.2894
    3CHL1   C21  200   6.293   1.893   5.458  0.3906  0.7600 -0.9494
    3CHL1  H21A  201   6.360   1.920   5.373  1.4873  0.3385 -0.2366
    3CHL1  H21B  202   6.325   1.939   5.553  0.2316  1.3771 -1.1924
    3CHL1  H21C  203   6.191   1.925   5.426 -0.0361 -1.0998 -1.5685
    3CHL1   C22  204   6.282   1.679   5.335  0.0027  0.2978  0.2222
    3CHL1  H22A  205   6.271   1.569   5.339  2.4557 -0.0227 -0.4359
    3CHL1  H22B  206   6.186   1.719   5.295 -0.3671 -0.8806 -0.1136
    3CHL1   C23  207   6.391   1.701   5.233 -0.4551  0.2727  0.2868
    3CHL1  H23A  208   6.412   1.806   5.203 -3.2434 -0.1280 -4.0089
    3CHL1  H23B  209   6.483   1.648   5.265 -1.5686 -1.8721  0.1183
    3CHL1   C24  210   6.364   1.635   5.092 -0.7041 -0.0241 -0.8104
    3CHL1  H24A  211   6.353   1.525   5.096  0.1690 -0.1054 -0.4353
    3CHL1  H24B  212   6.274   1.687   5.053  0.9377  1.2602 -3.1574
    3CHL1   C25  213   6.483   1.645   4.995 -0.6757 -0.1123  0.5500
    3CHL1   H25  214   6.579   1.631   5.049 -0.4494 -1.1539 -0.1094
    3CHL1   C26  215   6.458   1.531   4.886 -0.0485 -0.1802 -0.1391
    3CHL1  H26A  216   6.442   1.440   4.948 -1.2857  1.5650  2.3130
    3CHL1  H26B  217   6.365   1.541   4.825 -0.1503 -0.0589  0.0347
    3CHL1  H26C  218   6.544   1.519   4.817 -2.4013 -0.7879 -3.1825
    3CHL1   C27  219   6.488   1.777   4.915  0.1221 -0.6251  0.3203
    3CHL1  H27A  220   6.562   1.775   4.832 -1.1155 -0.9596 -0.7989
    3CHL1  H27B  221   6.387   1.797   4.875  0.7371 -0.7888 -1.3689
    3CHL1  H27C  222   6.513   1.858   4.986  1.1414 -1.1201  0.5492
    4CHL1    C3  223   1.585   5.632   6.073  0.1385  0.1228 -0.1422
    4CHL1    H3  224   1.693   5.653   6.056 -0.0906  0.6896 -0.9748
    4CHL1    O3  225   1.536   5.683   6.200 -0.3268 -0.2472 -0.4325
    4CHL1   H3'  226   1.559   5.615   6.263  1.1232 -0.0389 -0.6960
    4CHL1    C4  227   1.505   5.691   5.957  0.0922  0.2057 -0.3515
    4CHL1   H4A  228   1.397   5.673   5.977  0.1620  1.6228  1.5668
    4CHL1   H4B  229   1.519   5.801   5.965 -1.8565  0.5354 -0.8785
    4CHL1    C5  230   1.552   5.643   5.826 -0.2800 -0.0430  0.7075
    4CHL1    C6  231   1.601   5.728   5.731 -0.6155 -0.4976 -0.1916
    4CHL1    H6  232   1.609   5.837   5.743  0.8456 -0.5211 -0.6809
    4CHL1    C7  233   1.649   5.683   5.603 -0.6273 -0.0978 -0.0782
    4CHL1   H7A  234   1.599   5.747   5.527 -0.6996  1.2422  1.0570
    4CHL1   H7B  235   1.758   5.697   5.594 -0.6639  0.2520  0.0027
    4CHL1    C8  236   1.622   5.543   5.565  0.2733  0.0851 -0.5876
    4CHL1    H8  237   1.516   5.540   5.535  0.4657 -0.0825 -1.2659
    4CHL1   C14  238   1.710   5.500   5.443 -0.3846 -0.1539 -0.2137
    4CHL1   H14  239   1.814   5.493   5.482  0.2903  0.0081 -1.9225
    4CHL1   C15  240   1.713   5.580   5.311 -0.3878 -0.1605 -0.1456
    4CHL1  H15A  241   1.611   5.622   5.295  0.5182  2.6172  0.8060
    4CHL1  H15B  242   1.783   5.666   5.318  1.6086 -1.5007 -2.1290
    4CHL1   C16  243   1.750   5.487   5.198  0.3767  0.2508  0.1286
    4CHL1  H16A  244   1.658   5.494   5.136  0.5985 -2.0271 -0.5536
    4CHL1  H16B  245   1.827   5.534   5.133  0.4283  0.7869  0.5815
    4CHL1   C17  246   1.763   5.351   5.268 -0.7034  0.0387  0.2213
    4CHL1   H17  247   1.870   5.359   5.296 -0.4264  0.1823 -0.8559
    4CHL1   C13  248   1.678   5.359   5.394  0.0795 -0.4478 -0.3163
    4CHL1   C18  249   1.532   5.353   5.347 -0.4725 -0.3427  0.1055
    4CHL1  H18A  250   1.511   5.398   5.248 -2.4326 -2.3744 -0.4805
    4CHL1  H18B  251   1.496   5.248   5.343  0.5064 -0.8081  2.2236
    4CHL1  H18C  252   1.459   5.399   5.417  1.6271 -0.4248  2.5072
    4CHL1   C12  253   1.703   5.258   5.512  0.1432 -0.0007 -0.3441
    4CHL1  H12A  254   1.682   5.156   5.474 -1.9957 -0.1213  1.0097
    4CHL1  H12B  255   1.810   5.257   5.543 -0.1572  0.1591  0.7684
    4CHL1   C11  256   1.626   5.288   5.642 -0.2689  0.4271 -0.1946
    4CHL1  H11A  257   1.520   5.253   5.644  0.2601 -1.3409  2.2884
    4CHL1  H11B  258   1.656   5.225   5.728 -0.4749 -1.2322 -1.2679
    4CHL1    C9  259   1.637   5.443   5.684  1.0046 -0.7303  0.1427
    4CHL1    H9  260   1.744   5.443   5.713  1.1652 -1.8913 -0.4152
    4CHL1   C10  261   1.551   5.486   5.808  0.1203 -0.8623 -0.5254
    4CHL1   C19  262   1.405   5.438   5.779 -0.7681  0.0707 -0.0548
    4CHL1  H19A  263   1.346   5.483   5.861 -0.0607 -0.3041  0.6800
    4CHL1  H19B  264   1.368   5.473   5.680 -3.0256  0.0054  0.7195
    4CHL1  H19C  265   1.382   5.329   5.786 -2.2664  0.4724  2.9027
    4CHL1    C1  266   1.606   5.417   5.935 -0.4141  0.5011  0.0645
    4CHL1   H1A  267   1.562   5.315   5.936  0.7309 -0.0056  1.1576
    4CHL1   H1B  268   1.716   5.419   5.927 -0.4639 -0.1885 -1.1189
    4CHL1    C2  269   1.565   5.480   6.071 -0.4985  0.7671  0.0276
    4CHL1   H2A  270   1.627   5.428   6.147  1.5166  2.5886 -0.2914
    4CHL1   H2B  271   1.460   5.458   6.098 -1.1164  1.2732 -1.8146
    4CHL1   C20  272   1.750   5.215   5.194  0.0447 -0.3293  0.5194
    4CHL1   H20  273   1.668   5.156   5.239 -1.9617  2.2085  0.4262
    4CHL1   C21  274   1.882   5.133   5.214 -0.1169 -0.1165 -0.4874
    4CHL1  H21A  275   1.963   5.179   5.153 -0.5088  0.1122 -0.8432
    4CHL1  H21B  276   1.850   5.037   5.167  0.3695  0.0920 -1.2554
    4CHL1  H21C  277   1.910   5.118   5.320  1.7870 -0.8010 -1.0488
    4CHL1   C22  278   1.708   5.230   5.044 -0.0867 -0.0417  0.9792
    4CHL1  H22A  279   1.635   5.311   5.023  1.4437  1.0379 -0.3518
    4CHL1  H22B  280   1.804   5.264   5.000 -0.0693  0.4463  1.3899
    4CHL1   C23  281   1.655   5.103   4.977 -0.2501  0.1358  0.9680
    4CHL1  H23A  282   1.710   5.008   4.997  0.0011  0.1539  0.3901
    4CHL1  H23B  283   1.556   5.094   5.027  0.0750 -0.7823  1.4639
    4CHL1   C24  284   1.640   5.117   4.823 -0.0127  0.1269  0.1133
    4CHL1  H24A  285   1.603   5.217   4.791  0.8936  0.9895  1.6296
    4CHL1  H24B  286   1.738   5.100   4.773  0.4213 -1.1907  1.3582
    4CHL1   C25  287   1.538   5.014   4.769  0.1801 -0.1734 -0.8421
    4CHL1   H25  288   1.558   5.019   4.660  0.9314 -1.1718 -0.7598
    4CHL1   C26  289   1.567   4.866   4.800 -0.5891  0.8185  0.3784
    4CHL1  H26A  290   1.580   4.858   4.910 -0.9212  1.4584  0.4719
    4CHL1  H26B  291   1.484   4.797   4.773  0.1665  0.3169 -0.7028
    4CHL1  H26C  292   1.658   4.841   4.743 -1.1918 -0.4864 -0.0346
    4CHL1   C27  293   1.395   5.052   4.807  0.3767  0.3999 -0.6664
    4CHL1  H27A  294   1.374   5.039   4.915  0.6549 -1.4796 -0.7915
    4CHL1  H27B  295   1.371   5.149   4.759  2.1729  1.6540  0.8546
    4CHL1  H27C  296   1.328   4.979   4.757  1.5856  0.1117 -1.9234
    5CHL1    C3  297   0.047   0.699   6.522 -0.1412 -0.2596 -0.3432
    5CHL1    H3  298  -0.036   0.762   6.482 -0.3598  0.2937  0.9340
    5CHL1    O3  299   0.052   0.700   6.665 -0.0739  0.0341  0.8796
    5CHL1   H3'  300   0.140   0.665   6.682 -0.0032  0.5230  1.5625
    5CHL1    C4  301   0.022   0.561   6.464 -0.1508 -0.8628 -0.4309
    5CHL1   H4A  302   0.094   0.490   6.509  3.1990  1.4319 -1.8324
    5CHL1   H4B  303  -0.078   0.530   6.503  0.3503  0.5188  2.1700
    5CHL1    C5  304   0.039   0.556   6.314  0.6825  0.6600  0.6633
    5CHL1    C6  305  -0.053   0.506   6.231  0.7838 -1.2331 -0.0224
    5CHL1    H6  306  -0.146   0.464   6.271 -0.0730  0.6293  0.0512
    5CHL1    C7  307  -0.044   0.502   6.078 -0.0951 -0.3573 -0.2316
    5CHL1   H7A  308  -0.063   0.403   6.033  1.7986 -1.3861  1.0868
    5CHL1   H7B  309  -0.114   0.577   6.036 -0.7036  0.0176  1.3712
    5CHL1    C8  310   0.092   0.538   6.028  0.2966  0.0843  0.0778
    5CHL1    H8  311   0.155   0.447   6.043 -2.3287 -1.8707 -0.0425
    5CHL1   C14  312   0.089   0.563   5.872  0.4276  0.0202 -0.1580
    5CHL1   H14  313   0.026   0.654   5.862  1.0610  0.3906 -0.8774
    5CHL1   C15  314   0.030   0.461   5.775 -0.1977 -0.2347 -0.1367
    5CHL1  H15A  315   0.074   0.361   5.797 -1.1252 -0.7897 -0.7251
    5CHL1  H15B  316  -0.080   0.449   5.790 -0.5090  3.0712  1.1065
    5CHL1   C16  317   0.081   0.510   5.644 -0.5094  0.4219 -0.1910
    5CHL1  H16A  318   0.126   0.422   5.594 -0.1173  0.9755 -0.8144
    5CHL1  H16B  319   0.002   0.539   5.571 -2.1855 -1.0049  0.9516
    5CHL1   C17  320   0.195   0.612   5.677  0.2269  0.5926 -0.2876
    5CHL1   H17  321   0.145   0.710   5.668 -1.5636 -0.4678 -3.0814
    5CHL1   C13  322   0.227   0.595   5.826 -0.0139  0.8357 -0.1406
    5CHL1   C18  323   0.328   0.472   5.834  0.8510  0.1418 -0.7025
    5CHL1  H18A  324   0.353   0.430   5.934  0.4150  0.9055 -0.2625
    5CHL1  H18B  325   0.284   0.384   5.783 -0.1307  1.1997 -1.7395
    5CHL1  H18C  326   0.429   0.501   5.798  0.7603 -0.2789 -1.3236
    5CHL1   C12  327   0.293   0.720   5.897  0.0932 -0.4416  0.0144
    5CHL1  H12A  328   0.397   0.741   5.865 -0.6509  1.1706 -1.5765
    5CHL1  H12B  329   0.235   0.811   5.870  0.6511 -0.3095 -0.7695
    5CHL1   C11  330   0.300   0.696   6.047 -0.2260  0.5139 -0.1415
    5CHL1  H11A  331   0.367   0.608   6.057  1.3841  0.8562 -5.1879
    5CHL1  H11B  332   0.348   0.786   6.093  0.1729  0.7349 -0.9686
    5CHL1    C9  333   0.156   0.651   6.107  0.0272  0.1525  0.2741
    5CHL1    H9  334   0.098   0.745   6.100 -1.1165 -0.5460  0.2368
    5CHL1   C10  335   0.167   0.619   6.258  0.0681 -0.7170 -0.5369
    5CHL1   C19  336   0.283   0.520   6.292 -0.3360  0.9054  0.3550
    5CHL1  H19A  337   0.380   0.563   6.258  0.6969 -3.1425 -2.7090
    5CHL1  H19B  338   0.300   0.482   6.395  1.2647 -2.2481 -0.9138
    5CHL1  H19C  339   0.263   0.429   6.231 -2.4827  1.7033 -0.2479
    5CHL1    C1  340   0.200   0.751   6.330  0.1389 -0.3488 -0.9272
    5CHL1   H1A  341   0.301   0.789   6.303  0.7461 -1.0065  0.3044
    5CHL1   H1B  342   0.126   0.828   6.300  0.2586 -0.2297 -0.9141
    5CHL1    C2  343   0.188   0.751   6.484  0.5403  0.0178 -0.1986
    5CHL1   H2A  344   0.185   0.856   6.522  2.2028 -0.6775  2.1114
    5CHL1   H2B  345   0.268   0.696   6.538  1.7547 -0.5126 -2.4286
    5CHL1   C20  346   0.318   0.617   5.583  0.6649  0.8175 -0.0185
    5CHL1   H20  347   0.398   0.547   5.615 -0.5327 -0.5763  0.0663
    5CHL1   C21  348   0.393   0.748   5.583 -0.1560 -0.5604  0.0305
    5CHL1  H21A  349   0.467   0.766   5.503 -1.6469  0.4473 -1.1743
    5CHL1  H21B  350   0.449   0.764   5.678  1.8707  2.0329 -1.4974
    5CHL1  H21C  351   0.327   0.835   5.563  1.1832  0.3587 -0.4644
    5CHL1   C22  352   0.289   0.574   5.435  0.2451  0.3493  0.0140
    5CHL1  H22A  353   0.246   0.473   5.419 -3.2820  1.4438  1.6299
    5CHL1  H22B  354   0.203   0.640   5.411 -1.4955 -1.4240  1.0750
    5CHL1   C23  355   0.417   0.572   5.341  0.3579  0.4299 -0.5202
    5CHL1  H23A  356   0.462   0.673   5.330  0.4520  0.7699  2.3165
    5CHL1  H23B  357   0.488   0.503   5.392 -0.8382 -2.1965 -2.1669
    5CHL1   C24  358   0.400   0.516   5.201 -0.9520 -0.3584  0.1169
    5CHL1  H24A  359   0.344   0.422   5.221 -0.0354 -0.4758  2.5570
    5CHL1  H24B  360   0.342   0.589   5.142  0.1193 -0.0191 -0.5404
    5CHL1   C25  361   0.527   0.476   5.135 -0.7014 -0.0197 -0.3509
    5CHL1   H25  362   0.578   0.401   5.198 -0.4175  0.0641 -0.4762
    5CHL1   C26  363   0.492   0.401   5.005 -0.4195  0.2096  0.0138
    5CHL1  H26A  364   0.406   0.331   5.014 -1.1454  0.6317 -2.5820
    5CHL1  H26B  365   0.454   0.469   4.925  0.2169 -2.3139 -2.6228
    5CHL1  H26C  366   0.582   0.352   4.963  0.6399  1.0267  1.2851
    5CHL1   C27  367   0.624   0.599   5.094  0.4874 -0.0845 -1.2939
    5CHL1  H27A  368   0.668   0.624   5.193 -0.9601  2.2149 -1.1517
    5CHL1  H27B  369   0.707   0.566   5.029 -0.0266 -0.3377 -1.8368
    5CHL1  H27C  370   0.572   0.688   5.052  1.6806  0.7870 -0.9875
    6CHL1    C3  371   6.069   6.376   6.482  0.1304 -0.2118 -1.1281
    6CHL1    H3  372   6.175   6.341   6.480  0.1136 -0.2896 -0.7950
    6CHL1    O3  373   6.003   6.352   6.604  0.7704 -0.4191  0.2607
    6CHL1   H3'  374   5.933   6.418   6.609  1.9087  0.7476  2.4707
    6CHL1    C4  375   6.066   6.532   6.439  0.8580  0.1167  0.5622
    6CHL1   H4A  376   5.959   6.561   6.439  0.0069 -2.7286  1.1610
    6CHL1   H4B  377   6.114   6.595   6.517 -0.1051  1.4526  0.1239
    6CHL1    C5  378   6.117   6.553   6.301 -0.2339  0.3401 -0.6727
    6CHL1    C6  379   6.212   6.639   6.274  0.3720 -0.9163  0.4020
    6CHL1    H6  380   6.268   6.693   6.352 -0.2127  1.4247 -0.7096
    6CHL1    C7  381   6.265   6.669   6.135 -0.1847  0.1980  0.5386
    6CHL1   H7A  382   6.269   6.779   6.118  0.4239 -0.0434 -1.0649
    6CHL1   H7B  383   6.367   6.628   6.122  0.3185  1.7054 -0.4968
    6CHL1    C8  384   6.174   6.615   6.023 -0.6685  0.3199  0.6132
    6CHL1    H8  385   6.092   6.689   6.013 -0.3260  0.4860 -1.4739
    6CHL1   C14  386   6.255   6.598   5.893  0.1321 -0.4394 -0.6357
    6CHL1   H14  387   6.328   6.518   5.916 -0.6764 -0.9319  0.3384
    6CHL1   C15  388   6.336   6.721   5.855 -0.0552 -0.6532 -0.1669
    6CHL1  H15A  389   6.279   6.812   5.883 -0.1857  0.0830 -2.5563
    6CHL1  H15B  390   6.433   6.722   5.909  0.2331 -0.4840 -0.6729
    6CHL1   C16  391   6.357   6.705   5.703  0.1763  0.8783  0.1820
    6CHL1  H16A  392   6.328   6.798   5.650 -2.6125 -0.3876 -0.7122
    6CHL1  H16B  393   6.461   6.674   5.680  0.9136  3.0938  0.3381
    6CHL1   C17  394   6.267   6.579   5.658  0.3791 -0.3396 -0.2690
    6CHL1   H17  395   6.332   6.489   5.660 -2.0803 -2.1961  1.4482
    6CHL1   C13  396   6.168   6.556   5.772 -0.0468 -0.4964 -0.2919
    6CHL1   C18  397   6.052   6.652   5.762 -0.1886  0.8168  0.1895
    6CHL1  H18A  398   5.987   6.664   5.852  1.6767 -0.1851  1.7285
    6CHL1  H18B  399   6.101   6.742   5.720  1.5457 -0.5994 -0.9459
    6CHL1  H18C  400   5.980   6.619   5.684 -1.2386  0.9389  1.0691
    6CHL1   C12  401   6.118   6.409   5.800  0.1734  0.3060  1.0470
    6CHL1  H12A  402   6.053   6.362   5.724  1.6350 -0.1475  0.0241
    6CHL1  H12B  403   6.211   6.348   5.808  0.1744 -0.4166 -2.5819
    6CHL1   C11  404   6.038   6.410   5.938  0.4918 -0.4890 -0.0132
    6CHL1  H11A  405   5.938   6.458   5.924  0.9795  0.9910  1.2920
    6CHL1  H11B  406   6.016   6.305   5.967  0.5319 -0.0227  1.8325
    6CHL1    C9  407   6.118   6.477   6.049 -0.1467  0.2325  0.5212
    6CHL1    H9  408   6.207   6.411   6.057  0.8413  1.3758 -0.5609
    6CHL1   C10  409   6.051   6.464   6.188  0.8040 -0.1749 -0.0664
    6CHL1   C19  410   5.913   6.530   6.181  0.4190 -0.2584  0.5614
    6CHL1  H19A  411   5.925   6.634   6.142  0.7638 -0.0398  1.2447
    6CHL1  H19B  412   5.847   6.463   6.122 -1.3649  1.9881 -0.1802
    6CHL1  H19C  413   5.854   6.518   6.274  0.1028  0.0838  0.4118
    6CHL1    C1  414   6.057   6.318   6.241  0.3846 -0.2025  0.0149
    6CHL1   H1A  415   6.008   6.246   6.172  0.7008 -0.1218 -0.2964
    6CHL1   H1B  416   6.163   6.284   6.250  0.2584 -0.5201  0.3073
    6CHL1    C2  417   5.991   6.297   6.379  0.3483 -1.0784 -0.5077
    6CHL1   H2A  418   6.002   6.190   6.403 -2.1399 -1.1695  0.4912
    6CHL1   H2B  419   5.883   6.320   6.367  0.4513 -1.3863 -2.2296
    6CHL1   C20  420   6.216   6.595   5.514  0.2628 -0.3311 -0.1523
    6CHL1   H20  421   6.146   6.680   5.502  0.3386 -0.5600 -2.5352
    6CHL1   C21  422   6.141   6.471   5.473 -0.3581 -0.1871  0.5772
    6CHL1  H21A  423   6.112   6.483   5.366  0.0531  1.9293  0.6491
    6CHL1  H21B  424   6.049   6.442   5.528  0.1364 -2.7956  0.1527
    6CHL1  H21C  425   6.205   6.381   5.467 -0.2003 -0.0391 -0.1019
    6CHL1   C22  426   6.339   6.618   5.415  0.3041 -0.0887  0.2552
    6CHL1  H22A  427   6.431   6.657   5.465  1.2531 -1.5610 -0.2704
    6CHL1  H22B  428   6.363   6.515   5.381  1.0723 -0.5736  2.1371
    6CHL1   C23  429   6.298   6.709   5.299  0.2799  0.7200  0.4965
    6CHL1  H23A  430   6.217   6.656   5.244  0.2040  1.3516 -0.0225
    6CHL1  H23B  431   6.256   6.804   5.339  2.6171  1.5153  1.2069
    6CHL1   C24  432   6.410   6.743   5.203 -0.2162  0.1607 -0.9029
    6CHL1  H24A  433   6.474   6.811   5.263  0.7540 -0.9411 -0.6515
    6CHL1  H24B  434   6.461   6.650   5.173  1.0876  1.1677 -1.9123
    6CHL1   C25  435   6.375   6.814   5.073 -0.2778  0.7761 -1.0066
    6CHL1   H25  436   6.475   6.833   5.029  1.0300 -0.7680  1.0754
    6CHL1   C26  437   6.298   6.735   4.969  0.4344  0.0063  0.2113
    6CHL1  H26A  438   6.301   6.779   4.867  0.1531  2.1762  1.0834
    6CHL1  H26B  439   6.348   6.637   4.951  0.1678  0.1456 -1.5064
    6CHL1  H26C  440   6.194   6.710   5.001 -0.4258  0.4957 -2.0043
    6CHL1   C27  441   6.321   6.951   5.097 -0.3528 -0.0834  0.2337
    6CHL1  H27A  442   6.282   7.003   5.007 -1.8936  1.2713  1.6096
    6CHL1  H27B  443   6.238   6.929   5.167  2.4008 -2.1699  3.1639
    6CHL1  H27C  444   6.392   7.023   5.145 -0.0861  0.9554 -1.6227
    7CHL1    C3  445   0.599   5.680   6.530 -0.1738  0.1600  0.5192
    7CHL1    H3  446   0.688   5.748   6.535 -2.6804  3.8996 -1.1716
    7CHL1    O3  447   0.558   5.651   6.660  0.7880 -0.6852 -0.2663
    7CHL1   H3'  448   0.638   5.675   6.708  1.3783 -1.7238 -0.7080
    7CHL1    C4  449   0.490   5.756   6.456 -0.1396 -0.1316 -0.8441
    7CHL1   H4A  450   0.390   5.708   6.463 -1.2649  2.1329 -0.4406
    7CHL1   H4B  451   0.466   5.850   6.510 -1.5538 -1.0748  0.2393
    7CHL1    C5  452   0.533   5.781   6.312  0.7314  0.4051 -0.8349
    7CHL1    C6  453   0.555   5.904   6.263 -0.2422 -0.4681 -0.3043
    7CHL1    H6  454   0.523   5.993   6.319 -0.6825  0.2612 -1.6679
    7CHL1    C7  455   0.608   5.934   6.132  0.6788  0.2550 -0.7848
    7CHL1   H7A  456   0.548   6.019   6.092  0.1046 -0.0080 -0.4977
    7CHL1   H7B  457   0.716   5.957   6.136  0.9876 -1.0741 -1.0437
    7CHL1    C8  458   0.590   5.816   6.040  0.2459  0.0107 -0.2119
    7CHL1    H8  459   0.480   5.805   6.029  0.3930 -0.1001 -2.0365
    7CHL1   C14  460   0.643   5.844   5.892  0.2183 -0.0767 -0.2545
    7CHL1   H14  461   0.752   5.863   5.901  0.1743  0.1274 -0.1527
    7CHL1   C15  462   0.592   5.974   5.815 -0.2074  0.6348  0.2816
    7CHL1  H15A  463   0.483   5.977   5.834 -0.6508  0.2743 -1.9591
    7CHL1  H15B  464   0.638   6.068   5.853  1.3564  0.1139 -0.2320
    7CHL1   C16  465   0.625   5.941   5.669  0.1613 -0.5343 -0.5963
    7CHL1  H16A  466   0.534   5.952   5.606 -3.4242 -2.7357  3.6194
    7CHL1  H16B  467   0.709   6.008   5.643 -0.3140  0.7100  0.9619
    7CHL1   C17  468   0.684   5.798   5.666  0.0588  0.3339 -0.7900
    7CHL1   H17  469   0.788   5.825   5.695 -0.1872  1.0520 -0.5597
    7CHL1   C13  470   0.626   5.726   5.796  0.6260 -0.2095 -0.4978
    7CHL1   C18  471   0.478   5.706   5.770  0.6361 -0.6161 -0.5697
    7CHL1  H18A  472   0.437   5.795   5.719 -0.3306 -0.1043  1.0186
    7CHL1  H18B  473   0.454   5.616   5.710 -0.3612  0.1758 -1.3822
    7CHL1  H18C  474   0.428   5.687   5.867  1.4966 -0.3603 -0.0654
    7CHL1   C12  475   0.692   5.598   5.859  0.0074  0.2965  0.2595
    7CHL1  H12A  476   0.689   5.507   5.795 -0.5565 -0.5235  1.4203
    7CHL1  H12B  477   0.801   5.620   5.866 -0.5798  3.2171  2.2115
    7CHL1   C11  478   0.631   5.563   5.997 -0.5622 -0.2604 -0.1353
    7CHL1  H11A  479   0.528   5.529   5.971 -0.4754 -1.0203  0.4552
    7CHL1  H11B  480   0.691   5.481   6.043 -1.5311 -0.8702  0.0712
    7CHL1    C9  481   0.638   5.684   6.100 -0.2770  0.4875  0.5011
    7CHL1    H9  482   0.746   5.694   6.123 -0.1486 -0.9114  0.5772
    7CHL1   C10  483   0.583   5.650   6.238  0.2840  0.1026 -0.3911
    7CHL1   C19  484   0.443   5.569   6.217 -0.0175  0.0145  0.2181
    7CHL1  H19A  485   0.378   5.636   6.156  1.7132  0.4237 -1.2717
    7CHL1  H19B  486   0.459   5.471   6.167 -0.8156  0.3509 -0.7339
    7CHL1  H19C  487   0.389   5.554   6.313 -0.4032 -0.0182 -0.0037
    7CHL1    C1  488   0.687   5.555   6.323  0.7162 -0.3968  0.7320
    7CHL1   H1A  489   0.693   5.455   6.276 -0.0365  0.1501 -0.5779
    7CHL1   H1B  490   0.780   5.615   6.320  0.6709 -0.3803 -1.1805
    7CHL1    C2  491   0.630   5.543   6.462  0.9030  0.3082 -0.0383
    7CHL1   H2A  492   0.711   5.498   6.523 -1.0458 -3.1844  0.2849
    7CHL1   H2B  493   0.544   5.473   6.469  1.6828 -0.7272 -0.4516
    7CHL1   C20  494   0.675   5.725   5.533  0.1921 -0.2184  0.1062
    7CHL1   H20  495   0.572   5.695   5.506  0.1018  0.2357 -0.0724
    7CHL1   C21  496   0.785   5.616   5.533  0.5661 -0.3934 -0.0827
    7CHL1  H21A  497   0.763   5.552   5.445  0.3746  1.1777 -1.2200
    7CHL1  H21B  498   0.781   5.548   5.621  0.7884 -0.9549 -0.4940
    7CHL1  H21C  499   0.890   5.649   5.522  0.7425 -0.9384 -0.0914
    7CHL1   C22  500   0.715   5.828   5.421 -0.2234  0.3153 -0.1089
    7CHL1  H22A  501   0.641   5.911   5.416 -1.0346 -0.4082 -0.2851
    7CHL1  H22B  502   0.809   5.879   5.451 -0.0483 -0.4938  0.7733
    7CHL1   C23  503   0.734   5.781   5.272 -0.2903  0.8235 -0.7279
    7CHL1  H23A  504   0.762   5.867   5.209  0.6982  0.8348 -0.2962
    7CHL1  H23B  505   0.814   5.703   5.274 -0.5544  0.5104  1.6544
    7CHL1   C24  506   0.615   5.721   5.201 -0.0493 -0.1842  0.6288
    7CHL1  H24A  507   0.539   5.689   5.276  0.3865 -0.7587  0.8307
    7CHL1  H24B  508   0.566   5.806   5.148  1.2423 -0.6139 -1.3455
    7CHL1   C25  509   0.642   5.609   5.099  0.3919 -0.2283  0.1452
    7CHL1   H25  510   0.688   5.526   5.156 -0.1036 -0.3493  0.3789
    7CHL1   C26  511   0.509   5.554   5.045 -0.1620  0.6879  0.0529
    7CHL1  H26A  512   0.452   5.627   4.984  0.0176  2.0635  1.4538
    7CHL1  H26B  513   0.537   5.462   4.991 -1.7566  1.1051 -1.5894
    7CHL1  H26C  514   0.454   5.523   5.137  0.1058  0.4215  0.1236
    7CHL1   C27  515   0.733   5.666   4.984  0.1213  0.0043  0.7447
    7CHL1  H27A  516   0.662   5.715   4.913 -0.9329 -0.6879  1.2836
    7CHL1  H27B  517   0.811   5.737   5.018 -1.2910  0.8297  2.4559
    7CHL1  H27C  518   0.774   5.582   4.926 -1.1017  0.9115 -1.5655
    8CHL1    C3  519   4.787   6.390   6.300 -0.2565 -0.5383  0.3921
    8CHL1    H3  520   4.709   6.329   6.250 -0.9718  0.7534 -0.1144
    8CHL1    O3  521   4.804   6.353   6.432 -0.4164  0.2290 -0.3016
    8CHL1   H3'  522   4.713   6.354   6.463 -0.9924 -1.6142 -1.7549
    8CHL1    C4  523   4.923   6.362   6.230 -0.2437  0.1832  0.1759
    8CHL1   H4A  524   5.006   6.408   6.288  1.0489 -0.6840 -0.9171
    8CHL1   H4B  525   4.939   6.252   6.221  2.8177  0.6027 -0.8212
    8CHL1    C5  526   4.930   6.427   6.097  0.0684  0.2145  0.6192
    8CHL1    C6  527   4.936   6.359   5.980  0.1202  0.7521  0.0060
    8CHL1    H6  528   4.944   6.250   5.984 -1.4087  0.6106 -0.2437
    8CHL1    C7  529   4.955   6.415   5.842  0.3067 -0.7492 -0.5349
    8CHL1   H7A  530   5.040   6.373   5.784  1.6019  1.4234 -0.3190
    8CHL1   H7B  531   4.860   6.389   5.789  0.8335 -0.4681 -1.6465
    8CHL1    C8  532   4.979   6.572   5.849 -0.0237 -0.3129 -0.2523
    8CHL1    H8  533   5.084   6.586   5.884 -0.8374  0.0523  2.2392
    8CHL1   C14  534   4.961   6.628   5.711  0.6538 -0.1794 -0.0540
    8CHL1   H14  535   4.854   6.629   5.680  0.9861  1.6635 -1.3599
    8CHL1   C15  536   5.040   6.555   5.601 -0.5124 -0.0125 -0.2715
    8CHL1  H15A  537   5.137   6.529   5.648 -1.0474  0.6040  1.2511
    8CHL1  H15B  538   4.992   6.461   5.565  0.3263 -1.0808  1.2974
    8CHL1   C16  539   5.069   6.660   5.493 -0.2903  0.4878 -1.0617
    8CHL1  H16A  540   5.178   6.673   5.475 -0.0397 -0.6764 -0.4470
    8CHL1  H16B  541   5.019   6.634   5.397  0.6700 -0.0287 -1.4420
    8CHL1   C17  542   4.998   6.791   5.549  0.0881  0.0297  0.6064
    8CHL1   H17  543   4.892   6.782   5.515  0.3183  0.6345 -0.3039
    8CHL1   C13  544   5.000   6.779   5.704 -0.0901  0.3975 -0.4882
    8CHL1   C18  545   5.145   6.805   5.741 -0.9128  0.3538  0.0594
    8CHL1  H18A  546   5.216   6.741   5.685 -2.9145 -0.4205 -1.7435
    8CHL1  H18B  547   5.163   6.912   5.714 -0.6280  0.1955 -0.3800
    8CHL1  H18C  548   5.156   6.788   5.850 -0.4473 -0.6117 -0.1292
    8CHL1   C12  549   4.894   6.851   5.782  0.3370  0.4525  0.3937
    8CHL1  H12A  550   4.922   6.958   5.785  1.9873  0.0328  1.5881
    8CHL1  H12B  551   4.795   6.831   5.735  1.1551 -5.1233  0.3209
    8CHL1   C11  552   4.895   6.794   5.927  0.8242 -0.3380 -0.5641
    8CHL1  H11A  553   4.993   6.831   5.964 -0.1010 -1.5936  3.7010
    8CHL1  H11B  554   4.817   6.838   5.993  0.7667 -0.4771 -0.5381
    8CHL1    C9  555   4.885   6.639   5.944 -0.8307  0.3800  0.0598
    8CHL1    H9  556   4.780   6.611   5.920 -1.1849 -0.0485  1.9435
    8CHL1   C10  557   4.896   6.578   6.090 -0.0461  0.2068 -0.4566
    8CHL1   C19  558   5.018   6.642   6.163  0.4993  0.1060 -0.3858
    8CHL1  H19A  559   5.020   6.752   6.177  2.8383  0.0478  0.0330
    8CHL1  H19B  560   5.021   6.589   6.260  1.0719 -0.2473 -0.5964
    8CHL1  H19C  561   5.114   6.612   6.117  0.4165 -1.1139  0.2142
    8CHL1    C1  562   4.758   6.593   6.164 -0.1578  0.5180 -0.1671
    8CHL1   H1A  563   4.743   6.703   6.160  0.6738  0.6128 -0.9661
    8CHL1   H1B  564   4.676   6.552   6.101 -1.1428 -0.4408  1.6617
    8CHL1    C2  565   4.755   6.536   6.306 -0.1228 -0.0216 -0.5172
    8CHL1   H2A  566   4.651   6.537   6.346 -0.1972 -2.0136 -0.5720
    8CHL1   H2B  567   4.813   6.602   6.374 -3.8781  2.9310  0.1319
    8CHL1   C20  568   5.052   6.919   5.476  0.8873  0.5066 -0.2756
    8CHL1   H20  569   5.161   6.929   5.491  1.3760 -1.6684 -1.9234
    8CHL1   C21  570   4.978   7.040   5.535 -0.4829  0.4821  0.0371
    8CHL1  H21A  571   5.025   7.078   5.628  2.2757 -1.6259 -0.3491
    8CHL1  H21B  572   4.867   7.032   5.545 -0.6706  1.9153 -0.7563
    8CHL1  H21C  573   4.988   7.118   5.458  1.3367  1.0144  0.7555
    8CHL1   C22  574   5.029   6.918   5.323  0.0354  0.0198 -0.1399
    8CHL1  H22A  575   5.014   6.815   5.284 -0.4763  0.2494 -0.5596
    8CHL1  H22B  576   4.928   6.963   5.309 -0.3645 -0.8460 -0.1121
    8CHL1   C23  577   5.131   6.997   5.249  0.3693  0.5521  0.3212
    8CHL1  H23A  578   5.159   7.083   5.312 -0.5182  0.1909  1.2393
    8CHL1  H23B  579   5.213   6.927   5.220 -1.5842 -1.5639 -0.4602
    8CHL1   C24  580   5.050   7.044   5.122 -0.3905  0.8774 -0.7826
    8CHL1  H24A  581   5.022   6.950   5.070 -0.4753 -0.0422  0.8490
    8CHL1  H24B  582   4.961   7.100   5.158 -0.5481  0.9618 -1.2942
    8CHL1   C25  583   5.125   7.145   5.033 -0.2002 -0.1308  0.0405
    8CHL1   H25  584   5.167   7.228   5.095  1.8936 -1.5345  0.6242
    8CHL1   C26  585   5.240   7.079   4.966  0.0338 -0.3410 -0.1313
    8CHL1  H26A  586   5.281   7.150   4.891  1.4374 -0.5387  0.4173
    8CHL1  H26B  587   5.323   7.054   5.036  0.2556  1.1652  0.1802
    8CHL1  H26C  588   5.199   6.993   4.908 -1.6064  0.8949 -0.8649
    8CHL1   C27  589   5.035   7.222   4.929  0.2880  0.3754 -0.2617
    8CHL1  H27A  590   5.088   7.301   4.872  1.4187 -0.4489 -0.3854
    8CHL1  H27B  591   5.010   7.144   4.853  1.3616  1.5234 -1.8570
    8CHL1  H27C  592   4.944   7.266   4.975  0.1595  0.0215 -0.1760
    9CHL1    C3  593   2.497   5.942   6.270  0.1427 -0.3623  0.1197
    9CHL1    H3  594   2.509   6.049   6.296 -1.1517 -0.0676 -0.4007
    9CHL1    O3  595   2.508   5.859   6.385 -0.2104 -0.7590  0.3144
    9CHL1   H3'  596   2.491   5.772   6.348 -0.1523 -1.3449  1.6476
    9CHL1    C4  597   2.355   5.929   6.209  0.2877 -0.2288 -0.7608
    9CHL1   H4A  598   2.332   5.823   6.186 -2.7102  0.2313 -0.3554
    9CHL1   H4B  599   2.281   5.967   6.283  2.0478  3.2194 -0.5940
    9CHL1    C5  600   2.345   6.013   6.080 -0.5305  0.9185  0.0493
    9CHL1    C6  601   2.258   6.112   6.068 -0.4827 -0.2572 -0.1559
    9CHL1    H6  602   2.206   6.146   6.159  1.4262  2.7342 -0.0150
    9CHL1    C7  603   2.251   6.199   5.940  0.3086  0.1657 -0.2719
    9CHL1   H7A  604   2.146   6.218   5.910  0.1980 -0.6376 -0.4299
    9CHL1   H7B  605   2.302   6.298   5.944  1.5124 -0.2933 -2.3657
    9CHL1    C8  606   2.308   6.126   5.824 -0.7977  0.2691 -0.0129
    9CHL1    H8  607   2.244   6.044   5.787  1.3740 -1.8421  0.6641
    9CHL1   C14  608   2.320   6.228   5.711 -0.3460 -0.4334 -0.4983
    9CHL1   H14  609   2.396   6.303   5.741 -1.2210  0.1936  0.2361
    9CHL1   C15  610   2.194   6.314   5.676  0.9877  0.3422  0.0314
    9CHL1  H15A  611   2.113   6.243   5.648  0.3108  1.6783 -1.5822
    9CHL1  H15B  612   2.152   6.374   5.760  0.1887  1.5596 -1.1983
    9CHL1   C16  613   2.237   6.394   5.559 -0.5329 -0.2816  0.9016
    9CHL1  H16A  614   2.150   6.399   5.490 -0.5972  0.7204  1.0439
    9CHL1  H16B  615   2.264   6.501   5.577 -1.5208 -0.2925  2.5356
    9CHL1   C17  616   2.363   6.313   5.493 -0.3393  0.0250 -0.8509
    9CHL1   H17  617   2.447   6.377   5.527 -0.4665 -0.4579  0.4203
    9CHL1   C13  618   2.371   6.185   5.576 -0.4550  0.2300 -1.0190
    9CHL1   C18  619   2.276   6.078   5.512  0.3524  0.0055 -0.2843
    9CHL1  H18A  620   2.173   6.115   5.488  0.0254  0.8366  2.1587
    9CHL1  H18B  621   2.323   6.017   5.432  0.1051 -1.6136  0.7652
    9CHL1  H18C  622   2.254   5.997   5.584 -0.3119 -0.0702 -0.5557
    9CHL1   C12  623   2.512   6.125   5.602  0.1247  0.3521  0.2004
    9CHL1  H12A  624   2.555   6.063   5.521 -0.0415 -2.5536  2.1718
    9CHL1  H12B  625   2.579   6.212   5.620 -2.5197  2.6085 -0.2643
    9CHL1   C11  626   2.518   6.035   5.731 -0.0974  0.1957  0.0910
    9CHL1  H11A  627   2.452   5.953   5.697 -0.5539  1.1398 -1.3922
    9CHL1  H11B  628   2.617   5.991   5.756 -0.4083 -0.1813  0.6574
    9CHL1    C9  629   2.446   6.082   5.861 -0.5012  0.4490 -0.1680
    9CHL1    H9  630   2.499   6.175   5.889  1.3729  0.1038 -2.2391
    9CHL1   C10  631   2.457   5.976   5.973  0.2562 -0.7548  0.1750
    9CHL1   C19  632   2.432   5.839   5.909  0.0497  0.1726  0.3952
    9CHL1  H19A  633   2.512   5.791   5.849  0.4492 -0.0660  1.1164
    9CHL1  H19B  634   2.410   5.768   5.992 -0.8122  1.6241  1.4685
    9CHL1  H19C  635   2.336   5.851   5.854  1.1426 -0.1003 -1.6645
    9CHL1    C1  636   2.596   5.976   6.036 -0.7458 -0.2610  0.2385
    9CHL1   H1A  637   2.668   5.936   5.960 -1.3539 -1.8186  0.4614
    9CHL1   H1B  638   2.624   6.081   6.059  1.3509 -0.8692  0.6899
    9CHL1    C2  639   2.605   5.897   6.169  0.6979  0.2769 -0.0279
    9CHL1   H2A  640   2.706   5.895   6.215  0.4530  1.9087  0.6758
    9CHL1   H2B  641   2.571   5.795   6.143  1.1047  0.6898 -2.4409
    9CHL1   C20  642   2.370   6.323   5.344 -0.2996  0.1681  0.2934
    9CHL1   H20  643   2.275   6.280   5.306  0.0581  0.9547 -1.6407
    9CHL1   C21  644   2.493   6.240   5.284  0.1139 -0.1302  0.4428
    9CHL1  H21A  645   2.471   6.224   5.177 -1.6204 -0.4250  0.8153
    9CHL1  H21B  646   2.494   6.139   5.333  1.2790 -0.8292 -0.9516
    9CHL1  H21C  647   2.595   6.283   5.297 -0.1903  0.7943 -0.1424
    9CHL1   C22  648   2.367   6.462   5.277 -0.7456  0.1285 -0.5021
    9CHL1  H22A  649   2.322   6.536   5.346  1.8151  1.9173 -0.5964
    9CHL1  H22B  650   2.472   6.492   5.254  0.0067 -0.2920  2.0548
    9CHL1   C23  651   2.291   6.462   5.146  0.3130 -1.0108  0.4424
    9CHL1  H23A  652   2.342   6.403   5.067  0.8409  1.1610 -0.9372
    9CHL1  H23B  653   2.187   6.424   5.155  0.0394 -0.1788  0.8891
    9CHL1   C24  654   2.289   6.610   5.090 -0.5088 -1.0653  0.1426
    9CHL1  H24A  655   2.261   6.687   5.165  0.2315 -0.8462  0.1947
    9CHL1  H24B  656   2.388   6.648   5.059 -0.2135 -2.0250 -0.1501
    9CHL1   C25  657   2.200   6.633   4.963  0.0491  0.6070 -0.5980
    9CHL1   H25  658   2.208   6.541   4.901 -0.4233  0.2091 -0.0772
    9CHL1   C26  659   2.058   6.657   5.006 -0.0937 -0.5507 -0.8399
    9CHL1  H26A  660   2.020   6.580   5.077  0.5808 -0.2275 -0.1181
    9CHL1  H26B  661   2.037   6.757   5.048 -2.7699 -2.2592  2.3424
    9CHL1  H26C  662   1.990   6.636   4.921 -0.1517 -2.2017 -0.4298
    9CHL1   C27  663   2.257   6.748   4.885  0.8905  0.2481  0.2559
    9CHL1  H27A  664   2.285   6.840   4.941  2.4059  0.6981 -1.1674
    9CHL1  H27B  665   2.346   6.715   4.828  0.6309  1.1544 -0.7016
    9CHL1  H27C  666   2.203   6.770   4.790  1.2258 -0.2218 -0.0507
   10CHL1    C3  667   2.919   2.340   5.955  0.0300  0.0831 -0.3213
   10CHL1    H3  668   2.866   2.246   5.931  0.6035 -0.2235 -0.4024
   10CHL1    O3  669   2.901   2.348   6.097 -0.3009 -0.2895 -0.2480
   10CHL1   H3'  670   2.829   2.289   6.122  0.1217 -0.7669 -0.1542
   10CHL1    C4  671   3.065   2.328   5.904 -0.5550 -0.2344 -0.2323
   10CHL1   H4A  672   3.103   2.424   5.944  0.1362 -0.2069 -0.9254
   10CHL1   H4B  673   3.111   2.239   5.952 -2.5842 -1.8548 -1.1138
   10CHL1    C5  674   3.090   2.322   5.759 -0.6348 -0.6091  0.1707
   10CHL1    C6  675   3.169   2.233   5.704  0.3207  0.0586 -0.3033
   10CHL1    H6  676   3.215   2.158   5.770 -1.5496  0.9266  2.1403
   10CHL1    C7  677   3.207   2.232   5.559  0.2323  0.5328 -0.5429
   10CHL1   H7A  678   3.317   2.217   5.550  0.0086 -1.8265 -0.0632
   10CHL1   H7B  679   3.154   2.154   5.500  0.8027  1.0061 -1.7125
   10CHL1    C8  680   3.175   2.366   5.491 -0.0580 -0.1082  0.5575
   10CHL1    H8  681   3.248   2.446   5.514  0.7561 -0.5655 -0.3552
   10CHL1   C14  682   3.184   2.338   5.337  0.0370 -0.5138 -0.8142
   10CHL1   H14  683   3.121   2.249   5.316 -0.1600 -0.1459 -1.8285
   10CHL1   C15  684   3.319   2.303   5.275  0.2367 -0.1269 -0.3577
   10CHL1  H15A  685   3.389   2.384   5.304 -0.4340  0.2753  0.1812
   10CHL1  H15B  686   3.366   2.208   5.309  0.2003  1.1148  3.6679
   10CHL1   C16  687   3.281   2.320   5.125 -0.4784  0.2599 -0.6949
   10CHL1  H16A  688   3.365   2.370   5.071 -0.2670  0.1521 -0.4695
   10CHL1  H16B  689   3.265   2.224   5.071 -1.3512 -0.4473  0.7644
   10CHL1   C17  690   3.149   2.398   5.114 -0.3182 -0.1789  0.3594
   10CHL1   H17  691   3.074   2.321   5.086 -0.2524 -0.4212  0.8295
   10CHL1   C13  692   3.119   2.448   5.258  0.4059 -0.7335 -0.6171
   10CHL1   C18  693   3.195   2.587   5.279 -0.7317 -0.2834 -0.4803
   10CHL1  H18A  694   3.194   2.618   5.386  1.9759 -2.4087  0.2853
   10CHL1  H18B  695   3.304   2.584   5.258 -0.7291 -2.9141 -0.3615
   10CHL1  H18C  696   3.147   2.665   5.216  0.1509 -0.1681 -1.0254
   10CHL1   C12  697   2.976   2.473   5.299 -0.1995 -0.2242 -0.2097
   10CHL1  H12A  698   2.930   2.563   5.252 -3.2587  0.2906  3.2768
   10CHL1  H12B  699   2.918   2.389   5.256  0.2953 -0.4464 -0.4456
   10CHL1   C11  700   2.956   2.501   5.444  0.0952 -0.6814 -0.2861
   10CHL1  H11A  701   2.978   2.607   5.468 -1.3286 -0.5978  0.8322
   10CHL1  H11B  702   2.848   2.508   5.470  0.0936  1.6938 -0.7511
   10CHL1    C9  703   3.025   2.400   5.528 -0.3007 -0.0368 -0.2349
   10CHL1    H9  704   2.971   2.306   5.502 -2.1910  0.6469  1.0109
   10CHL1   C10  705   3.015   2.435   5.681 -0.4616 -0.1816  0.8639
   10CHL1   C19  706   3.077   2.575   5.713  0.0472 -0.6218 -0.2622
   10CHL1  H19A  707   3.022   2.660   5.666  2.1257  0.9120 -0.0993
   10CHL1  H19B  708   3.091   2.582   5.823  2.6862  0.0016 -0.5592
   10CHL1  H19C  709   3.178   2.576   5.666 -0.9697 -4.0351 -2.9147
   10CHL1    C1  710   2.872   2.432   5.734 -0.8923 -0.4293  0.8527
   10CHL1   H1A  711   2.822   2.510   5.672  1.9261  0.8841  0.0744
   10CHL1   H1B  712   2.818   2.342   5.698 -2.9652  0.4756  1.5447
   10CHL1    C2  713   2.843   2.455   5.881  0.0464  0.6558  0.2091
   10CHL1   H2A  714   2.735   2.438   5.900 -0.1468  0.6079 -0.8885
   10CHL1   H2B  715   2.880   2.551   5.920  0.2484  0.9968 -0.8007
   10CHL1   C20  716   3.140   2.496   4.995  0.2196 -0.0198 -0.0183
   10CHL1   H20  717   3.225   2.568   5.003  0.6997 -0.4386 -1.2022
   10CHL1   C21  718   3.007   2.576   4.987 -0.1485 -0.9609  0.1366
   10CHL1  H21A  719   3.005   2.645   5.074 -1.9073  1.5571 -1.7312
   10CHL1  H21B  720   2.923   2.503   4.993 -0.3704 -0.7548 -0.3371
   10CHL1  H21C  721   3.002   2.641   4.897  1.2806 -0.3842  0.4431
   10CHL1   C22  722   3.154   2.417   4.857 -0.3774 -0.5943 -0.8316
   10CHL1  H22A  723   3.247   2.356   4.846  1.5838  2.3558 -1.9894
   10CHL1  H22B  724   3.077   2.337   4.855  0.7891 -1.7607 -0.5975
   10CHL1   C23  725   3.160   2.508   4.730  0.2060 -0.4029  0.5727
   10CHL1  H23A  726   3.055   2.539   4.711 -0.8133 -2.4579  2.3700
   10CHL1  H23B  727   3.229   2.594   4.739  1.8223 -1.8236  2.3615
   10CHL1   C24  728   3.205   2.414   4.618  0.4544  0.3204  0.8877
   10CHL1  H24A  729   3.300   2.366   4.649 -0.1571 -1.9583 -0.5473
   10CHL1  H24B  730   3.135   2.330   4.601  0.9452  0.2562 -1.0624
   10CHL1   C25  731   3.228   2.487   4.487  0.8509  0.2524 -0.2269
   10CHL1   H25  732   3.280   2.582   4.511 -0.3185  0.8659 -0.0587
   10CHL1   C26  733   3.305   2.399   4.386  0.2057 -0.0731  0.8948
   10CHL1  H26A  734   3.342   2.446   4.293  2.5197  0.1710  1.8631
   10CHL1  H26B  735   3.394   2.353   4.435  0.9012 -1.9935 -1.9298
   10CHL1  H26C  736   3.243   2.309   4.363  0.3810  0.3194 -1.3018
   10CHL1   C27  737   3.087   2.524   4.433  0.2114 -0.4529 -0.5840
   10CHL1  H27A  738   3.001   2.454   4.439  0.1765 -0.4900 -1.3109
   10CHL1  H27B  739   3.045   2.624   4.454  0.4021 -0.6714  0.9402
   10CHL1  H27C  740   3.116   2.518   4.325  2.4391 -2.2889  0.0144
   11CHL1    C3  741   6.656   6.526   6.532 -0.2050 -0.0156  0.0273
   11CHL1    H3  742   6.567   6.579   6.491  0.4377  1.0840  0.0095
   11CHL1    O3  743   6.660   6.513   6.676  1.3136  0.1755 -0.0815
   11CHL1   H3'  744   6.739   6.562   6.698 -0.0933  2.9139 -0.6148
   11CHL1    C4  745   6.659   6.386   6.467  0.5372  0.7022  0.2931
   11CHL1   H4A  746   6.750   6.330   6.499  0.9423  1.4862  0.5356
   11CHL1   H4B  747   6.570   6.334   6.508  0.4300 -0.1039 -0.9198
   11CHL1    C5  748   6.648   6.401   6.317 -0.1634  0.8942  0.1917
   11CHL1    C6  749   6.550   6.348   6.239 -0.3376 -0.9656 -0.2797
   11CHL1    H6  750   6.468   6.289   6.285 -0.1251 -1.0035  0.0526
   11CHL1    C7  751   6.551   6.347   6.092 -0.5158  0.0349  0.2068
   11CHL1   H7A  752   6.537   6.248   6.043  2.1667  0.2951 -1.2684
   11CHL1   H7B  753   6.462   6.406   6.062 -0.8119 -0.9725 -0.9937
   11CHL1    C8  754   6.680   6.398   6.021  0.1730  0.3702 -0.7778
   11CHL1    H8  755   6.754   6.316   6.026  0.5062  0.6518 -1.0938
   11CHL1   C14  756   6.654   6.446   5.885  0.5945  0.3015  0.3600
   11CHL1   H14  757   6.575   6.524   5.889 -0.6599 -0.7776 -1.3439
   11CHL1   C15  758   6.577   6.342   5.791 -0.0388 -0.1084  0.4221
   11CHL1  H15A  759   6.617   6.239   5.801  0.7347  0.0650 -0.7384
   11CHL1  H15B  760   6.467   6.342   5.812 -0.3958  2.2878 -1.0297
   11CHL1   C16  761   6.618   6.385   5.651  0.6119 -0.0067  0.5187
   11CHL1  H16A  762   6.664   6.298   5.599 -0.1236  1.1998 -2.3083
   11CHL1  H16B  763   6.530   6.409   5.588 -0.7214 -2.0923  1.4420
   11CHL1   C17  764   6.717   6.507   5.671 -0.5679 -0.0459  0.2579
   11CHL1   H17  765   6.658   6.601   5.668  0.9222  0.9274 -0.0602
   11CHL1   C13  766   6.779   6.497   5.811  0.4413  0.7882 -0.5590
   11CHL1   C18  767   6.890   6.384   5.805  0.1210 -0.1355 -0.3929
   11CHL1  H18A  768   6.915   6.348   5.907 -1.3491  2.3396  0.9332
   11CHL1  H18B  769   6.861   6.288   5.756  0.1959  0.5419 -1.7862
   11CHL1  H18C  770   6.986   6.425   5.767 -0.0365  2.2228  1.5607
   11CHL1   C12  771   6.828   6.624   5.889  0.0180  0.0326  0.1877
   11CHL1  H12A  772   6.918   6.677   5.850  0.0092  0.5444  0.8503
   11CHL1  H12B  773   6.744   6.696   5.884  1.2368  1.7958  2.7825
   11CHL1   C11  774   6.858   6.584   6.031  0.0868  0.2847  0.0127
   11CHL1  H11A  775   6.943   6.513   6.035 -1.7541 -2.1582 -1.0782
   11CHL1  H11B  776   6.894   6.678   6.078 -0.1256  0.4997 -0.2466
   11CHL1    C9  777   6.735   6.517   6.106  0.9210 -0.6216  0.4965
   11CHL1    H9  778   6.646   6.584   6.113  0.7768 -0.8590  1.0304
   11CHL1   C10  779   6.760   6.484   6.256 -0.4619 -0.0958  0.6817
   11CHL1   C19  780   6.893   6.401   6.267 -0.4682  0.4060 -0.2954
   11CHL1  H19A  781   6.975   6.476   6.274 -0.5035  0.3316  1.2780
   11CHL1  H19B  782   6.895   6.322   6.345 -1.0604 -0.7872 -1.4577
   11CHL1  H19C  783   6.899   6.341   6.174 -1.5865  0.6320 -0.5310
   11CHL1    C1  784   6.781   6.620   6.335 -0.3595 -0.4394 -0.4534
   11CHL1   H1A  785   6.879   6.668   6.312  0.6204 -0.2269  3.4632
   11CHL1   H1B  786   6.708   6.696   6.301 -0.2550  0.1697  0.6513
   11CHL1    C2  787   6.775   6.608   6.489  1.2336  0.0235 -0.5810
   11CHL1   H2A  788   6.752   6.712   6.520 -1.2158 -0.1617 -1.5132
   11CHL1   H2B  789   6.875   6.579   6.527  0.9713 -0.0906  0.0309
   11CHL1   C20  790   6.817   6.511   5.551  0.2274  0.1587  0.3978
   11CHL1   H20  791   6.888   6.426   5.548 -1.3211 -1.2043  1.3552
   11CHL1   C21  792   6.897   6.641   5.568 -0.3772 -0.4759 -0.1244
   11CHL1  H21A  793   6.922   6.681   5.468 -0.4212 -3.7318 -1.5723
   11CHL1  H21B  794   6.994   6.630   5.621  1.2778  6.4501 -0.6960
   11CHL1  H21C  795   6.848   6.734   5.605  0.3989  0.5852 -1.6484
   11CHL1   C22  796   6.744   6.523   5.416 -0.3536  0.2250  0.5050
   11CHL1  H22A  797   6.675   6.436   5.411 -1.1258  0.7585  1.5145
   11CHL1  H22B  798   6.681   6.614   5.404 -0.1235  0.4841  1.2122
   11CHL1   C23  799   6.831   6.500   5.292  0.7327  0.3553  0.2034
   11CHL1  H23A  800   6.906   6.581   5.289 -0.4991  1.4992 -1.1371
   11CHL1  H23B  801   6.895   6.409   5.301 -0.0682 -0.1979  0.4445
   11CHL1   C24  802   6.777   6.510   5.150  0.5946  0.1515  0.4485
   11CHL1  H24A  803   6.729   6.413   5.126  1.2910  0.0643 -0.6702
   11CHL1  H24B  804   6.708   6.598   5.150  2.1850  1.4527  0.8313
   11CHL1   C25  805   6.877   6.534   5.041  0.2057  0.6298  0.1443
   11CHL1   H25  806   6.918   6.636   5.058  0.2255  0.5844  0.3797
   11CHL1   C26  807   6.977   6.418   5.036  0.1087  0.0546 -0.9161
   11CHL1  H26A  808   7.026   6.403   5.135 -1.0533 -0.5468 -0.4118
   11CHL1  H26B  809   6.918   6.330   5.003 -2.2588  1.3837 -0.4558
   11CHL1  H26C  810   7.057   6.454   4.969  0.1911  0.8231 -0.4199
   11CHL1   C27  811   6.796   6.527   4.908 -0.3097  0.0023 -0.2189
   11CHL1  H27A  812   6.858   6.550   4.818 -0.8851  0.4522 -0.5129
   11CHL1  H27B  813   6.742   6.433   4.887  0.6450 -0.7346  0.5199
   11CHL1  H27C  814   6.717   6.605   4.912  0.2830  0.5737  0.5696
   12CHL1    C3  815   1.095   4.102   6.633  0.0570  0.7267 -0.8860
   12CHL1    H3  816   1.195   4.146   6.654  0.1285 -0.4147  1.3820
   12CHL1    O3  817   1.043   4.055   6.758 -0.3441 -0.0194 -0.6250
   12CHL1   H3'  818   0.950   4.046   6.737 -0.1971 -0.2604 -1.1742
   12CHL1    C4  819   1.013   4.217   6.576  0.2391  0.5932  0.1566
   12CHL1   H4A  820   0.907   4.187   6.592  0.3277 -0.8534 -1.5444
   12CHL1   H4B  821   1.034   4.298   6.649  0.4930  0.4027  0.2979
   12CHL1    C5  822   1.061   4.252   6.441  0.3715  0.1427  1.2324
   12CHL1    C6  823   1.100   4.385   6.413 -0.0719 -0.2536  0.8282
   12CHL1    H6  824   1.098   4.460   6.494  2.7386  1.4048 -0.4970
   12CHL1    C7  825   1.138   4.449   6.282 -0.0619 -0.2761 -0.2507
   12CHL1   H7A  826   1.081   4.544   6.267  1.2984  0.5862 -0.1014
   12CHL1   H7B  827   1.247   4.465   6.290  0.1647 -1.7812 -0.1520
   12CHL1    C8  828   1.116   4.343   6.164  0.6874 -0.3689 -0.2905
   12CHL1    H8  829   1.010   4.351   6.135  1.0038  0.3620 -1.3003
   12CHL1   C14  830   1.200   4.363   6.041 -0.1968  0.3267 -0.0133
   12CHL1   H14  831   1.300   4.338   6.080 -0.4404  0.2512  0.5690
   12CHL1   C15  832   1.212   4.510   6.003 -0.3965 -0.4442  0.0035
   12CHL1  H15A  833   1.113   4.560   6.014  0.2346  0.2538  3.7212
   12CHL1  H15B  834   1.294   4.570   6.048 -1.2007 -0.0003  0.9042
   12CHL1   C16  835   1.247   4.498   5.848  0.2180 -0.0273  0.4071
   12CHL1  H16A  836   1.160   4.530   5.787  0.9922  1.6358  0.1293
   12CHL1  H16B  837   1.339   4.551   5.816  0.5421 -1.5043 -1.1973
   12CHL1   C17  838   1.264   4.350   5.819  0.4325 -0.3096  0.5199
   12CHL1   H17  839   1.370   4.326   5.845  0.7030 -0.3981 -0.5912
   12CHL1   C13  840   1.165   4.283   5.921  0.3960 -0.1987 -0.0652
   12CHL1   C18  841   1.016   4.307   5.882  0.3761  0.5818 -0.7811
   12CHL1  H18A  842   0.993   4.415   5.875  0.5430  0.9407  2.5170
   12CHL1  H18B  843   0.984   4.256   5.789  0.9743 -0.5322 -0.3940
   12CHL1  H18C  844   0.945   4.278   5.962 -0.1267  2.9299 -0.2959
   12CHL1   C12  845   1.187   4.130   5.955 -0.1870  0.3353  0.5253
   12CHL1  H12A  846   1.147   4.065   5.874  0.0274  1.3553 -0.4161
   12CHL1  H12B  847   1.296   4.116   5.973  0.9518  1.1761 -4.2382
   12CHL1   C11  848   1.119   4.094   6.091  0.4499  0.2254  0.2455
   12CHL1  H11A  849   1.010   4.090   6.067  0.5410  1.0510 -0.3636
   12CHL1  H11B  850   1.146   3.994   6.130  1.8961  0.9549  1.2191
   12CHL1    C9  851   1.137   4.196   6.205  0.3329 -0.1955 -0.0379
   12CHL1    H9  852   1.248   4.197   6.220  0.2676  1.2075  0.5537
   12CHL1   C10  853   1.065   4.146   6.329 -0.0558  0.1295 -0.1647
   12CHL1   C19  854   0.923   4.106   6.294  0.5328  0.0555 -0.7153
   12CHL1  H19A  855   0.864   4.087   6.387 -0.3630  2.0737 -0.8189
   12CHL1  H19B  856   0.875   4.192   6.243 -3.5855 -0.5602  1.6234
   12CHL1  H19C  857   0.914   4.016   6.231  3.6736 -2.1433  1.6482
   12CHL1    C1  858   1.140   4.028   6.390 -0.2585 -0.6652  0.1103
   12CHL1   H1A  859   1.134   3.940   6.323  1.4829  0.0306 -1.0234
   12CHL1   H1B  860   1.246   4.060   6.394 -0.6345  0.5436  0.8399
   12CHL1    C2  861   1.106   3.980   6.533  0.3582 -0.5134 -0.2811
   12CHL1   H2A  862   1.166   3.889   6.557 -1.0677 -1.5812 -0.6481
   12CHL1   H2B  863   1.008   3.929   6.531 -0.0657  0.0849  2.0718
   12CHL1   C20  864   1.238   4.336   5.662  0.4660 -0.4173  0.0671
   12CHL1   H20  865   1.129   4.350   5.642  0.1947 -1.8441  0.4603
   12CHL1   C21  866   1.255   4.190   5.607  0.0849 -0.0452  0.0175
   12CHL1  H21A  867   1.181   4.179   5.525  2.1498  2.4356 -2.3703
   12CHL1  H21B  868   1.243   4.113   5.686 -0.2929 -1.5698 -1.4851
   12CHL1  H21C  869   1.354   4.181   5.558 -0.1726 -0.6900 -0.3878
   12CHL1   C22  870   1.318   4.436   5.576 -0.7529 -0.0206 -0.7139
   12CHL1  H22A  871   1.276   4.538   5.592  2.4872  1.2967  0.1508
   12CHL1  H22B  872   1.427   4.427   5.591 -0.5301  0.8935 -1.6594
   12CHL1   C23  873   1.291   4.424   5.425  0.5074  0.2581  0.4411
   12CHL1  H23A  874   1.331   4.326   5.391  1.2414  1.0472 -1.0380
   12CHL1  H23B  875   1.184   4.396   5.411  0.6872  0.7106 -2.3048
   12CHL1   C24  876   1.333   4.528   5.328  0.2112 -0.4311 -0.6859
   12CHL1  H24A  877   1.253   4.605   5.323 -0.4707 -1.1435 -0.9316
   12CHL1  H24B  878   1.424   4.585   5.356 -0.9285  1.1176  0.0705
   12CHL1   C25  879   1.362   4.472   5.186 -0.0231  1.0618  0.2323
   12CHL1   H25  880   1.449   4.404   5.192  0.5030  1.7474  0.4693
   12CHL1   C26  881   1.238   4.407   5.120  0.3594 -0.4258  0.7703
   12CHL1  H26A  882   1.278   4.355   5.030  0.3755  2.6947 -1.1452
   12CHL1  H26B  883   1.195   4.319   5.173  1.5192 -2.1515 -1.0392
   12CHL1  H26C  884   1.157   4.474   5.085  0.5945 -0.9024 -0.7482
   12CHL1   C27  885   1.411   4.578   5.095 -0.2599  0.3012  0.4773
   12CHL1  H27A  886   1.428   4.543   4.991 -2.8452  2.7436 -0.8975
   12CHL1  H27B  887   1.329   4.653   5.100 -0.7710 -0.2830  0.8350
   12CHL1  H27C  888   1.503   4.625   5.137 -1.1513  1.3790  1.2828
   13CHL1    C3  889   0.041   5.375   6.527  0.4913 -0.6032 -0.2962
   13CHL1    H3  890   0.040   5.486   6.523 -1.3767 -0.6291 -2.7257
   13CHL1    O3  891   0.029   5.344   6.672 -0.1496 -0.1945  0.5777
   13CHL1   H3'  892   0.105   5.395   6.701 -1.6671  1.4724  1.8291
   13CHL1    C4  893  -0.080   5.320   6.449 -0.3826 -0.0517 -0.2259
   13CHL1   H4A  894  -0.093   5.210   6.462 -0.4591 -0.3130 -2.2156
   13CHL1   H4B  895  -0.172   5.363   6.492  0.7691  2.9107 -0.4943
   13CHL1    C5  896  -0.072   5.345   6.299  0.5571  0.3603  0.2357
   13CHL1    C6  897  -0.176   5.403   6.232  0.1008 -0.1471 -0.1881
   13CHL1    H6  898  -0.267   5.432   6.286 -0.1887 -0.2732 -0.6039
   13CHL1    C7  899  -0.179   5.437   6.085  0.0066  0.0768  0.6791
   13CHL1   H7A  900  -0.263   5.385   6.034  0.3438  0.6937 -0.5540
   13CHL1   H7B  901  -0.171   5.547   6.072 -0.3962  0.1690  1.1655
   13CHL1    C8  902  -0.052   5.373   6.016 -0.3584  0.0041 -0.0091
   13CHL1    H8  903  -0.075   5.267   5.989  0.1865  0.5052 -2.7140
   13CHL1   C14  904  -0.028   5.440   5.886  1.1524 -1.0565  0.3011
   13CHL1   H14  905   0.001   5.543   5.914 -0.4206 -1.1471  2.5171
   13CHL1   C15  906  -0.148   5.457   5.794  0.1185 -0.2862 -0.4351
   13CHL1  H15A  907  -0.201   5.360   5.793  0.2873 -0.3984  0.5862
   13CHL1  H15B  908  -0.221   5.530   5.836  1.7599 -0.1670  2.5112
   13CHL1   C16  909  -0.092   5.482   5.656 -0.6895  0.2764  0.1492
   13CHL1  H16A  910  -0.133   5.403   5.590  0.9424 -0.0220 -0.5458
   13CHL1  H16B  911  -0.129   5.578   5.615 -2.2159 -0.3787 -0.0889
   13CHL1   C17  912   0.061   5.472   5.667  0.0343  0.0126 -0.0687
   13CHL1   H17  913   0.107   5.568   5.702 -0.2907  0.2369 -0.2549
   13CHL1   C13  914   0.085   5.389   5.793 -0.4177  0.3958 -0.7393
   13CHL1   C18  915   0.068   5.239   5.752  0.0079  0.0222 -0.7995
   13CHL1  H18A  916  -0.016   5.222   5.682  0.1473  2.3494 -1.6141
   13CHL1  H18B  917   0.155   5.196   5.699 -0.6265 -2.4667  0.0475
   13CHL1  H18C  918   0.055   5.172   5.840  0.0352  1.3357  0.2274
   13CHL1   C12  919   0.215   5.407   5.870 -0.0036 -0.1567  0.5884
   13CHL1  H12A  920   0.296   5.359   5.811  0.1302 -3.3214  3.0899
   13CHL1  H12B  921   0.234   5.512   5.902 -0.9356  0.1283  0.2310
   13CHL1   C11  922   0.207   5.339   6.008  0.4543  0.1842  0.3884
   13CHL1  H11A  923   0.199   5.230   5.988 -2.0395  0.3979 -0.1057
   13CHL1  H11B  924   0.306   5.364   6.052  0.5239  0.3607  0.1290
   13CHL1    C9  925   0.078   5.384   6.091  0.3943 -0.4377 -0.3651
   13CHL1    H9  926   0.097   5.494   6.095  2.0625 -0.6727 -0.9223
   13CHL1   C10  927   0.073   5.320   6.234  0.7219 -0.5916  0.5081
   13CHL1   C19  928   0.084   5.166   6.223  0.2143 -0.2590  0.0932
   13CHL1  H19A  929   0.003   5.137   6.153 -2.3350  2.2172  1.8242
   13CHL1  H19B  930   0.180   5.148   6.170 -1.2042 -1.2965 -2.2804
   13CHL1  H19C  931   0.060   5.108   6.315 -2.9123  1.4113  0.4751
   13CHL1    C1  932   0.183   5.375   6.324  0.3066 -0.7190 -0.0603
   13CHL1   H1A  933   0.284   5.353   6.283  0.0227  0.0803 -1.2466
   13CHL1   H1B  934   0.179   5.486   6.318 -0.3561 -0.5941  2.0070
   13CHL1    C2  935   0.175   5.331   6.471  0.0428  0.2705 -0.5388
   13CHL1   H2A  936   0.261   5.371   6.528 -1.2360  1.4701  0.6434
   13CHL1   H2B  937   0.192   5.221   6.474  1.7495  0.5265  0.5658
   13CHL1   C20  938   0.120   5.438   5.528 -0.0862 -0.5665  0.4621
   13CHL1   H20  939   0.078   5.342   5.490 -1.7715 -1.0732  3.3069
   13CHL1   C21  940   0.272   5.426   5.542 -0.4207  0.0683  0.3539
   13CHL1  H21A  941   0.314   5.406   5.441 -1.6957 -0.6533 -0.0534
   13CHL1  H21B  942   0.283   5.339   5.609  0.8585  0.6724  0.9747
   13CHL1  H21C  943   0.312   5.519   5.588  0.1892  0.3569 -0.7140
   13CHL1   C22  944   0.086   5.544   5.412 -0.1878  1.0323 -0.4445
   13CHL1  H22A  945  -0.019   5.575   5.431  0.0338  0.7979  1.3863
   13CHL1  H22B  946   0.145   5.636   5.436 -1.1018  0.9102  2.7806
   13CHL1   C23  947   0.104   5.488   5.270  0.5335 -0.9059  0.6816
   13CHL1  H23A  948   0.210   5.456   5.263  0.3180 -1.8946  1.5881
   13CHL1  H23B  949   0.042   5.398   5.249 -2.1273  0.9454  0.2060
   13CHL1   C24  950   0.079   5.593   5.162 -0.3948  0.4588 -0.3129
   13CHL1  H24A  951  -0.026   5.627   5.178 -0.1259  0.2078  2.6793
   13CHL1  H24B  952   0.152   5.673   5.187 -1.2426  0.8045  1.2006
   13CHL1   C25  953   0.100   5.530   5.026  0.0075 -0.2237 -0.7290
   13CHL1   H25  954   0.191   5.467   5.033 -0.6256 -1.0343  0.5677
   13CHL1   C26  955  -0.021   5.448   4.988  0.0840 -0.4632 -0.1861
   13CHL1  H26A  956  -0.042   5.368   5.062  3.2302 -1.2166  0.0175
   13CHL1  H26B  957  -0.106   5.520   4.985 -1.1633 -1.8077  1.2459
   13CHL1  H26C  958  -0.010   5.409   4.885 -2.7891 -1.3467 -0.2542
   13CHL1   C27  959   0.117   5.640   4.916  0.4437  0.4424 -0.5947
   13CHL1  H27A  960   0.024   5.696   4.894  0.1918  1.1068  1.8591
   13CHL1  H27B  961   0.191   5.713   4.956  0.4300  0.2780 -0.2601
   13CHL1  H27C  962   0.148   5.590   4.822  0.1317 -0.0554 -0.4403
   14CHL1    C3  963   5.928   0.150   6.456 -0.5822  0.3307  0.0831
   14CHL1    H3  964   5.991   0.240   6.448  1.5794 -1.1573 -0.5205
   14CHL1    O3  965   5.895   0.125   6.591  0.4049  0.2453  0.1195
   14CHL1   H3'  966   5.968   0.160   6.643 -0.8012 -0.9165  2.7997
   14CHL1    C4  967   5.797   0.191   6.390 -0.0637 -0.4460  0.7825
   14CHL1   H4A  968   5.717   0.113   6.393  0.7600 -1.4515 -1.2415
   14CHL1   H4B  969   5.757   0.279   6.444  2.5876  0.7310  0.9576
   14CHL1    C5  970   5.815   0.217   6.241  0.2776 -0.1862  0.3848
   14CHL1    C6  971   5.782   0.333   6.183  0.8459  0.1182 -0.5610
   14CHL1    H6  972   5.743   0.408   6.253 -0.3310 -0.2680 -0.7880
   14CHL1    C7  973   5.788   0.366   6.034 -0.0954 -0.0643  0.8066
   14CHL1   H7A  974   5.689   0.394   5.993  0.3821  0.5509  0.0539
   14CHL1   H7B  975   5.853   0.455   6.019 -3.2062  1.9214 -2.0780
   14CHL1    C8  976   5.842   0.253   5.944 -0.4286  0.9604  0.9149
   14CHL1    H8  977   5.757   0.189   5.913  1.6688 -1.8372  0.5483
   14CHL1   C14  978   5.926   0.312   5.822  0.0583 -0.6143  0.0035
   14CHL1   H14  979   6.001   0.377   5.871  1.3740  0.1478 -2.8106
   14CHL1   C15  980   5.842   0.407   5.727  0.1603  0.4510 -0.0906
   14CHL1  H15A  981   5.737   0.373   5.713  0.0097 -0.0302  1.9244
   14CHL1  H15B  982   5.821   0.507   5.770  0.1878 -0.9136  3.3870
   14CHL1   C16  983   5.924   0.416   5.597  0.5635 -0.0780 -0.0409
   14CHL1  H16A  984   5.872   0.360   5.518  1.8277 -2.2732  0.5968
   14CHL1  H16B  985   5.945   0.523   5.574  1.0769 -0.6891 -2.7240
   14CHL1   C17  986   6.052   0.334   5.626 -0.0946 -0.2619  0.3951
   14CHL1   H17  987   6.119   0.403   5.681  1.3894 -2.1196  1.0165
   14CHL1   C13  988   6.005   0.221   5.729  0.2917 -0.4565 -0.5031
   14CHL1   C18  989   5.903   0.124   5.661 -0.2661  0.1271  0.8923
   14CHL1  H18A  990   5.865   0.054   5.738 -1.3498 -0.5615 -0.2380
   14CHL1  H18B  991   5.824   0.165   5.595  2.5304  2.1898 -1.4390
   14CHL1  H18C  992   5.960   0.062   5.589 -1.2639  0.4772 -0.2298
   14CHL1   C12  993   6.109   0.149   5.825  0.6588  0.0828 -0.3002
   14CHL1  H12A  994   6.159   0.074   5.760  1.0199  1.1970 -1.3510
   14CHL1  H12B  995   6.187   0.223   5.852  0.2019  0.7697 -0.8006
   14CHL1   C11  996   6.032   0.079   5.935 -0.2497  0.1501 -0.7269
   14CHL1  H11A  997   5.966  -0.009   5.918  1.0539 -1.3720  1.5347
   14CHL1  H11B  998   6.117   0.046   5.999 -1.2960 -0.8683  0.1861
   14CHL1    C9  999   5.949   0.176   6.025  0.8809  0.2084 -0.1776
   14CHL1    H9 1000   6.016   0.258   6.059  1.0831 -1.0318  2.7898
   14CHL1   C10 1001   5.896   0.113   6.155 -0.8798 -0.2192  0.2277
   14CHL1   C19 1002   5.815  -0.013   6.116  0.5514 -0.2295 -0.5024
   14CHL1  H19A 1003   5.727   0.017   6.055 -1.0940 -1.5451  1.0947
   14CHL1  H19B 1004   5.870  -0.096   6.067  1.1684 -0.1371  0.0251
   14CHL1  H19C 1005   5.776  -0.059   6.210 -0.3990 -0.4585 -0.9914
   14CHL1    C1 1006   6.025   0.086   6.241  0.0017  0.8193 -0.1790
   14CHL1   H1A 1007   6.081  -0.001   6.199  0.2394  0.5547  0.6768
   14CHL1   H1B 1008   6.093   0.173   6.235 -0.2082  1.0484  0.7258
   14CHL1    C2 1009   5.996   0.035   6.384  0.4545  0.3949  0.8785
   14CHL1   H2A 1010   6.091   0.011   6.438  1.3034 -0.4950 -0.9106
   14CHL1   H2B 1011   5.941  -0.061   6.376  2.1567 -0.5067 -0.8684
   14CHL1   C20 1012   6.133   0.294   5.499  0.2241  0.2319 -0.2589
   14CHL1   H20 1013   6.085   0.208   5.447 -0.5791 -0.0076  0.8333
   14CHL1   C21 1014   6.270   0.245   5.549  0.2398 -0.3452  0.2385
   14CHL1  H21A 1015   6.312   0.329   5.608  1.7540 -1.7627  1.2765
   14CHL1  H21B 1016   6.337   0.220   5.464  1.3512  0.4200  0.8687
   14CHL1  H21C 1017   6.260   0.153   5.611  0.7954  0.4151  1.5077
   14CHL1   C22 1018   6.150   0.418   5.414  0.4824  0.3114 -0.4441
   14CHL1  H22A 1019   6.049   0.449   5.379  0.6268  2.0372  0.5724
   14CHL1  H22B 1020   6.183   0.502   5.478 -0.4471  1.9029 -1.9594
   14CHL1   C23 1021   6.252   0.414   5.302  0.2205  0.0392 -0.5786
   14CHL1  H23A 1022   6.352   0.398   5.346 -0.0888 -3.7053 -0.8738
   14CHL1  H23B 1023   6.219   0.337   5.228 -1.3281  0.2823 -0.1843
   14CHL1   C24 1024   6.261   0.533   5.213 -0.0435 -0.0704  0.1690
   14CHL1  H24A 1025   6.171   0.530   5.149 -0.7568  0.7402  1.1020
   14CHL1  H24B 1026   6.256   0.618   5.285  1.4947  0.0146  0.2081
   14CHL1   C25 1027   6.386   0.556   5.126  0.2508 -0.2299 -0.1764
   14CHL1   H25 1028   6.468   0.564   5.200  4.0003 -0.6428 -3.9117
   14CHL1   C26 1029   6.423   0.434   5.047 -0.2892  0.4409  0.5987
   14CHL1  H26A 1030   6.526   0.423   5.008 -1.0634 -0.4075 -1.3344
   14CHL1  H26B 1031   6.407   0.339   5.104  0.9586 -0.5534 -0.6371
   14CHL1  H26C 1032   6.361   0.426   4.955  0.4841 -2.3691  0.2056
   14CHL1   C27 1033   6.379   0.687   5.042  0.3813  0.0603  0.3074
   14CHL1  H27A 1034   6.379   0.779   5.105 -0.9578 -1.5867  2.9413
   14CHL1  H27B 1035   6.466   0.700   4.974 -0.8808 -0.5852 -1.4920
   14CHL1  H27C 1036   6.282   0.678   4.988 -0.2960 -0.2617  1.5330
   15CHL1    C3 1037   0.569   2.002   6.447 -0.3720 -0.3844 -0.2684
   15CHL1    H3 1038   0.546   1.893   6.454  0.7560 -0.6514 -0.5522
   15CHL1    O3 1039   0.537   2.043   6.581 -0.2949  0.0204  0.7384
   15CHL1   H3' 1040   0.492   2.128   6.576  0.1698  0.2204 -0.4650
   15CHL1    C4 1041   0.721   2.004   6.418  0.7671  0.3242 -0.3421
   15CHL1   H4A 1042   0.740   2.112   6.439 -1.6561  0.9473 -0.9118
   15CHL1   H4B 1043   0.773   1.948   6.497  3.2936  0.3081 -1.9237
   15CHL1    C5 1044   0.751   1.966   6.277  0.4644  0.3841 -0.7331
   15CHL1    C6 1045   0.839   1.869   6.254 -0.3217  0.3696  0.4108
   15CHL1    H6 1046   0.893   1.812   6.331 -0.5591  0.1754  0.4341
   15CHL1    C7 1047   0.879   1.827   6.120  0.1218 -0.3911  0.7971
   15CHL1   H7A 1048   0.988   1.806   6.109  0.2536  1.2211 -1.8718
   15CHL1   H7B 1049   0.833   1.727   6.102  0.7362 -0.5585  0.0983
   15CHL1    C8 1050   0.836   1.918   6.003 -0.2243 -0.6006  0.3046
   15CHL1    H8 1051   0.900   2.008   6.006 -1.3094  0.2611 -1.1328
   15CHL1   C14 1052   0.847   1.853   5.866 -0.0333 -0.2596  0.5552
   15CHL1   H14 1053   0.773   1.770   5.863 -0.7305  0.3770 -1.3124
   15CHL1   C15 1054   0.990   1.794   5.832  0.7953  0.3157  0.1051
   15CHL1  H15A 1055   1.080   1.850   5.867  0.2275  0.5995  1.1446
   15CHL1  H15B 1056   1.002   1.689   5.867  1.6491 -0.1566 -1.4940
   15CHL1   C16 1057   0.994   1.791   5.676  0.0736 -0.0313 -0.9656
   15CHL1  H16A 1058   1.078   1.856   5.642 -0.4903  1.2089 -0.0824
   15CHL1  H16B 1059   1.002   1.690   5.630 -0.0700 -1.9160  2.8299
   15CHL1   C17 1060   0.867   1.858   5.629 -0.5244 -0.2872  0.0226
   15CHL1   H17 1061   0.787   1.781   5.628  1.2927 -2.2480 -0.1804
   15CHL1   C13 1062   0.816   1.941   5.747 -0.1202  0.0757 -0.0529
   15CHL1   C18 1063   0.908   2.062   5.749  0.0799 -0.7491 -0.6131
   15CHL1  H18A 1064   0.880   2.120   5.658 -0.1084 -1.8481 -1.2645
   15CHL1  H18B 1065   0.895   2.132   5.835 -1.9271 -1.5393 -0.2159
   15CHL1  H18C 1066   1.016   2.040   5.747  0.4899  0.9150  0.8121
   15CHL1   C12 1067   0.668   1.983   5.762  0.0601 -0.0071 -0.5280
   15CHL1  H12A 1068   0.626   2.054   5.687 -0.1551  0.5299  0.0910
   15CHL1  H12B 1069   0.599   1.898   5.743 -1.1843  1.2621 -2.0401
   15CHL1   C11 1070   0.641   2.052   5.897  0.4091  0.3601  0.7476
   15CHL1  H11A 1071   0.689   2.153   5.899 -0.9398  1.0078  1.5009
   15CHL1  H11B 1072   0.534   2.052   5.926  0.6521 -2.7949  2.0536
   15CHL1    C9 1073   0.691   1.963   6.020  0.3010 -0.7569 -0.2020
   15CHL1    H9 1074   0.625   1.874   6.013 -0.9927  0.2391 -1.1293
   15CHL1   C10 1075   0.668   2.033   6.160 -0.6539 -0.2400 -0.2333
   15CHL1   C19 1076   0.715   2.184   6.157  0.1874  0.2254 -0.2646
   15CHL1  H19A 1077   0.687   2.234   6.252  0.0312 -0.2096 -0.0787
   15CHL1  H19B 1078   0.825   2.190   6.148  0.1063  1.6376 -0.5800
   15CHL1  H19C 1079   0.670   2.238   6.071  1.6131  0.6502 -0.7673
   15CHL1    C1 1080   0.518   2.039   6.198 -0.4426  0.2513  0.1721
   15CHL1   H1A 1081   0.461   2.100   6.124 -1.7764 -0.8627  0.2389
   15CHL1   H1B 1082   0.482   1.934   6.192  0.6117 -0.2353  1.8434
   15CHL1    C2 1083   0.483   2.082   6.343 -0.5133  0.2149 -0.6292
   15CHL1   H2A 1084   0.374   2.066   6.352 -0.2554 -1.1763  0.4180
   15CHL1   H2B 1085   0.499   2.191   6.352  0.4381 -0.0733  1.9959
   15CHL1   C20 1086   0.884   1.923   5.487  0.1234  0.0752 -0.5539
   15CHL1   H20 1087   0.960   2.002   5.509  1.9351 -1.7120 -0.1311
   15CHL1   C21 1088   0.749   1.967   5.423  1.1923 -0.2534  0.0952
   15CHL1  H21A 1089   0.706   2.054   5.478 -1.7317 -1.7195  0.3430
   15CHL1  H21B 1090   0.676   1.884   5.430  0.7978  0.1396  0.8473
   15CHL1  H21C 1091   0.756   2.009   5.321  1.3006 -1.5609 -0.4538
   15CHL1   C22 1092   0.945   1.815   5.393  0.2398 -0.5016 -0.0943
   15CHL1  H22A 1093   1.039   1.772   5.432  0.4919  0.8373  0.8444
   15CHL1  H22B 1094   0.874   1.739   5.355 -1.7534  0.3553  1.7340
   15CHL1   C23 1095   1.007   1.874   5.255  0.3962 -0.0211 -0.2172
   15CHL1  H23A 1096   0.937   1.943   5.204  0.0222 -0.6616 -0.5811
   15CHL1  H23B 1097   1.099   1.930   5.284 -1.0587  0.9987  2.8486
   15CHL1   C24 1098   1.050   1.764   5.164 -0.1067  0.2254 -0.3935
   15CHL1  H24A 1099   1.129   1.712   5.222 -1.8629  0.2113  2.1381
   15CHL1  H24B 1100   0.973   1.685   5.157  0.1718 -0.3598  2.2825
   15CHL1   C25 1101   1.102   1.810   5.024 -0.9339 -0.1679  0.3620
   15CHL1   H25 1102   1.190   1.875   5.044  0.3414 -1.9315  0.6654
   15CHL1   C26 1103   1.149   1.687   4.942 -0.2683 -0.1932 -0.4255
   15CHL1  H26A 1104   1.221   1.628   5.002 -1.0305 -0.8113 -0.1078
   15CHL1  H26B 1105   1.070   1.619   4.904  0.2105 -1.1195  0.1899
   15CHL1  H26C 1106   1.196   1.733   4.852 -2.1005  0.2483 -1.2030
   15CHL1   C27 1107   0.991   1.876   4.944  0.2612 -0.3909  0.4246
   15CHL1  H27A 1108   0.895   1.822   4.934  0.2257 -0.0644 -1.5146
   15CHL1  H27B 1109   0.974   1.980   4.981  1.0053 -0.0016 -0.2801
   15CHL1  H27C 1110   1.048   1.875   4.848 -1.4650 -1.1461 -0.6451
   16CHL1    C3 1111   4.244   0.060   6.526  0.6627  0.3414 -0.3525
   16CHL1    H3 1112   4.254  -0.050   6.516  1.5962  0.4495 -0.6984
   16CHL1    O3 1113   4.256   0.095   6.659  0.5878 -0.1488 -0.1127
   16CHL1   H3' 1114   4.311   0.019   6.677 -0.6480 -1.6870 -2.4535
   16CHL1    C4 1115   4.355   0.122   6.446  0.7324 -0.4652  0.8085
   16CHL1   H4A 1116   4.347   0.232   6.453  0.5200 -0.3565 -0.7680
   16CHL1   H4B 1117   4.452   0.097   6.493  1.9698 -1.8654 -2.2369
   16CHL1    C5 1118   4.341   0.073   6.301 -0.6608 -0.1187 -0.2663
   16CHL1    C6 1119   4.442   0.011   6.240  0.8029  0.0999 -0.9533
   16CHL1    H6 1120   4.536  -0.009   6.293 -0.0834 -1.3631  0.1041
   16CHL1    C7 1121   4.441  -0.031   6.098  0.3676  0.5695 -0.2872
   16CHL1   H7A 1122   4.538   0.002   6.054  1.9637 -1.0266  1.8328
   16CHL1   H7B 1123   4.437  -0.142   6.085 -2.7547  0.6402 -0.7260
   16CHL1    C8 1124   4.323   0.028   6.018 -0.8755  0.0979  0.0253
   16CHL1    H8 1125   4.347   0.135   6.002  1.3501  0.3499  3.8606
   16CHL1   C14 1126   4.312  -0.048   5.884  1.1660 -0.2962 -0.4705
   16CHL1   H14 1127   4.291  -0.151   5.919 -0.0451  0.5963  1.5990
   16CHL1   C15 1128   4.432  -0.068   5.794  0.1271  0.3295 -0.0365
   16CHL1  H15A 1129   4.477   0.032   5.779 -0.3507  0.3565 -1.3468
   16CHL1  H15B 1130   4.502  -0.139   5.844 -0.0991  0.4823  0.5091
   16CHL1   C16 1131   4.384  -0.110   5.658  0.0144 -0.3747 -1.1301
   16CHL1  H16A 1132   4.435  -0.059   5.574 -0.1357  1.4596 -0.1645
   16CHL1  H16B 1133   4.387  -0.220   5.645 -2.1278 -0.8316  1.3684
   16CHL1   C17 1134   4.222  -0.098   5.671 -0.3200 -0.6880  0.2793
   16CHL1   H17 1135   4.180  -0.197   5.700 -2.5742  0.2222  0.3076
   16CHL1   C13 1136   4.194  -0.013   5.792 -0.6367  0.3653 -0.3211
   16CHL1   C18 1137   4.202   0.132   5.758  0.0768 -0.5418  0.4453
   16CHL1  H18A 1138   4.297   0.154   5.706  0.3568  0.9022  1.4976
   16CHL1  H18B 1139   4.111   0.166   5.703  0.8335  1.2618  0.2209
   16CHL1  H18C 1140   4.202   0.193   5.851  1.0972  0.1766 -0.0100
   16CHL1   C12 1141   4.065  -0.034   5.875  0.4627 -0.6943  0.3121
   16CHL1  H12A 1142   3.978   0.006   5.819  1.9649 -0.0517 -1.6547
   16CHL1  H12B 1143   4.052  -0.142   5.897 -0.3429 -0.4524  1.1104
   16CHL1   C11 1144   4.064   0.043   6.009 -0.5995  0.0066  0.0836
   16CHL1  H11A 1145   4.066   0.153   5.996  2.4744  0.6261  3.8815
   16CHL1  H11B 1146   3.967   0.032   6.061 -1.6092  2.1041 -1.1892
   16CHL1    C9 1147   4.197   0.018   6.095 -0.2411 -0.3084 -0.7515
   16CHL1    H9 1148   4.192  -0.088   6.125 -0.0804  0.0560  0.6337
   16CHL1   C10 1149   4.204   0.094   6.230  0.7678  0.0407 -0.4764
   16CHL1   C19 1150   4.189   0.248   6.215 -0.1038 -0.1873  0.2904
   16CHL1  H19A 1151   4.265   0.291   6.146  0.7251 -0.4819  1.0039
   16CHL1  H19B 1152   4.093   0.284   6.174 -0.0878  2.9147  2.6551
   16CHL1  H19C 1153   4.202   0.299   6.312 -0.1336 -0.8974  0.6728
   16CHL1    C1 1154   4.092   0.046   6.323  0.3555  0.4390 -0.1025
   16CHL1   H1A 1155   3.997   0.084   6.280  1.2408 -0.0682 -2.6670
   16CHL1   H1B 1156   4.086  -0.065   6.319 -3.9136  0.5509 -3.1031
   16CHL1    C2 1157   4.108   0.092   6.471  0.6301 -0.0773 -0.2817
   16CHL1   H2A 1158   4.028   0.056   6.539  0.2263 -1.1501 -1.2810
   16CHL1   H2B 1159   4.094   0.202   6.482 -2.2230 -0.4426  0.5448
   16CHL1   C20 1160   4.148  -0.058   5.535 -0.1199 -0.0475  0.3582
   16CHL1   H20 1161   4.177   0.044   5.500  1.8655 -1.1709 -1.5529
   16CHL1   C21 1162   3.993  -0.069   5.553  0.1351  0.8139  0.1880
   16CHL1  H21A 1163   3.945   0.003   5.623  0.3966 -1.0278  2.3671
   16CHL1  H21B 1164   3.973  -0.175   5.581 -2.4696  0.4302 -2.5885
   16CHL1  H21C 1165   3.942  -0.061   5.455  1.2240  1.5867 -0.3298
   16CHL1   C22 1166   4.191  -0.149   5.414 -0.2256  0.2994 -0.1798
   16CHL1  H22A 1167   4.286  -0.204   5.433 -0.2688  0.1303 -0.4487
   16CHL1  H22B 1168   4.112  -0.226   5.401 -0.1499  0.0608  0.7422
   16CHL1   C23 1169   4.195  -0.071   5.281 -0.0354 -0.2806 -0.2086
   16CHL1  H23A 1170   4.103  -0.007   5.283  1.7955  2.5372 -0.1527
   16CHL1  H23B 1171   4.284  -0.007   5.299  1.3512 -2.6872  2.0191
   16CHL1   C24 1172   4.203  -0.162   5.161 -0.1892 -0.3132  0.7180
   16CHL1  H24A 1173   4.277  -0.241   5.186  1.1406  0.7633  0.3172
   16CHL1  H24B 1174   4.103  -0.210   5.162 -0.2837 -0.1187  0.6084
   16CHL1   C25 1175   4.242  -0.096   5.022 -0.0248 -0.2031  0.2797
   16CHL1   H25 1176   4.286   0.003   5.047 -1.1279  0.3822 -0.0236
   16CHL1   C26 1177   4.347  -0.188   4.947 -0.2570 -0.0798  0.2014
   16CHL1  H26A 1178   4.295  -0.284   4.928 -0.9817  0.1675  0.8802
   16CHL1  H26B 1179   4.383  -0.139   4.853  2.0990 -0.7524  0.6987
   16CHL1  H26C 1180   4.427  -0.205   5.021 -0.1527  0.8990  0.3343
   16CHL1   C27 1181   4.131  -0.087   4.920 -0.4326  0.3889 -0.0529
   16CHL1  H27A 1182   4.100  -0.187   4.883 -1.8702  0.6075  0.4984
   16CHL1  H27B 1183   4.035  -0.045   4.957  0.3161  1.4200  0.7882
   16CHL1  H27C 1184   4.164  -0.025   4.834  0.8502 -0.5504 -0.2644
   17CHL1    C3 1185   0.550   3.536   6.776 -0.5236 -0.1935 -0.4311
   17CHL1    H3 1186   0.647   3.589   6.779 -0.2804 -0.6194 -0.6724
   17CHL1    O3 1187   0.531   3.479   6.898  0.2875 -0.1354  0.0672
   17CHL1   H3' 1188   0.489   3.395   6.879 -1.3121  0.2475  1.5702
   17CHL1    C4 1189   0.438   3.636   6.740  0.4704  0.1703 -0.3541
   17CHL1   H4A 1190   0.338   3.588   6.748  0.7603 -0.0585  3.9368
   17CHL1   H4B 1191   0.427   3.702   6.828 -4.1718  1.2593 -1.4750
   17CHL1    C5 1192   0.458   3.706   6.608 -0.5840 -0.0848  0.1774
   17CHL1    C6 1193   0.479   3.843   6.606  0.0989  0.0565 -0.3447
   17CHL1    H6 1194   0.485   3.893   6.703  0.4724  1.3541 -1.0170
   17CHL1    C7 1195   0.513   3.924   6.490 -0.0380  0.1355  0.8266
   17CHL1   H7A 1196   0.461   4.021   6.476  1.6243  0.9648  0.0751
   17CHL1   H7B 1197   0.621   3.948   6.492 -0.1517  0.8925 -0.6741
   17CHL1    C8 1198   0.494   3.844   6.356  0.4079  0.0871 -0.2340
   17CHL1    H8 1199   0.388   3.827   6.331  0.0628  0.7658  0.6928
   17CHL1   C14 1200   0.571   3.906   6.240  0.1693 -0.0400  0.3050
   17CHL1   H14 1201   0.671   3.911   6.286 -0.6601 -0.0869  2.1836
   17CHL1   C15 1202   0.546   4.061   6.212  1.0377 -0.0286  0.2017
   17CHL1  H15A 1203   0.435   4.064   6.213  1.0225  1.0940  2.3846
   17CHL1  H15B 1204   0.593   4.115   6.297  1.2466  0.2271 -0.0743
   17CHL1   C16 1205   0.621   4.081   6.077  0.5876 -1.1883 -0.3155
   17CHL1  H16A 1206   0.557   4.134   6.003  2.2939 -1.9702 -2.4243
   17CHL1  H16B 1207   0.709   4.146   6.095 -0.2139  0.1175 -0.8809
   17CHL1   C17 1208   0.654   3.942   6.029  0.1132 -0.9059  0.0389
   17CHL1   H17 1209   0.759   3.929   6.062 -0.4400 -2.2389  1.4306
   17CHL1   C13 1210   0.573   3.836   6.111 -0.3461  0.1739 -0.9396
   17CHL1   C18 1211   0.438   3.828   6.046 -0.0108 -0.5667  0.2897
   17CHL1  H18A 1212   0.365   3.796   6.123 -0.6168  0.8012  0.3219
   17CHL1  H18B 1213   0.403   3.926   6.007 -0.9588 -1.2049 -0.5324
   17CHL1  H18C 1214   0.416   3.753   5.967 -1.6827  0.0845  0.0896
   17CHL1   C12 1215   0.626   3.695   6.135 -0.1463  0.2044  0.0246
   17CHL1  H12A 1216   0.618   3.638   6.039 -1.0050 -1.5723  1.0911
   17CHL1  H12B 1217   0.736   3.692   6.151  0.0806  1.7903 -1.0835
   17CHL1   C11 1218   0.558   3.628   6.248 -0.0744  0.1344  0.9668
   17CHL1  H11A 1219   0.453   3.610   6.216  0.6216 -1.3585 -0.6150
   17CHL1  H11B 1220   0.602   3.528   6.264  1.3307  0.4339 -0.7356
   17CHL1    C9 1221   0.550   3.703   6.377 -0.1231 -0.1250 -0.3295
   17CHL1    H9 1222   0.653   3.715   6.415 -1.3302  2.9771  2.4530
   17CHL1   C10 1223   0.482   3.606   6.488 -0.6292 -1.0233 -0.1591
   17CHL1   C19 1224   0.332   3.572   6.459 -1.2283 -0.2038 -0.4016
   17CHL1  H19A 1225   0.317   3.502   6.374  0.2201 -1.5171  0.3704
   17CHL1  H19B 1226   0.275   3.539   6.548 -0.9463  0.3359 -0.0125
   17CHL1  H19C 1227   0.281   3.662   6.417 -0.3484 -0.1783 -1.4539
   17CHL1    C1 1228   0.576   3.494   6.529  0.0064 -0.3255 -0.4493
   17CHL1   H1A 1229   0.571   3.415   6.450  2.1435  0.2449 -1.2202
   17CHL1   H1B 1230   0.680   3.527   6.546 -1.0839  1.5112  3.9436
   17CHL1    C2 1231   0.552   3.431   6.665  0.2864 -0.2313 -0.1680
   17CHL1   H2A 1232   0.621   3.346   6.685 -0.2830 -0.3258  1.5275
   17CHL1   H2B 1233   0.449   3.389   6.655 -0.5833  1.4752  1.0228
   17CHL1   C20 1234   0.656   3.935   5.871 -0.3732  0.4660  0.1291
   17CHL1   H20 1235   0.554   3.951   5.829 -0.7561  1.3375  1.3256
   17CHL1   C21 1236   0.704   3.790   5.846 -0.5630  0.1328 -0.1248
   17CHL1  H21A 1237   0.747   3.781   5.744  0.2662 -0.8498  0.2920
   17CHL1  H21B 1238   0.623   3.715   5.855  1.8058 -2.3144  4.0017
   17CHL1  H21C 1239   0.787   3.751   5.909 -0.4679  0.3637 -0.1033
   17CHL1   C22 1240   0.734   4.044   5.798 -0.0135  0.0399 -0.3827
   17CHL1  H22A 1241   0.703   4.145   5.832 -2.9736 -0.2106 -1.9705
   17CHL1  H22B 1242   0.838   4.037   5.837  0.2253  2.2049 -0.5055
   17CHL1   C23 1243   0.728   4.037   5.645  0.0580 -0.4758  0.1507
   17CHL1  H23A 1244   0.748   3.936   5.605 -0.4989 -0.6389  0.2699
   17CHL1  H23B 1245   0.625   4.058   5.609  0.5134  1.1719 -0.2640
   17CHL1   C24 1246   0.821   4.142   5.579 -0.3270  0.8489  0.0561
   17CHL1  H24A 1247   0.777   4.237   5.616  1.0335  1.7106 -0.4715
   17CHL1  H24B 1248   0.926   4.125   5.611 -0.2809  0.3817 -0.3377
   17CHL1   C25 1249   0.820   4.136   5.421 -0.0576  0.3990 -0.4886
   17CHL1   H25 1250   0.829   4.032   5.384  1.7437 -0.1641  1.3491
   17CHL1   C26 1251   0.682   4.188   5.371 -0.2464  0.1033  0.4015
   17CHL1  H26A 1252   0.688   4.291   5.411  1.0479 -0.5196  1.9638
   17CHL1  H26B 1253   0.672   4.174   5.261 -0.6815 -0.3814  0.4981
   17CHL1  H26C 1254   0.600   4.134   5.422 -0.0542  1.7895  2.6396
   17CHL1   C27 1255   0.920   4.229   5.356 -0.1474  0.0468 -0.1091
   17CHL1  H27A 1256   0.905   4.333   5.390  1.8622  0.1381  0.6446
   17CHL1  H27B 1257   1.028   4.218   5.378 -0.1251  0.6607  0.1057
   17CHL1  H27C 1258   0.903   4.245   5.247  1.8569  0.5868 -0.3817
   18CHL1    C3 1259   0.719   4.422   6.870 -0.0312 -0.4906 -0.5325
   18CHL1    H3 1260   0.822   4.396   6.837 -0.7183 -1.1950 -2.2189
   18CHL1    O3 1261   0.687   4.389   7.007  0.0187 -1.0145 -0.0146
   18CHL1   H3' 1262   0.685   4.294   7.013 -0.4120 -0.9747  0.5328
   18CHL1    C4 1263   0.692   4.564   6.828 -0.7302  0.3509  0.1744
   18CHL1   H4A 1264   0.585   4.583   6.854 -1.3544  2.9299 -3.4602
   18CHL1   H4B 1265   0.748   4.637   6.890 -1.1532  0.6119  0.2518
   18CHL1    C5 1266   0.721   4.580   6.678  0.9289 -0.6644 -0.3910
   18CHL1    C6 1267   0.814   4.666   6.637 -0.4757  0.4000 -0.4118
   18CHL1    H6 1268   0.868   4.733   6.706  0.5973 -0.4007 -0.4437
   18CHL1    C7 1269   0.841   4.688   6.496  0.0594  0.9320  0.0832
   18CHL1   H7A 1270   0.848   4.797   6.476  0.1384  0.8681 -0.2389
   18CHL1   H7B 1271   0.933   4.636   6.464 -0.5053 -1.6884  2.3448
   18CHL1    C8 1272   0.721   4.645   6.402  0.1403 -0.0684 -0.3714
   18CHL1    H8 1273   0.643   4.721   6.423 -0.9582 -1.5681  1.3373
   18CHL1   C14 1274   0.766   4.641   6.256  0.1285  0.7127 -0.0228
   18CHL1   H14 1275   0.841   4.558   6.262 -1.2323 -0.5070  1.0648
   18CHL1   C15 1276   0.846   4.759   6.201  0.0519  0.3346 -0.2500
   18CHL1  H15A 1277   0.803   4.858   6.227 -0.9939 -0.5599  1.6893
   18CHL1  H15B 1278   0.944   4.759   6.253  0.4671 -0.1840 -1.0195
   18CHL1   C16 1279   0.847   4.734   6.053 -0.6520 -0.1797  0.1053
   18CHL1  H16A 1280   0.794   4.822   6.011 -2.1850 -1.8795 -1.7473
   18CHL1  H16B 1281   0.951   4.730   6.014 -0.5164 -0.8369  0.5180
   18CHL1   C17 1282   0.767   4.607   6.024 -0.3350  0.2981 -0.1305
   18CHL1   H17 1283   0.838   4.522   6.032 -0.0636  0.5494  0.1529
   18CHL1   C13 1284   0.666   4.599   6.148 -0.7607  0.0760  0.4184
   18CHL1   C18 1285   0.543   4.692   6.141  0.2888 -0.0535  0.0102
   18CHL1  H18A 1286   0.473   4.667   6.059 -2.0061 -0.2211  1.8982
   18CHL1  H18B 1287   0.482   4.692   6.234  1.5736  2.7137  0.9709
   18CHL1  H18C 1288   0.573   4.798   6.128  1.5508 -0.3293  0.5105
   18CHL1   C12 1289   0.625   4.463   6.187  0.3785 -0.1809 -0.3418
   18CHL1  H12A 1290   0.553   4.421   6.113 -0.2192  0.9914 -0.4574
   18CHL1  H12B 1291   0.709   4.392   6.178  1.1025  0.5733  0.3333
   18CHL1   C11 1292   0.574   4.447   6.334 -0.4508 -0.4466 -0.3619
   18CHL1  H11A 1293   0.480   4.506   6.343  1.0323  2.5270 -2.4038
   18CHL1  H11B 1294   0.566   4.344   6.373  3.1624 -0.7251 -0.0134
   18CHL1    C9 1295   0.673   4.511   6.435 -0.3536 -0.2261  0.0284
   18CHL1    H9 1296   0.761   4.444   6.438 -1.1361 -1.3107 -0.2496
   18CHL1   C10 1297   0.631   4.506   6.582 -0.1359  0.5944  0.4022
   18CHL1   C19 1298   0.484   4.552   6.592  0.0146 -0.2694  0.1255
   18CHL1  H19A 1299   0.472   4.634   6.519  2.6248  1.6331  1.6593
   18CHL1  H19B 1300   0.415   4.466   6.581 -0.0669 -0.7066  3.1699
   18CHL1  H19C 1301   0.459   4.598   6.690 -0.0810 -0.9531  0.4350
   18CHL1    C1 1302   0.653   4.354   6.632 -0.1899  0.6460 -0.5906
   18CHL1   H1A 1303   0.576   4.293   6.581  0.8311 -0.9958 -0.2260
   18CHL1   H1B 1304   0.754   4.317   6.604 -0.0725  1.1464 -0.8387
   18CHL1    C2 1305   0.636   4.332   6.783 -0.2922 -0.6925  0.5566
   18CHL1   H2A 1306   0.653   4.226   6.811  2.9032  0.2090  2.4395
   18CHL1   H2B 1307   0.529   4.353   6.806  0.4773  1.4340  2.7068
   18CHL1   C20 1308   0.711   4.597   5.879  0.8328 -0.5378  0.1896
   18CHL1   H20 1309   0.620   4.661   5.880  0.8934 -0.4475  1.4890
   18CHL1   C21 1310   0.668   4.456   5.839 -0.3984  0.2119 -0.4997
   18CHL1  H21A 1311   0.600   4.425   5.921  0.4444  0.1351  0.1807
   18CHL1  H21B 1312   0.749   4.380   5.832 -1.3767 -0.7854 -1.3333
   18CHL1  H21C 1313   0.626   4.456   5.736 -0.3372 -1.3611 -0.5509
   18CHL1   C22 1314   0.814   4.654   5.772 -0.0619  0.3203  0.0083
   18CHL1  H22A 1315   0.826   4.760   5.805  0.8264 -0.3884  2.1344
   18CHL1  H22B 1316   0.909   4.599   5.786  0.7686  0.8029 -2.9871
   18CHL1   C23 1317   0.780   4.642   5.627 -0.2993  0.0968 -0.5252
   18CHL1  H23A 1318   0.780   4.534   5.602 -1.1140 -0.5424  1.9430
   18CHL1  H23B 1319   0.677   4.679   5.604 -0.6810 -1.3232 -1.2622
   18CHL1   C24 1320   0.874   4.731   5.543 -0.5622 -0.1857 -0.3295
   18CHL1  H24A 1321   0.864   4.834   5.585  0.5276  0.1069 -0.7607
   18CHL1  H24B 1322   0.975   4.691   5.563 -0.8265 -0.2500  0.9562
   18CHL1   C25 1323   0.855   4.722   5.393  0.4114 -0.1366 -0.4934
   18CHL1   H25 1324   0.872   4.614   5.368  0.0630 -0.5076  0.8136
   18CHL1   C26 1325   0.714   4.761   5.347 -0.1187  0.3055  0.3430
   18CHL1  H26A 1326   0.669   4.844   5.405  0.2183  0.8577 -0.1806
   18CHL1  H26B 1327   0.716   4.795   5.242  2.0369 -1.7560 -0.3840
   18CHL1  H26C 1328   0.648   4.671   5.356 -0.7164  0.2389 -3.3793
   18CHL1   C27 1329   0.958   4.799   5.310  0.1499  0.0685  0.5502
   18CHL1  H27A 1330   1.051   4.743   5.331 -0.2216 -1.1440 -0.8475
   18CHL1  H27B 1331   0.930   4.798   5.202  2.4266  1.6461 -0.1295
   18CHL1  H27C 1332   0.959   4.904   5.348 -1.3969  1.2016 -2.1863
   19CHL1    C3 1333   6.451   4.419   6.369 -0.0459  0.3314 -0.5462
   19CHL1    H3 1334   6.374   4.488   6.329  1.5884  0.7976 -3.0705
   19CHL1    O3 1335   6.419   4.387   6.502 -0.4325 -0.0126  0.4816
   19CHL1   H3' 1336   6.487   4.322   6.523  2.0799  2.6373  1.3140
   19CHL1    C4 1337   6.432   4.290   6.284 -0.1609  0.5311  0.0767
   19CHL1   H4A 1338   6.504   4.210   6.311 -3.0241 -2.0416  0.6666
   19CHL1   H4B 1339   6.330   4.249   6.300  0.0457  0.6710  1.9637
   19CHL1    C5 1340   6.457   4.323   6.140  0.3306  0.0700 -0.0867
   19CHL1    C6 1341   6.369   4.296   6.041  0.1826  0.0568  0.1730
   19CHL1    H6 1342   6.270   4.255   6.069  0.2029  0.2162  0.4736
   19CHL1    C7 1343   6.385   4.341   5.904  0.1381 -0.1585  0.5994
   19CHL1   H7A 1344   6.328   4.274   5.836  1.8441 -1.0662 -0.0013
   19CHL1   H7B 1345   6.345   4.444   5.894 -1.2096 -0.7577 -0.4688
   19CHL1    C8 1346   6.531   4.344   5.857 -0.0104 -0.1814  0.5157
   19CHL1    H8 1347   6.584   4.247   5.867  1.8364  0.8494  1.2086
   19CHL1   C14 1348   6.543   4.395   5.715 -0.1648 -0.1836  0.1989
   19CHL1   H14 1349   6.510   4.500   5.729 -0.2935 -0.2162  0.1455
   19CHL1   C15 1350   6.443   4.349   5.606  0.4414 -0.0362 -0.2997
   19CHL1  H15A 1351   6.417   4.242   5.622 -1.1896  0.2961 -0.5042
   19CHL1  H15B 1352   6.355   4.416   5.617 -0.1866 -1.1362  2.1682
   19CHL1   C16 1353   6.525   4.375   5.477 -0.5890  0.0695 -0.5011
   19CHL1  H16A 1354   6.573   4.278   5.452  3.0865  1.3990  0.7936
   19CHL1  H16B 1355   6.463   4.396   5.387  0.6910  2.0282 -0.9615
   19CHL1   C17 1356   6.639   4.472   5.520  0.1878 -0.0158 -0.4746
   19CHL1   H17 1357   6.594   4.572   5.538 -1.6396 -0.9373  0.3340
   19CHL1   C13 1358   6.683   4.413   5.659  0.2038 -0.3731  0.3407
   19CHL1   C18 1359   6.745   4.268   5.648  0.3513  0.2368 -0.2813
   19CHL1  H18A 1360   6.834   4.283   5.583 -0.7106  0.7170 -1.6559
   19CHL1  H18B 1361   6.762   4.229   5.751  0.6799 -0.6852 -0.6714
   19CHL1  H18C 1362   6.670   4.199   5.603 -1.3060  0.8207  1.4326
   19CHL1   C12 1363   6.760   4.499   5.757 -0.5207  0.5211  0.1670
   19CHL1  H12A 1364   6.867   4.482   5.732  0.0659  2.1017  1.4658
   19CHL1  H12B 1365   6.723   4.603   5.748 -1.6923 -0.0263 -2.2619
   19CHL1   C11 1366   6.749   4.462   5.906  0.2042 -0.9014 -0.4352
   19CHL1  H11A 1367   6.809   4.369   5.916  1.2023 -0.2908 -0.6080
   19CHL1  H11B 1368   6.789   4.547   5.966 -2.5266 -1.1257  1.9077
   19CHL1    C9 1369   6.605   4.440   5.961 -0.6796  0.5063  0.1273
   19CHL1    H9 1370   6.548   4.535   5.961 -3.1041 -0.8553  2.0537
   19CHL1   C10 1371   6.596   4.393   6.107  0.7014 -0.1748  0.2895
   19CHL1   C19 1372   6.694   4.271   6.126  0.2887  0.1470 -0.3199
   19CHL1  H19A 1373   6.682   4.233   6.230 -0.2894  2.0881  0.3562
   19CHL1  H19B 1374   6.666   4.191   6.054  1.2005 -0.7287  0.2757
   19CHL1  H19C 1375   6.801   4.297   6.110  0.2369 -0.2569 -1.4403
   19CHL1    C1 1376   6.619   4.511   6.203 -0.0604  0.4393  0.6762
   19CHL1   H1A 1377   6.727   4.530   6.185 -0.0930  1.0987  1.1481
   19CHL1   H1B 1378   6.555   4.599   6.184 -0.1386  0.0067 -1.2328
   19CHL1    C2 1379   6.592   4.473   6.348 -0.4380 -0.2603  0.0614
   19CHL1   H2A 1380   6.613   4.556   6.419  0.6077 -0.5848  0.1331
   19CHL1   H2B 1381   6.667   4.398   6.379 -0.8767 -0.7357 -0.0093
   19CHL1   C20 1382   6.751   4.484   5.420 -0.0307  0.1396  0.6550
   19CHL1   H20 1383   6.804   4.387   5.409 -0.7982 -0.1927 -0.2629
   19CHL1   C21 1384   6.836   4.608   5.443  0.0378  0.4496 -0.2583
   19CHL1  H21A 1385   6.782   4.700   5.411  1.6085  1.4971 -0.0033
   19CHL1  H21B 1386   6.933   4.604   5.390  0.2131 -2.8498  0.0904
   19CHL1  H21C 1387   6.874   4.603   5.547 -3.0718 -2.0572  0.9297
   19CHL1   C22 1388   6.688   4.500   5.270 -0.0354  0.2536  0.2439
   19CHL1  H22A 1389   6.616   4.417   5.253  0.3296  0.2550 -1.5323
   19CHL1  H22B 1390   6.631   4.595   5.282  0.9529  0.6436  2.2139
   19CHL1   C23 1391   6.788   4.506   5.157  0.3960  0.0332  0.5809
   19CHL1  H23A 1392   6.882   4.451   5.176 -0.0989 -1.9738 -2.1847
   19CHL1  H23B 1393   6.760   4.438   5.074  0.6820 -0.2884  0.7472
   19CHL1   C24 1394   6.807   4.646   5.095  0.7176  0.2956 -0.3162
   19CHL1  H24A 1395   6.717   4.655   5.029  0.2003  0.4074  0.3953
   19CHL1  H24B 1396   6.795   4.731   5.165  0.5819  1.2607 -1.4619
   19CHL1   C25 1397   6.934   4.663   5.009 -0.4282 -0.2877 -0.7319
   19CHL1   H25 1398   7.020   4.665   5.079 -2.0779  1.6686  1.3606
   19CHL1   C26 1399   6.956   4.556   4.904  0.2642  0.5938  0.4473
   19CHL1  H26A 1400   6.990   4.464   4.956  1.2389  0.1593 -0.9056
   19CHL1  H26B 1401   6.872   4.545   4.833 -1.4968 -2.6325  2.7560
   19CHL1  H26C 1402   7.042   4.586   4.840 -0.6956 -1.6647 -2.0923
   19CHL1   C27 1403   6.933   4.793   4.930 -0.5160  0.2629  0.1658
   19CHL1  H27A 1404   7.017   4.800   4.858 -2.0818  0.3596 -1.7231
   19CHL1  H27B 1405   6.842   4.792   4.866 -0.6508  0.4382  0.3539
   19CHL1  H27C 1406   6.928   4.872   5.008  1.2786  0.0633  0.5222
   20CHL1    C3 1407   6.688   5.703   6.662  0.0895 -0.5637  0.4427
   20CHL1    H3 1408   6.723   5.602   6.632 -0.4739 -0.5268 -0.3751
   20CHL1    O3 1409   6.649   5.712   6.800  0.0153 -0.2682 -0.4817
   20CHL1   H3' 1410   6.652   5.806   6.821 -0.3649 -0.6984  1.7188
   20CHL1    C4 1411   6.808   5.803   6.643 -0.5099  0.2291 -0.0127
   20CHL1   H4A 1412   6.774   5.905   6.673 -0.3053  1.2679 -2.9778
   20CHL1   H4B 1413   6.895   5.767   6.703  0.5544 -0.0956 -1.6728
   20CHL1    C5 1414   6.849   5.817   6.495 -0.0331 -0.4322  0.2825
   20CHL1    C6 1415   6.976   5.789   6.454  0.0263  0.5852 -0.1830
   20CHL1    H6 1416   7.048   5.756   6.530  1.0857  1.2143 -0.8900
   20CHL1    C7 1417   7.017   5.788   6.305  0.3476  0.3276 -0.1806
   20CHL1   H7A 1418   7.108   5.850   6.285 -0.3157  0.6653 -2.3846
   20CHL1   H7B 1419   7.020   5.683   6.270  1.0541  0.1971  0.2442
   20CHL1    C8 1420   6.915   5.868   6.211  0.0035  0.7175  0.4885
   20CHL1    H8 1421   6.923   5.976   6.236  1.4497  0.7394  0.0022
   20CHL1   C14 1422   6.946   5.842   6.064 -0.4611 -0.4434 -0.2862
   20CHL1   H14 1423   6.938   5.731   6.057 -0.6435 -0.4808  0.4275
   20CHL1   C15 1424   7.090   5.878   6.009  0.5801  0.2641 -0.9411
   20CHL1  H15A 1425   7.116   5.978   6.050 -0.4126  0.6083 -1.1409
   20CHL1  H15B 1426   7.160   5.807   6.059  2.0937  2.5498  0.3854
   20CHL1   C16 1427   7.066   5.885   5.855  0.0960 -0.0422 -0.1248
   20CHL1  H16A 1428   7.090   5.992   5.834 -0.3780  0.5609  2.1080
   20CHL1  H16B 1429   7.131   5.816   5.798  1.1958  1.7906 -1.1869
   20CHL1   C17 1430   6.916   5.871   5.836 -0.0498  0.6126  0.9123
   20CHL1   H17 1431   6.897   5.762   5.823 -1.4454  1.1944 -3.9035
   20CHL1   C13 1432   6.850   5.908   5.972  0.1835  0.6035  0.7883
   20CHL1   C18 1433   6.859   6.063   5.974  0.6106 -0.8483  0.0790
   20CHL1  H18A 1434   6.939   6.115   5.918 -2.6520  2.6120 -1.7794
   20CHL1  H18B 1435   6.770   6.095   5.916  1.3040  0.4646 -0.3022
   20CHL1  H18C 1436   6.851   6.095   6.080 -1.6661 -1.0551  0.0225
   20CHL1   C12 1437   6.704   5.857   6.000  0.0837 -0.5119  0.4070
   20CHL1  H12A 1438   6.623   5.896   5.934  0.9031  1.2323  0.3619
   20CHL1  H12B 1439   6.697   5.748   5.981  0.0749 -0.5465  0.6096
   20CHL1   C11 1440   6.665   5.877   6.148 -0.0606  1.1778 -0.3443
   20CHL1  H11A 1441   6.655   5.987   6.161  1.1996  1.5858 -2.4420
   20CHL1  H11B 1442   6.573   5.819   6.170  1.5748 -1.4375  0.0150
   20CHL1    C9 1443   6.773   5.821   6.249 -0.3018 -0.2410 -0.2554
   20CHL1    H9 1444   6.772   5.711   6.233 -0.3298 -0.2309 -0.3249
   20CHL1   C10 1445   6.733   5.841   6.401  0.7078 -0.0564 -0.5612
   20CHL1   C19 1446   6.704   5.996   6.420 -0.0628  0.0047 -0.1193
   20CHL1  H19A 1447   6.711   6.016   6.529 -1.2648 -1.3947  0.2494
   20CHL1  H19B 1448   6.780   6.057   6.367 -0.5092 -0.3867 -1.2620
   20CHL1  H19C 1449   6.603   6.024   6.382 -1.1468 -1.4711  1.5241
   20CHL1    C1 1450   6.601   5.760   6.428 -0.1890  0.1813 -0.3866
   20CHL1   H1A 1451   6.517   5.806   6.372  0.1681  0.0309 -1.0660
   20CHL1   H1B 1452   6.611   5.661   6.380  0.4946  1.5685 -3.3722
   20CHL1    C2 1453   6.568   5.745   6.576 -0.1596  0.1181 -0.1857
   20CHL1   H2A 1454   6.483   5.681   6.609  0.6561  0.1013  2.1078
   20CHL1   H2B 1455   6.535   5.849   6.597  1.8179  0.7665 -0.0987
   20CHL1   C20 1456   6.871   5.926   5.697 -0.4579  0.1369  0.3981
   20CHL1   H20 1457   6.885   6.036   5.702 -1.7976  0.2885  1.0231
   20CHL1   C21 1458   6.726   5.898   5.670 -0.6143 -0.9251  0.0373
   20CHL1  H21A 1459   6.699   5.791   5.681 -0.7041 -1.0556 -1.2691
   20CHL1  H21B 1460   6.698   5.912   5.563 -0.5517 -0.5831  0.0654
   20CHL1  H21C 1461   6.672   5.972   5.733  1.1895 -0.9689  1.7396
   20CHL1   C22 1462   6.957   5.881   5.574  0.2569 -0.1508  0.1517
   20CHL1  H22A 1463   7.063   5.866   5.604  0.0119 -1.4165  0.4451
   20CHL1  H22B 1464   6.916   5.786   5.534  2.9722 -0.9470 -1.0072
   20CHL1   C23 1465   6.962   5.992   5.467 -0.4220 -0.7297 -0.8505
   20CHL1  H23A 1466   6.863   6.009   5.419 -1.1222  2.8596  1.4642
   20CHL1  H23B 1467   6.998   6.088   5.508 -0.3324 -1.3927  0.6972
   20CHL1   C24 1468   7.063   5.953   5.349  0.1772  0.3693  0.6895
   20CHL1  H24A 1469   7.162   5.916   5.385  1.4556  2.1439 -0.7794
   20CHL1  H24B 1470   7.022   5.857   5.313 -2.4876  0.5884  2.8077
   20CHL1   C25 1471   7.099   6.056   5.237  0.2468  0.9067  0.6016
   20CHL1   H25 1472   7.002   6.090   5.194  0.9235  1.0584 -0.8651
   20CHL1   C26 1473   7.173   6.174   5.297 -0.1271  0.4485 -0.4669
   20CHL1  H26A 1474   7.119   6.207   5.389 -2.7213  1.3255 -2.2053
   20CHL1  H26B 1475   7.277   6.150   5.328  1.4153  2.4488 -3.5682
   20CHL1  H26C 1476   7.185   6.259   5.227  0.8484  0.1027 -0.7358
   20CHL1   C27 1477   7.182   5.992   5.132 -0.2751  1.2063 -0.0651
   20CHL1  H27A 1478   7.287   5.992   5.168 -0.1128 -0.8924 -0.3997
   20CHL1  H27B 1479   7.152   5.888   5.105 -1.2488  1.8331 -1.5676
   20CHL1  H27C 1480   7.180   6.045   5.034  0.9129 -2.0239 -1.9819
   21CHL1    C3 1481   4.556   4.521   6.399  0.0666 -0.4061 -0.0330
   21CHL1    H3 1482   4.456   4.560   6.371 -0.9484 -1.5319  1.8088
   21CHL1    O3 1483   4.572   4.491   6.535  0.0135 -0.2321 -0.2466
   21CHL1   H3' 1484   4.666   4.469   6.538 -0.1909 -1.0707  0.1464
   21CHL1    C4 1485   4.586   4.398   6.308  0.0306 -0.5337  0.3652
   21CHL1   H4A 1486   4.689   4.359   6.322  0.2716 -0.0436 -0.0366
   21CHL1   H4B 1487   4.521   4.311   6.335 -0.1487 -0.5226 -0.0224
   21CHL1    C5 1488   4.566   4.435   6.161  0.3858 -0.3630 -0.0197
   21CHL1    C6 1489   4.476   4.373   6.095 -0.0788  0.4898  0.0252
   21CHL1    H6 1490   4.418   4.289   6.137  1.0142 -0.0688  0.4474
   21CHL1    C7 1491   4.460   4.392   5.947  0.4256 -0.0518 -0.6375
   21CHL1   H7A 1492   4.459   4.288   5.907 -1.7080 -0.1410 -0.4561
   21CHL1   H7B 1493   4.362   4.443   5.939  0.0508 -0.8568 -1.3325
   21CHL1    C8 1494   4.569   4.480   5.877  0.8809 -0.4223 -0.6957
   21CHL1    H8 1495   4.664   4.425   5.865  1.0699 -0.8758  2.2353
   21CHL1   C14 1496   4.512   4.531   5.745 -0.2394 -0.7102  0.2245
   21CHL1   H14 1497   4.419   4.587   5.771 -1.4979 -1.6998 -1.8956
   21CHL1   C15 1498   4.449   4.434   5.645  0.5313 -0.0494  0.3951
   21CHL1  H15A 1499   4.517   4.347   5.632  1.7652  1.0332 -0.6083
   21CHL1  H15B 1500   4.350   4.399   5.681 -0.7634  0.8420 -2.0654
   21CHL1   C16 1501   4.447   4.524   5.517  0.8651  0.2185  0.4595
   21CHL1  H16A 1502   4.500   4.476   5.431  2.5003  2.3373  0.1959
   21CHL1  H16B 1503   4.340   4.531   5.488  0.9341 -2.1632 -0.6374
   21CHL1   C17 1504   4.514   4.661   5.537  0.1736  0.0820 -1.0512
   21CHL1   H17 1505   4.438   4.734   5.574  0.9556  0.7154 -0.6698
   21CHL1   C13 1506   4.604   4.630   5.664 -0.2890  0.5548  0.2581
   21CHL1   C18 1507   4.729   4.560   5.606 -0.6809  0.0965  0.2314
   21CHL1  H18A 1508   4.700   4.478   5.537  1.2551  0.3018 -0.9189
   21CHL1  H18B 1509   4.800   4.629   5.555  0.3485  0.1113  1.6396
   21CHL1  H18C 1510   4.793   4.519   5.687  0.8766 -1.6844 -1.7441
   21CHL1   C12 1511   4.641   4.747   5.756 -0.6217  0.6001 -0.1905
   21CHL1  H12A 1512   4.725   4.805   5.713 -0.5118  1.4729  1.1539
   21CHL1  H12B 1513   4.549   4.803   5.784 -0.7492  0.4568 -0.3166
   21CHL1   C11 1514   4.694   4.700   5.891  0.6488 -0.1760 -0.8760
   21CHL1  H11A 1515   4.792   4.648   5.880  0.1971 -1.2715  0.0902
   21CHL1  H11B 1516   4.708   4.789   5.955 -0.2940  0.7046 -1.8616
   21CHL1    C9 1517   4.599   4.595   5.965  0.2863  0.8669  0.3861
   21CHL1    H9 1518   4.496   4.631   5.986 -1.0350 -2.9564  1.3604
   21CHL1   C10 1519   4.650   4.552   6.105  0.1349 -0.5323 -0.2380
   21CHL1   C19 1520   4.795   4.493   6.098 -0.2594 -1.1629 -0.0316
   21CHL1  H19A 1521   4.867   4.567   6.056  0.0949 -0.4437  1.7881
   21CHL1  H19B 1522   4.828   4.461   6.199 -0.6313 -1.6038 -0.0442
   21CHL1  H19C 1523   4.799   4.403   6.033  0.5120 -0.5224 -0.8993
   21CHL1    C1 1524   4.638   4.666   6.210  0.2271 -0.5320  0.0607
   21CHL1   H1A 1525   4.708   4.748   6.182  0.6843 -0.7100  0.6662
   21CHL1   H1B 1526   4.535   4.707   6.209 -0.2478 -1.5641 -2.7872
   21CHL1    C2 1527   4.660   4.633   6.356  0.1533 -0.3692  0.1997
   21CHL1   H2A 1528   4.641   4.718   6.426  1.7199  0.1660  0.0209
   21CHL1   H2B 1529   4.762   4.588   6.357 -0.3817 -1.6509 -0.7090
   21CHL1   C20 1530   4.575   4.720   5.410  0.4788  0.5235 -0.3176
   21CHL1   H20 1531   4.666   4.669   5.371  0.1292  0.4566 -1.0537
   21CHL1   C21 1532   4.610   4.867   5.427 -0.2538  0.3420 -0.2696
   21CHL1  H21A 1533   4.685   4.898   5.504  1.1844 -0.4081 -1.3250
   21CHL1  H21B 1534   4.523   4.925   5.464 -1.0638 -0.8575 -0.2181
   21CHL1  H21C 1535   4.642   4.918   5.334  0.2278  0.9169  0.2011
   21CHL1   C22 1536   4.481   4.717   5.291  0.4605 -0.6547  0.9457
   21CHL1  H22A 1537   4.432   4.618   5.282 -0.9358  0.0604  0.3204
   21CHL1  H22B 1538   4.398   4.791   5.294 -0.3861 -1.4310 -1.2270
   21CHL1   C23 1539   4.538   4.731   5.149 -0.0354  0.3831  0.0499
   21CHL1  H23A 1540   4.590   4.829   5.142  1.0371 -0.2242 -0.8635
   21CHL1  H23B 1541   4.616   4.654   5.131 -0.9853 -0.4998 -0.3954
   21CHL1   C24 1542   4.444   4.717   5.030  0.0879  0.1026 -0.7792
   21CHL1  H24A 1543   4.364   4.639   5.035 -1.1629  1.4168  0.8668
   21CHL1  H24B 1544   4.371   4.800   5.017 -2.2928 -1.9899 -1.6496
   21CHL1   C25 1545   4.514   4.697   4.898 -0.7614 -0.1216 -0.0461
   21CHL1   H25 1546   4.559   4.596   4.910 -0.8466 -0.2904 -1.1077
   21CHL1   C26 1547   4.426   4.697   4.770 -0.2885  0.0816 -0.7024
   21CHL1  H26A 1548   4.343   4.624   4.788 -0.5015  0.4073 -0.3506
   21CHL1  H26B 1549   4.387   4.801   4.764 -1.3910 -0.2919 -0.3536
   21CHL1  H26C 1550   4.486   4.674   4.679 -1.1050 -1.6963 -0.8462
   21CHL1   C27 1551   4.623   4.802   4.880  0.7004 -0.1059  0.1054
   21CHL1  H27A 1552   4.705   4.791   4.954 -0.0350 -3.1648  0.6159
   21CHL1  H27B 1553   4.672   4.788   4.782  0.8756 -0.3184  0.2220
   21CHL1  H27C 1554   4.580   4.904   4.889  0.9104 -0.1015  1.1915
   22CHL1    C3 1555   5.193   5.099   6.166 -0.1191 -0.0423  0.5377
   22CHL1    H3 1556   5.127   5.026   6.114  0.4116  1.8047 -3.0697
   22CHL1    O3 1557   5.173   5.093   6.305 -0.5262  0.1747  0.1231
   22CHL1   H3' 1558   5.193   5.183   6.333  1.9715 -0.6543  1.3686
   22CHL1    C4 1559   5.337   5.063   6.136 -0.9206  0.8426 -0.4842
   22CHL1   H4A 1560   5.402   5.125   6.203  0.4799  0.1431 -1.1520
   22CHL1   H4B 1561   5.358   4.959   6.170  1.3455  0.8509 -1.6809
   22CHL1    C5 1562   5.375   5.077   5.988  0.4712  0.0003 -0.3753
   22CHL1    C6 1563   5.408   4.971   5.917  0.1617  1.4443  0.3905
   22CHL1    H6 1564   5.421   4.878   5.973  1.8570  1.1866 -0.3676
   22CHL1    C7 1565   5.455   4.985   5.775 -0.1281  0.3509  0.6846
   22CHL1   H7A 1566   5.557   4.946   5.755  0.0282  1.0362  0.1249
   22CHL1   H7B 1567   5.390   4.929   5.706 -1.3740  1.3082  1.0448
   22CHL1    C8 1568   5.463   5.131   5.720 -0.0784  0.1161 -0.9646
   22CHL1    H8 1569   5.557   5.167   5.767  0.5520 -0.3800 -1.8221
   22CHL1   C14 1570   5.472   5.139   5.572 -0.2269 -0.6883  0.0189
   22CHL1   H14 1571   5.377   5.102   5.527 -0.9331  1.0840 -0.0253
   22CHL1   C15 1572   5.590   5.059   5.507 -0.2143  0.6337  0.3285
   22CHL1  H15A 1573   5.681   5.073   5.568  0.2304 -2.3431  0.5365
   22CHL1  H15B 1574   5.542   4.958   5.507  0.1984  0.4303  0.7912
   22CHL1   C16 1575   5.606   5.124   5.365  0.2853 -0.2309  0.1129
   22CHL1  H16A 1576   5.716   5.135   5.354  0.6033 -1.9722  1.2529
   22CHL1  H16B 1577   5.573   5.049   5.290 -0.3935  0.9136 -0.7659
   22CHL1   C17 1578   5.521   5.258   5.363  0.6296 -0.0353 -0.4849
   22CHL1   H17 1579   5.423   5.234   5.317  0.0930  1.9717 -0.4731
   22CHL1   C13 1580   5.491   5.283   5.519 -0.1456 -0.3084 -0.9099
   22CHL1   C18 1581   5.620   5.354   5.574 -0.8756 -0.0603 -0.0087
   22CHL1  H18A 1582   5.603   5.459   5.545  0.3485 -0.4782 -2.4796
   22CHL1  H18B 1583   5.632   5.351   5.685  3.5810  0.5038 -0.2967
   22CHL1  H18C 1584   5.706   5.306   5.522  0.3009  1.0768  0.8037
   22CHL1   C12 1585   5.357   5.353   5.556 -0.7154  0.3994  0.8717
   22CHL1  H12A 1586   5.353   5.457   5.519 -1.8226 -0.1439 -0.6351
   22CHL1  H12B 1587   5.273   5.303   5.503  0.2744  0.4959 -0.8464
   22CHL1   C11 1588   5.333   5.357   5.705  0.1355  0.0706 -0.2255
   22CHL1  H11A 1589   5.418   5.422   5.737  2.6193 -2.6187 -0.9697
   22CHL1  H11B 1590   5.236   5.404   5.734 -0.7876 -1.8045 -0.0829
   22CHL1    C9 1591   5.340   5.217   5.775 -0.0487 -0.0254  0.4149
   22CHL1    H9 1592   5.249   5.163   5.738  1.5180 -1.7278 -1.1963
   22CHL1   C10 1593   5.345   5.217   5.931 -0.2171 -0.5256  0.3910
   22CHL1   C19 1594   5.456   5.323   5.977  0.0635 -0.3062 -0.6593
   22CHL1  H19A 1595   5.445   5.351   6.084  0.4101 -0.8803 -0.4708
   22CHL1  H19B 1596   5.558   5.281   5.968  1.0275  1.4915  1.0684
   22CHL1  H19C 1597   5.456   5.415   5.915  0.3525  0.3875  0.3359
   22CHL1    C1 1598   5.200   5.258   5.980 -0.3132 -0.5156 -0.5517
   22CHL1   H1A 1599   5.181   5.366   5.959 -1.2262 -0.6471 -0.4493
   22CHL1   H1B 1600   5.130   5.194   5.922 -1.0827  0.5401 -0.8195
   22CHL1    C2 1601   5.162   5.246   6.125 -0.5009 -0.1587 -0.7502
   22CHL1   H2A 1602   5.055   5.260   6.151  0.0630 -0.5792  2.1064
   22CHL1   H2B 1603   5.228   5.309   6.190 -0.7479  0.1438 -0.7895
   22CHL1   C20 1604   5.581   5.366   5.269  0.7126 -0.5976  0.6030
   22CHL1   H20 1605   5.672   5.410   5.316 -0.8841  2.5505  0.9516
   22CHL1   C21 1606   5.476   5.481   5.250 -0.5526  0.7097  0.8274
   22CHL1  H21A 1607   5.469   5.538   5.346  1.7305 -0.6759  1.9072
   22CHL1  H21B 1608   5.378   5.442   5.218 -0.9898  0.2512  2.5757
   22CHL1  H21C 1609   5.510   5.553   5.173  1.5545  0.3081  1.3125
   22CHL1   C22 1610   5.626   5.312   5.130 -0.2343 -0.5910 -0.2370
   22CHL1  H22A 1611   5.698   5.229   5.144 -0.9999 -1.5057 -1.4223
   22CHL1  H22B 1612   5.545   5.251   5.083 -0.5148 -0.1714 -0.3044
   22CHL1   C23 1613   5.669   5.421   5.026 -0.5062 -0.7123 -0.3069
   22CHL1  H23A 1614   5.576   5.474   4.996 -2.2041 -1.9284  2.4194
   22CHL1  H23B 1615   5.732   5.504   5.063 -2.0339  0.7438 -0.8347
   22CHL1   C24 1616   5.752   5.348   4.923  0.0048 -0.3358  0.5351
   22CHL1  H24A 1617   5.838   5.305   4.978  1.7491 -1.1653 -2.6434
   22CHL1  H24B 1618   5.697   5.265   4.874  1.3349 -1.9006  1.6084
   22CHL1   C25 1619   5.792   5.436   4.802 -0.0539 -0.1216  0.0834
   22CHL1   H25 1620   5.703   5.487   4.759  0.8305  3.5993  2.1830
   22CHL1   C26 1621   5.899   5.539   4.839  0.3615 -0.0319  0.3315
   22CHL1  H26A 1622   5.996   5.488   4.857  0.4723 -0.3619 -1.1344
   22CHL1  H26B 1623   5.922   5.595   4.746  1.1304  0.0053  0.5395
   22CHL1  H26C 1624   5.872   5.603   4.926  0.5930 -1.5368  1.5492
   22CHL1   C27 1625   5.852   5.339   4.697  0.2577 -1.1236 -0.1205
   22CHL1  H27A 1626   5.937   5.283   4.743  0.7223 -1.5616 -1.4848
   22CHL1  H27B 1627   5.782   5.258   4.668 -1.3104 -0.1184  0.7682
   22CHL1  H27C 1628   5.882   5.402   4.611  0.2249 -1.7321 -0.5863
   23CHL1    C3 1629   3.503   5.974   6.036 -0.2497  0.6511  0.3326
   23CHL1    H3 1630   3.444   6.065   6.014 -3.0357 -1.1581 -0.1868
   23CHL1    O3 1631   3.473   5.949   6.169  0.3478  0.8240  0.7819
   23CHL1   H3' 1632   3.518   6.023   6.210  1.5896 -0.4439  1.7916
   23CHL1    C4 1633   3.458   5.853   5.952 -0.0492  0.1897 -0.4447
   23CHL1   H4A 1634   3.513   5.762   5.983  0.6906 -0.0286 -2.2942
   23CHL1   H4B 1635   3.349   5.851   5.974 -0.6392  0.0304 -3.1108
   23CHL1    C5 1636   3.473   5.882   5.811 -0.0011 -0.2610 -0.0077
   23CHL1    C6 1637   3.375   5.900   5.721  0.0452 -0.2880  0.5470
   23CHL1    H6 1638   3.270   5.880   5.747  0.1726  1.3691  2.5834
   23CHL1    C7 1639   3.409   5.926   5.578  0.1764 -0.5720  0.0944
   23CHL1   H7A 1640   3.351   5.858   5.512 -1.9034 -0.9212  2.1595
   23CHL1   H7B 1641   3.386   6.033   5.560  0.8542 -0.5203 -0.5419
   23CHL1    C8 1642   3.561   5.908   5.535 -0.2925  0.0249  0.2008
   23CHL1    H8 1643   3.574   5.798   5.530 -0.1179  0.0613 -0.1539
   23CHL1   C14 1644   3.594   5.963   5.401 -0.1171 -0.1211  0.0337
   23CHL1   H14 1645   3.589   6.074   5.404 -0.2178 -0.0567 -1.5479
   23CHL1   C15 1646   3.504   5.915   5.287 -0.7519 -0.1155  0.2274
   23CHL1  H15A 1647   3.480   5.809   5.310  3.3143 -1.3022 -0.2361
   23CHL1  H15B 1648   3.407   5.969   5.281 -0.0103  1.7513  3.1273
   23CHL1   C16 1649   3.594   5.942   5.160 -0.1058  0.2060 -0.1549
   23CHL1  H16A 1650   3.598   5.846   5.104  0.2901 -0.5594  1.1360
   23CHL1  H16B 1651   3.549   6.023   5.099  0.8827  1.5139  0.8162
   23CHL1   C17 1652   3.736   5.975   5.207  0.4194 -0.2593 -0.1421
   23CHL1   H17 1653   3.740   6.086   5.203  0.5503 -0.2835 -1.0579
   23CHL1   C13 1654   3.743   5.938   5.358  0.7857 -0.0717 -0.7540
   23CHL1   C18 1655   3.770   5.788   5.371 -0.2321  0.5383  0.0929
   23CHL1  H18A 1656   3.870   5.759   5.335 -0.3332  1.0817 -0.6446
   23CHL1  H18B 1657   3.775   5.753   5.477 -1.6944  2.0973  0.7332
   23CHL1  H18C 1658   3.705   5.726   5.306  0.5286  2.0113 -2.1863
   23CHL1   C12 1659   3.819   6.032   5.455  0.0928  0.2109  0.6747
   23CHL1  H12A 1660   3.924   6.040   5.422  0.8334 -0.8948  2.6201
   23CHL1  H12B 1661   3.774   6.133   5.444 -1.5361 -0.4543  0.8116
   23CHL1   C11 1662   3.790   5.990   5.599 -0.6297  0.7603 -0.1108
   23CHL1  H11A 1663   3.854   5.900   5.608  0.1992  1.2290 -1.0962
   23CHL1  H11B 1664   3.826   6.061   5.677  0.0864 -0.2678  0.5167
   23CHL1    C9 1665   3.639   5.975   5.643  0.2097 -0.2358  0.9902
   23CHL1    H9 1666   3.604   6.080   5.646 -0.0073 -0.3234  1.5745
   23CHL1   C10 1667   3.624   5.919   5.779 -0.4458 -0.4350 -0.1715
   23CHL1   C19 1668   3.704   5.787   5.788  0.6844  0.7314 -1.3058
   23CHL1  H19A 1669   3.809   5.822   5.796  0.6639  0.3167  3.1160
   23CHL1  H19B 1670   3.691   5.717   5.873  0.8120  1.4605 -0.6776
   23CHL1  H19C 1671   3.709   5.727   5.694  1.8032 -0.8681 -0.2717
   23CHL1    C1 1672   3.676   6.017   5.883 -0.1168 -0.8682 -0.5161
   23CHL1   H1A 1673   3.784   6.039   5.864  0.4515 -2.8659  0.1729
   23CHL1   H1B 1674   3.623   6.113   5.868 -0.1970 -0.7796  0.2547
   23CHL1    C2 1675   3.655   5.983   6.027 -0.1215  0.3270 -0.3964
   23CHL1   H2A 1676   3.690   6.064   6.094  0.9341  1.1321 -1.8529
   23CHL1   H2B 1677   3.706   5.888   6.053 -0.5486  0.1539 -0.1829
   23CHL1   C20 1678   3.849   5.944   5.111  0.6355  0.3152  0.2354
   23CHL1   H20 1679   3.857   5.835   5.088 -0.1736 -0.1783  2.1096
   23CHL1   C21 1680   3.976   5.988   5.174 -0.2834 -0.0888 -0.5268
   23CHL1  H21A 1681   3.997   5.925   5.263 -0.3771 -2.4605 -2.0860
   23CHL1  H21B 1682   3.990   6.091   5.213 -3.0439  0.2492 -0.1729
   23CHL1  H21C 1683   4.057   5.966   5.102 -0.4212 -1.2133 -0.3533
   23CHL1   C22 1684   3.819   6.005   4.972  0.2498 -0.1751  0.0262
   23CHL1  H22A 1685   3.717   5.981   4.935 -0.0087  0.5564  0.2544
   23CHL1  H22B 1686   3.821   6.115   4.988 -1.2569 -0.2424  0.7386
   23CHL1   C23 1687   3.925   5.957   4.870 -0.1443 -0.3032  0.6335
   23CHL1  H23A 1688   4.019   6.012   4.893  0.3533 -1.2800  0.9972
   23CHL1  H23B 1689   3.955   5.851   4.868 -0.9151 -0.5149 -0.8313
   23CHL1   C24 1690   3.887   5.992   4.727  0.1835  0.0158 -0.2431
   23CHL1  H24A 1691   3.792   5.938   4.709  0.7436 -0.7427 -1.0763
   23CHL1  H24B 1692   3.873   6.102   4.729  0.6998  0.1163 -1.2997
   23CHL1   C25 1693   3.996   5.954   4.619  0.7165  0.4062 -0.0805
   23CHL1   H25 1694   4.022   5.849   4.640  0.5302 -0.0307 -1.9059
   23CHL1   C26 1695   3.934   5.956   4.477 -0.1519 -0.9748  0.2252
   23CHL1  H26A 1696   4.011   5.946   4.397 -2.0107  0.3667 -1.8641
   23CHL1  H26B 1697   3.857   5.877   4.463  1.0508 -1.9791 -1.1433
   23CHL1  H26C 1698   3.886   6.054   4.459 -0.0805 -1.0597 -0.4797
   23CHL1   C27 1699   4.118   6.031   4.630 -0.3581 -0.3730 -0.4102
   23CHL1  H27A 1700   4.103   6.138   4.656  0.0971 -0.0789 -1.3266
   23CHL1  H27B 1701   4.190   6.003   4.710 -0.2973  0.8709 -0.0070
   23CHL1  H27C 1702   4.179   6.025   4.538 -0.2812 -0.2778 -0.3663
   24CHL1    C3 1703   5.227   5.867   6.406 -0.0271 -0.0895 -0.1930
   24CHL1    H3 1704   5.236   5.978   6.405  1.1520 -0.1441  1.1032
   24CHL1    O3 1705   5.206   5.832   6.543 -0.1593  0.3905 -0.1929
   24CHL1   H3' 1706   5.120   5.862   6.573  0.5124  1.0899  1.1209
   24CHL1    C4 1707   5.111   5.824   6.310 -0.2442  0.3129  0.1144
   24CHL1   H4A 1708   5.099   5.713   6.316  1.6403  0.0951  0.7658
   24CHL1   H4B 1709   5.019   5.870   6.352  0.3780  3.6986 -1.8538
   24CHL1    C5 1710   5.135   5.869   6.169  0.1141 -0.0237  0.2999
   24CHL1    C6 1711   5.051   5.956   6.112  0.0779  0.0701 -0.5777
   24CHL1    H6 1712   4.962   5.985   6.170  0.5700  0.5874 -0.0775
   24CHL1    C7 1713   5.070   6.001   5.971 -0.3359  0.1149 -0.0341
   24CHL1   H7A 1714   4.979   5.984   5.909  0.2028 -0.3831 -0.7100
   24CHL1   H7B 1715   5.106   6.106   5.961  1.3713 -0.4014  0.3047
   24CHL1    C8 1716   5.174   5.912   5.896  0.1482  0.0362  0.0597
   24CHL1    H8 1717   5.123   5.815   5.876  0.8756 -0.6459  1.3955
   24CHL1   C14 1718   5.199   5.969   5.751  0.0517 -0.5892 -0.2388
   24CHL1   H14 1719   5.251   6.066   5.767  1.8824 -1.5340 -0.2243
   24CHL1   C15 1720   5.090   5.999   5.662 -0.1955 -0.7118  0.5446
   24CHL1  H15A 1721   5.032   5.904   5.663 -0.8013 -0.3484  0.5704
   24CHL1  H15B 1722   5.041   6.095   5.690  0.1801 -0.9357  2.0448
   24CHL1   C16 1723   5.155   6.005   5.526  0.1855  0.1762 -0.0426
   24CHL1  H16A 1724   5.095   5.955   5.447  0.1138  0.5881 -0.2517
   24CHL1  H16B 1725   5.165   6.111   5.496 -0.1608 -0.1333 -1.3422
   24CHL1   C17 1726   5.296   5.944   5.540  0.5838  0.3093 -0.6633
   24CHL1   H17 1727   5.369   6.026   5.554 -0.2549  0.6985  1.8803
   24CHL1   C13 1728   5.306   5.879   5.680 -0.0183 -0.1934  1.3614
   24CHL1   C18 1729   5.255   5.733   5.684 -0.1555  0.4333 -0.1197
   24CHL1  H18A 1730   5.316   5.665   5.621  0.4165  1.2492 -0.4538
   24CHL1  H18B 1731   5.257   5.692   5.788 -2.4822  1.1944  0.2849
   24CHL1  H18C 1732   5.151   5.717   5.649 -0.1335  1.1763 -0.5228
   24CHL1   C12 1733   5.439   5.893   5.750  0.1966  0.9234 -0.8899
   24CHL1  H12A 1734   5.521   5.834   5.703 -0.0206 -1.6257  1.6738
   24CHL1  H12B 1735   5.472   5.999   5.762  0.6956  0.6334  0.5176
   24CHL1   C11 1736   5.429   5.842   5.898  0.1130  0.3802 -0.6107
   24CHL1  H11A 1737   5.434   5.731   5.887 -0.1242  0.3525 -0.4345
   24CHL1  H11B 1738   5.522   5.881   5.945 -2.5355  4.0007  2.1477
   24CHL1    C9 1739   5.302   5.888   5.979 -0.0325  0.2003  0.9113
   24CHL1    H9 1740   5.338   5.992   5.997  1.8882  0.3380 -2.8276
   24CHL1   C10 1741   5.269   5.814   6.103 -0.4187 -0.1734  0.2773
   24CHL1   C19 1742   5.260   5.664   6.082  0.7933  0.0578  0.0366
   24CHL1  H19A 1743   5.362   5.623   6.069  0.0743 -1.5805 -0.6649
   24CHL1  H19B 1744   5.216   5.610   6.168  1.2300 -0.5341 -0.1075
   24CHL1  H19C 1745   5.189   5.652   5.997 -0.5040  3.4619  0.4455
   24CHL1    C1 1746   5.386   5.843   6.209  0.2505  0.1884  0.8473
   24CHL1   H1A 1747   5.478   5.784   6.188 -0.2617  0.2271 -1.8778
   24CHL1   H1B 1748   5.402   5.952   6.194 -0.6605 -0.0609 -3.1782
   24CHL1    C2 1749   5.353   5.800   6.356 -0.1947 -0.0299  0.1959
   24CHL1   H2A 1750   5.425   5.828   6.436 -2.5000  1.9774  1.7357
   24CHL1   H2B 1751   5.327   5.693   6.371 -0.4894 -0.0962 -0.7052
   24CHL1   C20 1752   5.339   5.866   5.414  0.6000 -0.7720 -0.0952
   24CHL1   H20 1753   5.284   5.769   5.404 -2.5427  0.7504  1.1200
   24CHL1   C21 1754   5.490   5.832   5.419  0.2103  0.4706  0.8186
   24CHL1  H21A 1755   5.513   5.769   5.507  4.2029  0.5008 -0.0148
   24CHL1  H21B 1756   5.543   5.926   5.446 -2.1403  2.2242 -0.2434
   24CHL1  H21C 1757   5.529   5.789   5.324 -0.0063  0.0952  0.8983
   24CHL1   C22 1758   5.315   5.942   5.280  0.4467 -0.7791 -0.4678
   24CHL1  H22A 1759   5.349   5.874   5.199  0.9904 -0.7080 -0.3031
   24CHL1  H22B 1760   5.209   5.972   5.264  0.3686 -0.5628  0.4211
   24CHL1   C23 1761   5.404   6.066   5.258 -0.6593 -0.2378  0.5757
   24CHL1  H23A 1762   5.418   6.097   5.363 -0.4456 -1.6541  0.9877
   24CHL1  H23B 1763   5.503   6.031   5.221 -0.8959 -0.0036 -0.3016
   24CHL1   C24 1764   5.351   6.169   5.157  0.7787 -0.6238  0.3092
   24CHL1  H24A 1765   5.251   6.209   5.185  0.1105  1.2152 -3.8779
   24CHL1  H24B 1766   5.415   6.259   5.171 -1.4973  0.7215  3.1246
   24CHL1   C25 1767   5.354   6.130   5.007 -0.2802  0.0429  0.5742
   24CHL1   H25 1768   5.454   6.084   4.989 -1.1019 -2.0166  0.9318
   24CHL1   C26 1769   5.241   6.047   4.958  0.4201  0.1446  0.2043
   24CHL1  H26A 1770   5.234   5.965   5.033  1.3567  0.8031  1.0331
   24CHL1  H26B 1771   5.150   6.109   4.949 -0.4498 -1.2621 -1.2002
   24CHL1  H26C 1772   5.244   6.013   4.853  1.0095 -0.3229  0.3656
   24CHL1   C27 1773   5.355   6.263   4.920  0.2144 -0.5525  0.3109
   24CHL1  H27A 1774   5.373   6.239   4.813  0.0253  2.8750 -0.5960
   24CHL1  H27B 1775   5.256   6.312   4.924 -0.9755 -2.6022 -1.6465
   24CHL1  H27C 1776   5.430   6.333   4.962 -0.7646  2.1038 -2.0272
   25CHL1    C3 1777   4.986   4.219   6.389  0.0845  0.2254 -0.5666
   25CHL1    H3 1778   4.938   4.312   6.352  0.5959 -0.4060 -2.9928
   25CHL1    O3 1779   5.009   4.231   6.529 -0.0155 -0.1918  0.8292
   25CHL1   H3' 1780   4.947   4.300   6.554 -0.5694 -0.3979  0.0545
   25CHL1    C4 1781   4.891   4.088   6.359  0.4641  1.0595  0.0785
   25CHL1   H4A 1782   4.949   4.000   6.395 -1.1557 -0.3474 -0.6321
   25CHL1   H4B 1783   4.802   4.106   6.424  0.1625  1.9264 -0.5504
   25CHL1    C5 1784   4.862   4.076   6.215 -0.8114 -0.6455  0.4482
   25CHL1    C6 1785   4.734   4.072   6.172 -0.7787  0.1031  1.0312
   25CHL1    H6 1786   4.652   4.055   6.244 -1.1086 -0.5269  0.5165
   25CHL1    C7 1787   4.699   4.072   6.023  0.1842 -0.3365 -0.1889
   25CHL1   H7A 1788   4.618   3.997   6.010 -1.0736  0.3729  2.6852
   25CHL1   H7B 1789   4.658   4.169   5.988  0.3157 -0.2088  0.0073
   25CHL1    C8 1790   4.824   4.026   5.938 -0.4453  0.0553 -0.1379
   25CHL1    H8 1791   4.845   3.919   5.956  1.3214  0.0347 -1.9777
   25CHL1   C14 1792   4.783   4.057   5.794  0.5354  0.4206 -0.0446
   25CHL1   H14 1793   4.762   4.166   5.795  1.2673  0.5671  0.2255
   25CHL1   C15 1794   4.662   3.975   5.742 -0.4039 -0.3679  0.1367
   25CHL1  H15A 1795   4.688   3.873   5.777 -0.0300 -0.3162  0.0197
   25CHL1  H15B 1796   4.565   4.006   5.787 -1.1733 -0.5055 -1.3480
   25CHL1   C16 1797   4.676   3.984   5.590 -0.1580 -0.7649  0.8041
   25CHL1  H16A 1798   4.686   3.877   5.563 -2.5606 -0.6569 -0.7234
   25CHL1  H16B 1799   4.595   4.050   5.552 -1.4554 -1.8432  1.6083
   25CHL1   C17 1800   4.818   4.054   5.571 -0.0661  0.4248  0.0984
   25CHL1   H17 1801   4.792   4.162   5.570 -0.3809  0.3455 -1.0381
   25CHL1   C13 1802   4.899   4.028   5.700 -0.1449  0.3384  0.7148
   25CHL1   C18 1803   4.942   3.876   5.703  0.0914  0.3008 -0.2932
   25CHL1  H18A 1804   5.027   3.855   5.635 -0.3107 -1.5021 -0.2870
   25CHL1  H18B 1805   4.974   3.841   5.804 -0.5978 -1.6697 -0.7186
   25CHL1  H18C 1806   4.861   3.812   5.663 -0.6197  2.4550 -2.5541
   25CHL1   C12 1807   5.020   4.120   5.732  0.3749  0.4484  0.2688
   25CHL1  H12A 1808   5.097   4.117   5.652  0.6379  1.0445  0.4896
   25CHL1  H12B 1809   4.990   4.226   5.717 -1.3382  0.0588  0.6954
   25CHL1   C11 1810   5.070   4.095   5.879 -0.1329  0.9402 -0.9063
   25CHL1  H11A 1811   5.119   3.996   5.872  0.9426  1.3094  0.7249
   25CHL1  H11B 1812   5.145   4.173   5.904  0.5198 -0.1999  0.8867
   25CHL1    C9 1813   4.953   4.103   5.982 -0.0591 -0.3543  0.4093
   25CHL1    H9 1814   4.915   4.207   5.974  1.7796  0.3312  0.2283
   25CHL1   C10 1815   4.987   4.077   6.127 -0.6054  0.2089 -0.0141
   25CHL1   C19 1816   5.043   3.935   6.141 -1.0343 -0.3333 -0.0287
   25CHL1  H19A 1817   5.079   3.913   6.244 -0.9025 -0.2041 -0.0475
   25CHL1  H19B 1818   4.961   3.864   6.113 -1.3210 -0.1450  0.3206
   25CHL1  H19C 1819   5.126   3.915   6.071 -1.4560  0.0312 -0.6402
   25CHL1    C1 1820   5.087   4.188   6.169 -0.9687 -0.7273 -0.1113
   25CHL1   H1A 1821   5.185   4.172   6.120  0.6389  0.1760  2.5812
   25CHL1   H1B 1822   5.047   4.283   6.130 -0.2251 -0.2454  0.2749
   25CHL1    C2 1823   5.116   4.200   6.325  0.1822 -0.5201 -0.1363
   25CHL1   H2A 1824   5.174   4.293   6.346  0.3001 -1.1778  2.8117
   25CHL1   H2B 1825   5.170   4.108   6.356 -0.2750 -1.0419 -0.8626
   25CHL1   C20 1826   4.883   4.021   5.436  0.1310 -0.0628 -0.0757
   25CHL1   H20 1827   4.883   3.910   5.444 -0.4723 -0.0325  0.4954
   25CHL1   C21 1828   5.021   4.086   5.405  0.5271 -0.0025 -0.2443
   25CHL1  H21A 1829   5.099   4.034   5.465  1.3488 -0.4870 -1.6617
   25CHL1  H21B 1830   5.017   4.197   5.408 -0.7515 -0.0503 -0.0158
   25CHL1  H21C 1831   5.047   4.063   5.299 -0.7268 -0.6555 -0.4280
   25CHL1   C22 1832   4.787   4.046   5.320 -0.6410  0.6567  0.2395
   25CHL1  H22A 1833   4.821   4.005   5.222 -1.4390 -2.2078  1.0633
   25CHL1  H22B 1834   4.690   3.998   5.344  0.7242 -2.0825  0.7713
   25CHL1   C23 1835   4.738   4.191   5.307  0.4543 -0.0183 -1.4557
   25CHL1  H23A 1836   4.667   4.207   5.391 -0.6861 -0.2115 -2.3554
   25CHL1  H23B 1837   4.821   4.263   5.327 -0.3320  0.6733 -0.6144
   25CHL1   C24 1838   4.669   4.224   5.182 -0.8589 -0.2218 -0.1048
   25CHL1  H24A 1839   4.625   4.129   5.145  0.3100 -0.8254 -0.0235
   25CHL1  H24B 1840   4.584   4.286   5.215 -1.5694  0.1917 -2.5238
   25CHL1   C25 1841   4.760   4.298   5.084  0.4060  0.6974 -0.9330
   25CHL1   H25 1842   4.784   4.393   5.135  0.3500  0.4526 -0.4347
   25CHL1   C26 1843   4.884   4.224   5.052 -0.2483  0.1255 -0.4655
   25CHL1  H26A 1844   4.956   4.216   5.136  0.8093 -0.5877 -1.4005
   25CHL1  H26B 1845   4.857   4.122   5.016 -0.9324  0.1705 -0.0762
   25CHL1  H26C 1846   4.946   4.267   4.970  1.1622  0.2961  0.6346
   25CHL1   C27 1847   4.685   4.325   4.952 -0.0801 -0.2074 -0.1437
   25CHL1  H27A 1848   4.754   4.377   4.883 -0.3991 -0.8030 -0.9176
   25CHL1  H27B 1849   4.662   4.226   4.908  1.6928 -1.7831  2.2331
   25CHL1  H27C 1850   4.588   4.376   4.971  0.0026 -0.1503  0.1397
   26CHL1    C3 1851   1.288   3.154   6.582  0.0568  0.5434 -0.3177
   26CHL1    H3 1852   1.285   3.263   6.601 -1.1822  0.2746  1.2142
   26CHL1    O3 1853   1.329   3.091   6.700 -0.3821  0.0983  0.7442
   26CHL1   H3' 1854   1.319   2.999   6.675  0.6817 -0.0025  0.6444
   26CHL1    C4 1855   1.161   3.085   6.524 -0.2852 -0.1856 -0.8568
   26CHL1   H4A 1856   1.196   2.980   6.509 -0.8352 -0.7178  1.1535
   26CHL1   H4B 1857   1.081   3.086   6.601  1.4662  0.3491  1.0661
   26CHL1    C5 1858   1.132   3.139   6.392  0.5474  0.6994 -0.3098
   26CHL1    C6 1859   1.012   3.184   6.362  0.6510  0.0453  0.9457
   26CHL1    H6 1860   0.935   3.183   6.441  0.9236 -0.1982  1.2107
   26CHL1    C7 1861   0.968   3.228   6.227 -0.3126  0.0935  0.7162
   26CHL1   H7A 1862   0.871   3.177   6.210 -0.3509  0.5905 -0.7673
   26CHL1   H7B 1863   0.972   3.339   6.226  0.1038  0.0944  1.8290
   26CHL1    C8 1864   1.062   3.182   6.119 -0.4844  0.1908 -0.2017
   26CHL1    H8 1865   1.044   3.073   6.102  1.2623  0.1549 -2.2188
   26CHL1   C14 1866   1.035   3.260   5.990 -0.0223  0.0208  0.2373
   26CHL1   H14 1867   1.077   3.362   6.005  0.3809  0.0536 -0.9765
   26CHL1   C15 1868   0.888   3.285   5.950  0.1153 -0.1662 -0.0970
   26CHL1  H15A 1869   0.831   3.192   5.972 -0.6098  0.7140  1.9203
   26CHL1  H15B 1870   0.851   3.365   6.017  2.3877  0.9123 -0.0200
   26CHL1   C16 1871   0.890   3.317   5.801  0.3380  0.1233  0.1043
   26CHL1  H16A 1872   0.826   3.248   5.742 -0.9540 -1.9354  3.5990
   26CHL1  H16B 1873   0.857   3.422   5.788  1.2237  0.3044 -0.8689
   26CHL1   C17 1874   1.043   3.292   5.751  0.4859 -0.1894  0.4612
   26CHL1   H17 1875   1.094   3.390   5.765 -0.1502 -0.1020  2.3936
   26CHL1   C13 1876   1.102   3.202   5.859 -1.1806  0.1969 -0.2928
   26CHL1   C18 1877   1.061   3.056   5.833 -0.1485  0.3519 -0.1429
   26CHL1  H18A 1878   1.081   3.002   5.928  2.9953 -0.3268 -1.0491
   26CHL1  H18B 1879   0.955   3.047   5.802 -0.3625 -0.3543  0.7676
   26CHL1  H18C 1880   1.130   3.007   5.760 -1.9502 -3.3999  0.4767
   26CHL1   C12 1881   1.252   3.232   5.885 -0.7340  0.1056 -0.3034
   26CHL1  H12A 1882   1.313   3.197   5.799 -1.3812  0.5053 -0.9360
   26CHL1  H12B 1883   1.272   3.338   5.912 -0.8626 -0.6138  3.1854
   26CHL1   C11 1884   1.293   3.171   6.027 -0.4471  0.3715  0.0773
   26CHL1  H11A 1885   1.273   3.064   6.004 -3.1661  0.7734  0.1791
   26CHL1  H11B 1886   1.403   3.184   6.037 -0.3623  0.5414 -0.9010
   26CHL1    C9 1887   1.213   3.204   6.154 -0.1508  0.2025 -0.8377
   26CHL1    H9 1888   1.218   3.314   6.166  0.5518  0.1045 -0.1714
   26CHL1   C10 1889   1.243   3.125   6.289 -0.1121  0.5398  0.3049
   26CHL1   C19 1890   1.276   2.981   6.250 -0.4353 -0.0668  0.3910
   26CHL1  H19A 1891   1.363   2.972   6.181 -1.5146 -2.2957 -0.8195
   26CHL1  H19B 1892   1.298   2.913   6.335 -1.4071 -1.5087 -0.4610
   26CHL1  H19C 1893   1.183   2.938   6.206 -1.0500 -0.8834  2.3651
   26CHL1    C1 1894   1.366   3.193   6.354  0.2613 -1.3714 -0.5960
   26CHL1   H1A 1895   1.466   3.190   6.306  1.1117  1.2485  0.8187
   26CHL1   H1B 1896   1.338   3.299   6.374  2.3424 -0.5520 -1.7687
   26CHL1    C2 1897   1.407   3.128   6.486 -0.3167  0.4920  0.0235
   26CHL1   H2A 1898   1.494   3.178   6.535 -0.4453  0.5685  0.1751
   26CHL1   H2B 1899   1.422   3.018   6.485  0.1571  0.5319  1.1040
   26CHL1   C20 1900   1.044   3.243   5.608 -0.4814  0.3312 -0.1362
   26CHL1   H20 1901   0.995   3.143   5.603 -1.2826  0.7587 -1.4735
   26CHL1   C21 1902   1.192   3.245   5.561  0.0424  0.0810 -0.4365
   26CHL1  H21A 1903   1.236   3.341   5.595 -2.6438  1.3841 -0.4175
   26CHL1  H21B 1904   1.206   3.240   5.451  0.4253 -0.4512 -0.3667
   26CHL1  H21C 1905   1.252   3.165   5.611 -0.0499 -0.8010 -1.7086
   26CHL1   C22 1906   0.956   3.328   5.509  0.1251 -0.3888 -0.0728
   26CHL1  H22A 1907   0.852   3.334   5.548  0.2615  2.0576  0.0463
   26CHL1  H22B 1908   0.994   3.432   5.511  2.4026 -1.1653 -0.4646
   26CHL1   C23 1909   0.946   3.280   5.366 -0.1457  0.5252 -0.5977
   26CHL1  H23A 1910   1.036   3.221   5.337  0.3963  0.2384  1.4851
   26CHL1  H23B 1911   0.858   3.211   5.369  0.4560 -0.2857 -1.1096
   26CHL1   C24 1912   0.942   3.394   5.272  0.3876  0.0512 -0.1835
   26CHL1  H24A 1913   0.847   3.443   5.301  0.5212 -1.1486  2.5718
   26CHL1  H24B 1914   1.027   3.464   5.282  0.1009  0.5509 -1.0836
   26CHL1   C25 1915   0.931   3.352   5.123  0.7148 -0.0834  0.8706
   26CHL1   H25 1916   0.863   3.264   5.111  1.8401 -1.1227  1.7898
   26CHL1   C26 1917   0.864   3.468   5.044 -0.2627  0.0498  0.2208
   26CHL1  H26A 1918   0.761   3.474   5.084 -0.3488  0.0994 -0.0091
   26CHL1  H26B 1919   0.919   3.563   5.062  0.4158 -0.8311  3.3862
   26CHL1  H26C 1920   0.860   3.450   4.934 -1.4036  1.3074  0.0235
   26CHL1   C27 1921   1.074   3.316   5.078 -0.1068  0.5219  0.3411
   26CHL1  H27A 1922   1.140   3.392   5.124 -1.6230  1.6766  0.6525
   26CHL1  H27B 1923   1.098   3.215   5.120  0.0941  0.2600 -0.3840
   26CHL1  H27C 1924   1.085   3.321   4.967 -0.4017  0.3209  0.3026
   27CHL1    C3 1925   6.378   4.967   6.355  0.5316 -0.0813 -0.9202
   27CHL1    H3 1926   6.286   5.021   6.326 -0.3546  0.2935  2.2273
   27CHL1    O3 1927   6.371   4.948   6.495 -0.5994  0.6159 -0.0947
   27CHL1   H3' 1928   6.280   4.922   6.514 -1.1577  0.6265 -2.4965
   27CHL1    C4 1929   6.376   4.832   6.282 -0.3978  0.0446 -0.8396
   27CHL1   H4A 1930   6.466   4.774   6.312 -0.2436  0.8317  0.3078
   27CHL1   H4B 1931   6.287   4.783   6.327  0.3394 -0.7726 -0.2436
   27CHL1    C5 1932   6.376   4.849   6.135 -0.9121  0.5646  0.4887
   27CHL1    C6 1933   6.296   4.788   6.050 -0.2805  0.8567 -0.7840
   27CHL1    H6 1934   6.225   4.719   6.099 -1.5022 -0.1877 -3.7704
   27CHL1    C7 1935   6.309   4.808   5.903  0.3524 -0.3487 -0.2609
   27CHL1   H7A 1936   6.278   4.716   5.848 -3.6356  0.9310 -0.4573
   27CHL1   H7B 1937   6.236   4.878   5.859  2.0970 -0.1912 -3.1877
   27CHL1    C8 1938   6.442   4.871   5.848  0.0305 -0.0677 -0.0340
   27CHL1    H8 1939   6.514   4.787   5.862 -0.6016 -0.5460  0.4254
   27CHL1   C14 1940   6.432   4.908   5.699  0.4938  0.6244 -0.4463
   27CHL1   H14 1941   6.345   4.977   5.687 -0.7407 -0.7301  0.3545
   27CHL1   C15 1942   6.393   4.789   5.603  0.0429 -0.2691 -0.7046
   27CHL1  H15A 1943   6.451   4.699   5.634 -0.9657 -0.0666  2.1006
   27CHL1  H15B 1944   6.284   4.770   5.613  0.4142 -1.9914  0.4512
   27CHL1   C16 1945   6.437   4.855   5.467  0.0579  0.6149 -0.3364
   27CHL1  H16A 1946   6.500   4.788   5.405  0.1282  1.4702 -1.2203
   27CHL1  H16B 1947   6.345   4.863   5.405  0.2450 -1.3059 -0.9084
   27CHL1   C17 1948   6.508   4.992   5.492  0.3457 -0.0793  1.3502
   27CHL1   H17 1949   6.431   5.072   5.481  0.0641 -0.6855 -1.9302
   27CHL1   C13 1950   6.551   4.980   5.641 -0.4818 -0.0405 -1.0593
   27CHL1   C18 1951   6.674   4.890   5.652  0.2985 -0.5224 -1.0247
   27CHL1  H18A 1952   6.683   4.808   5.577 -0.5309  0.0849 -1.8070
   27CHL1  H18B 1953   6.762   4.954   5.629  1.0377 -1.0332  0.2736
   27CHL1  H18C 1954   6.684   4.849   5.755 -1.1144  0.8730 -0.2856
   27CHL1   C12 1955   6.567   5.111   5.730  1.0104  0.5615  0.7225
   27CHL1  H12A 1956   6.658   5.159   5.687  1.9449 -1.1835  0.6772
   27CHL1  H12B 1957   6.477   5.176   5.724  1.0711  0.7833  1.8630
   27CHL1   C11 1958   6.589   5.084   5.875  0.5180 -1.1843 -0.0801
   27CHL1  H11A 1959   6.693   5.045   5.876  0.8253 -0.3804 -0.0309
   27CHL1  H11B 1960   6.593   5.180   5.931 -0.7382 -1.2652  0.1797
   27CHL1    C9 1961   6.479   4.994   5.936  0.4265 -1.3210  0.1570
   27CHL1    H9 1962   6.385   5.053   5.928  0.3369 -1.4982 -0.1515
   27CHL1   C10 1963   6.490   4.948   6.086  0.2071 -0.1399  0.1955
   27CHL1   C19 1964   6.622   4.869   6.112 -0.4546  0.3032 -0.1905
   27CHL1  H19A 1965   6.638   4.834   6.216  1.3586  2.0796  0.2054
   27CHL1  H19B 1966   6.619   4.776   6.051  1.2003 -0.7403  1.2408
   27CHL1  H19C 1967   6.704   4.937   6.081  0.2628 -0.1617  0.6542
   27CHL1    C1 1968   6.496   5.077   6.173  0.4735 -0.1397 -0.0756
   27CHL1   H1A 1969   6.584   5.132   6.136  1.2355 -1.3198 -0.0856
   27CHL1   H1B 1970   6.406   5.140   6.155  0.7466  0.6627  1.2715
   27CHL1    C2 1971   6.494   5.051   6.330  0.2899 -0.0418  0.6052
   27CHL1   H2A 1972   6.494   5.147   6.387 -0.8746  0.2331  0.1685
   27CHL1   H2B 1973   6.590   4.998   6.346 -0.2817 -1.2520  0.0790
   27CHL1   C20 1974   6.612   5.025   5.376  0.1456  0.6257 -0.5549
   27CHL1   H20 1975   6.680   4.938   5.363 -0.1159  0.3835 -0.3035
   27CHL1   C21 1976   6.695   5.154   5.399  0.5172  0.0715  0.1882
   27CHL1  H21A 1977   6.748   5.153   5.496  1.0049  1.4015 -0.0406
   27CHL1  H21B 1978   6.625   5.241   5.393 -1.6187 -1.6104 -0.7293
   27CHL1  H21C 1979   6.770   5.171   5.319  0.4578  1.1617  0.3546
   27CHL1   C22 1980   6.535   5.049   5.248  0.0524  0.4574 -0.5726
   27CHL1  H22A 1981   6.451   4.977   5.250  1.3641 -1.1316 -0.7118
   27CHL1  H22B 1982   6.494   5.152   5.258 -0.6749  0.1944 -0.7658
   27CHL1   C23 1983   6.617   5.021   5.118  0.4255  0.1325  0.0436
   27CHL1  H23A 1984   6.706   5.087   5.131 -0.8414  1.7988  0.6079
   27CHL1  H23B 1985   6.643   4.914   5.125  1.9888  0.3231 -1.8647
   27CHL1   C24 1986   6.530   5.048   4.990  0.2007  0.2140 -0.0973
   27CHL1  H24A 1987   6.435   4.991   4.985  1.8514 -2.8511  0.7919
   27CHL1  H24B 1988   6.491   5.152   4.984 -0.9102 -0.2023 -0.2729
   27CHL1   C25 1989   6.601   5.020   4.862 -0.0244 -0.0169  0.5306
   27CHL1   H25 1990   6.642   4.916   4.863  1.9101  0.7172  1.3642
   27CHL1   C26 1991   6.514   5.028   4.731 -1.3178  0.1094  0.1357
   27CHL1  H26A 1992   6.419   4.975   4.751 -2.3263  0.7793 -2.5059
   27CHL1  H26B 1993   6.499   5.132   4.694 -1.4688  0.2892  0.6949
   27CHL1  H26C 1994   6.562   4.975   4.646  1.5775  0.2122  1.5533
   27CHL1   C27 1995   6.712   5.125   4.842  0.4830  0.3452 -0.3379
   27CHL1  H27A 1996   6.757   5.108   4.742 -1.6328  0.1585 -1.3228
   27CHL1  H27B 1997   6.658   5.222   4.847 -1.2377 -0.5790 -0.2308
   27CHL1  H27C 1998   6.791   5.109   4.918  0.3481  0.5658 -0.1513
   28CHL1    C3 1999   5.254   6.508   6.497  0.5610 -0.0966 -0.0057
   28CHL1    H3 2000   5.168   6.555   6.445  0.7726  0.0624 -0.2123
   28CHL1    O3 2001   5.220   6.486   6.630  0.5665 -0.0399  0.3504
   28CHL1   H3' 2002   5.290   6.438   6.676 -2.5416 -2.3075  3.2199
   28CHL1    C4 2003   5.290   6.375   6.422  1.0662  0.2108  0.0706
   28CHL1   H4A 2004   5.370   6.322   6.480 -0.8627 -0.1759  2.5605
   28CHL1   H4B 2005   5.198   6.314   6.431  1.4478 -0.3985 -0.0502
   28CHL1    C5 2006   5.329   6.397   6.277 -0.0437 -0.4386  0.2727
   28CHL1    C6 2007   5.271   6.315   6.182  0.1338 -0.1974  0.1745
   28CHL1    H6 2008   5.205   6.236   6.221 -0.6000  1.2881  2.1059
   28CHL1    C7 2009   5.300   6.324   6.034 -0.4146 -0.0891  0.6738
   28CHL1   H7A 2010   5.330   6.220   6.010 -1.8690 -0.1230 -1.1992
   28CHL1   H7B 2011   5.215   6.356   5.970 -0.9262  1.6852  2.1513
   28CHL1    C8 2012   5.420   6.418   6.001 -0.2072 -0.3942 -0.2216
   28CHL1    H8 2013   5.506   6.354   6.030 -0.1965 -0.4296 -0.3305
   28CHL1   C14 2014   5.424   6.458   5.855 -0.0932 -0.4665 -0.3505
   28CHL1   H14 2015   5.351   6.539   5.839 -0.6476 -0.9957 -0.5393
   28CHL1   C15 2016   5.393   6.358   5.749  0.0308  0.4123  0.0438
   28CHL1  H15A 2017   5.431   6.258   5.779  0.0113  0.7590  1.2759
   28CHL1  H15B 2018   5.283   6.345   5.740  0.4702 -2.6712 -2.4404
   28CHL1   C16 2019   5.460   6.406   5.624 -0.5021 -0.1585  0.4245
   28CHL1  H16A 2020   5.546   6.339   5.600  0.1628  1.5551 -2.4034
   28CHL1  H16B 2021   5.393   6.428   5.538  1.1885 -1.2341 -1.2499
   28CHL1   C17 2022   5.532   6.538   5.663 -0.0215 -0.1598  0.3011
   28CHL1   H17 2023   5.465   6.626   5.650 -0.8482 -0.7814  0.3053
   28CHL1   C13 2024   5.558   6.523   5.813  0.2181  0.1827 -0.2140
   28CHL1   C18 2025   5.679   6.422   5.836 -0.1976 -0.1441  0.6067
   28CHL1  H18A 2026   5.665   6.329   5.777  0.1385  1.4604 -2.1400
   28CHL1  H18B 2027   5.774   6.475   5.812 -0.1610 -0.2244  0.5748
   28CHL1  H18C 2028   5.701   6.401   5.943  0.1316  1.7984  0.9491
   28CHL1   C12 2029   5.565   6.657   5.895  0.5428 -0.5392 -0.2882
   28CHL1  H12A 2030   5.662   6.707   5.879 -0.1170  1.2729  1.0328
   28CHL1  H12B 2031   5.481   6.724   5.867  0.4339  0.1368  1.5514
   28CHL1   C11 2032   5.561   6.627   6.044 -0.4219  0.0572 -0.6882
   28CHL1  H11A 2033   5.656   6.574   6.068 -0.0628  1.5872  1.5217
   28CHL1  H11B 2034   5.551   6.722   6.101 -3.7288 -2.2032  2.9598
   28CHL1    C9 2035   5.440   6.543   6.096  0.3291 -0.4527 -0.6656
   28CHL1    H9 2036   5.348   6.599   6.067  1.1412  1.6031  0.5545
   28CHL1   C10 2037   5.434   6.507   6.246 -0.9361  0.3985  0.4472
   28CHL1   C19 2038   5.572   6.458   6.295 -0.4788 -0.2600  0.1674
   28CHL1  H19A 2039   5.644   6.537   6.264 -0.3577 -0.3830  0.1375
   28CHL1  H19B 2040   5.577   6.444   6.405  0.0331 -0.4175  0.1266
   28CHL1  H19C 2041   5.596   6.364   6.241  1.0885  1.0610 -1.5741
   28CHL1    C1 2042   5.399   6.638   6.332 -0.4804  0.1333 -0.2624
   28CHL1   H1A 2043   5.480   6.710   6.306 -0.5248 -0.8442 -3.6090
   28CHL1   H1B 2044   5.310   6.688   6.289 -0.1849 -0.8238 -2.0924
   28CHL1    C2 2045   5.364   6.612   6.482 -0.4648  0.0242 -0.3904
   28CHL1   H2A 2046   5.340   6.703   6.540  2.1351  0.1870  0.5747
   28CHL1   H2B 2047   5.455   6.580   6.536  0.1146  2.4905  0.2091
   28CHL1   C20 2048   5.652   6.561   5.574 -0.3929 -0.4103  0.8452
   28CHL1   H20 2049   5.737   6.493   5.598  0.3506 -0.4199 -1.5161
   28CHL1   C21 2050   5.696   6.712   5.593  0.1260 -0.1816 -0.1163
   28CHL1  H21A 2051   5.762   6.742   5.508 -0.2066 -0.2247 -0.3883
   28CHL1  H21B 2052   5.753   6.717   5.689  0.5691  0.9221 -0.4201
   28CHL1  H21C 2053   5.613   6.785   5.605 -1.3028 -1.2003 -2.9850
   28CHL1   C22 2054   5.624   6.539   5.420 -0.3493  0.3803 -0.3342
   28CHL1  H22A 2055   5.714   6.573   5.363 -0.3791 -0.4489 -0.8862
   28CHL1  H22B 2056   5.610   6.435   5.385 -2.1079  0.4863  0.0043
   28CHL1   C23 2057   5.509   6.620   5.356  0.5839 -0.1118  0.0031
   28CHL1  H23A 2058   5.424   6.611   5.427 -0.0909  1.2188 -0.5963
   28CHL1  H23B 2059   5.528   6.729   5.353  0.5052 -0.0881  0.4046
   28CHL1   C24 2060   5.471   6.565   5.225 -0.1836 -0.0044  0.3288
   28CHL1  H24A 2061   5.553   6.601   5.160 -0.6369 -0.1968 -0.3568
   28CHL1  H24B 2062   5.478   6.454   5.232 -1.5144 -0.1165  0.2031
   28CHL1   C25 2063   5.348   6.620   5.161 -0.0787 -0.1270 -0.5377
   28CHL1   H25 2064   5.340   6.729   5.179  0.3900 -0.2669  0.6122
   28CHL1   C26 2065   5.364   6.618   5.011  0.6500 -0.1942  0.3094
   28CHL1  H26A 2066   5.278   6.676   4.971  0.7847 -0.1478  0.0821
   28CHL1  H26B 2067   5.459   6.666   4.979  0.6933  0.7041  1.7143
   28CHL1  H26C 2068   5.354   6.517   4.964  1.8575 -0.0615 -0.2589
   28CHL1   C27 2069   5.216   6.545   5.204 -0.0073 -0.4482  0.7127
   28CHL1  H27A 2070   5.225   6.451   5.147 -1.8919  0.2112 -0.7685
   28CHL1  H27B 2071   5.204   6.524   5.313 -2.5770  0.9236  0.7867
   28CHL1  H27C 2072   5.134   6.611   5.167 -0.9231 -3.4545 -3.2021
   29CHL1    C3 2073   5.264   5.717   2.847  0.3213  0.0513 -0.4970
   29CHL1    H3 2074   5.214   5.619   2.842  0.8030 -0.2978  0.9211
   29CHL1    O3 2075   5.284   5.779   2.723  0.1927  0.5772 -0.0930
   29CHL1   H3' 2076   5.333   5.859   2.746 -0.9391  0.7646  1.9227
   29CHL1    C4 2077   5.171   5.806   2.941 -0.1951  0.3419 -0.3260
   29CHL1   H4A 2078   5.208   5.911   2.947 -0.4211  0.4813 -1.2939
   29CHL1   H4B 2079   5.073   5.814   2.889  0.2138  0.8823 -1.0358
   29CHL1    C5 2080   5.157   5.742   3.074 -0.2378 -0.5509 -0.1419
   29CHL1    C6 2081   5.044   5.707   3.124  0.7681  0.3102 -0.2729
   29CHL1    H6 2082   4.950   5.720   3.068  0.1067 -0.6913  0.5603
   29CHL1    C7 2083   5.024   5.659   3.269 -0.0483  0.0148  0.2309
   29CHL1   H7A 2084   4.931   5.704   3.310 -0.7782 -1.9376  0.8054
   29CHL1   H7B 2085   5.008   5.549   3.270  0.0231 -0.0523 -1.5016
   29CHL1    C8 2086   5.150   5.694   3.350 -0.1335  0.0319 -0.4959
   29CHL1    H8 2087   5.148   5.803   3.369 -0.3917  0.0749 -0.7624
   29CHL1   C14 2088   5.141   5.633   3.490  0.0722  0.4599 -0.3491
   29CHL1   H14 2089   5.142   5.522   3.485 -0.2677  0.4514 -0.2122
   29CHL1   C15 2090   5.015   5.665   3.573  0.0357  0.1549  0.3835
   29CHL1  H15A 2091   4.987   5.769   3.546 -0.4926 -0.2231 -0.5543
   29CHL1  H15B 2092   4.933   5.593   3.552 -0.4926  1.1558 -1.0850
   29CHL1   C16 2093   5.064   5.652   3.720  0.0450 -0.2778 -0.3047
   29CHL1  H16A 2094   5.058   5.747   3.778 -0.2939 -0.4960  0.0274
   29CHL1  H16B 2095   5.004   5.580   3.780  2.2565 -2.2848 -0.3669
   29CHL1   C17 2096   5.208   5.596   3.710 -0.5768 -0.0788 -0.0239
   29CHL1   H17 2097   5.201   5.487   3.689  2.7027 -0.1053 -1.7681
   29CHL1   C13 2098   5.265   5.660   3.577  0.0334 -0.1555  1.0398
   29CHL1   C18 2099   5.294   5.806   3.600  0.6083  0.0323  0.2723
   29CHL1  H18A 2100   5.208   5.853   3.651 -0.4245 -0.7583 -0.6731
   29CHL1  H18B 2101   5.380   5.834   3.665  1.3092  3.1467 -1.7959
   29CHL1  H18C 2102   5.313   5.855   3.502 -2.5254  2.4293  0.7011
   29CHL1   C12 2103   5.388   5.584   3.515  0.5640  0.3694 -0.6639
   29CHL1  H12A 2104   5.482   5.609   3.568  1.0390 -0.5394 -1.0622
   29CHL1  H12B 2105   5.367   5.475   3.505  2.4368 -0.0300 -0.5133
   29CHL1   C11 2106   5.405   5.627   3.371  0.2914 -0.5232 -0.1147
   29CHL1  H11A 2107   5.450   5.728   3.370 -0.6406 -0.0449  1.8329
   29CHL1  H11B 2108   5.472   5.555   3.319  0.9236  0.7531 -1.1229
   29CHL1    C9 2109   5.279   5.649   3.277  0.5528 -0.4942 -0.1076
   29CHL1    H9 2110   5.260   5.551   3.228  1.0106  0.2278 -1.8084
   29CHL1   C10 2111   5.295   5.737   3.148 -0.2463  0.6104 -0.0792
   29CHL1   C19 2112   5.346   5.876   3.177 -0.5936  0.1664  0.1189
   29CHL1  H19A 2113   5.275   5.922   3.250 -0.0972 -0.1713  0.8307
   29CHL1  H19B 2114   5.446   5.871   3.224  0.2726 -1.6512 -1.7663
   29CHL1  H19C 2115   5.358   5.942   3.089 -0.0171 -1.1842 -0.8522
   29CHL1    C1 2116   5.385   5.647   3.051 -0.5985  0.1500  0.6166
   29CHL1   H1A 2117   5.486   5.638   3.095  0.0060 -0.6794 -0.8483
   29CHL1   H1B 2118   5.357   5.539   3.042  0.4828 -0.1524  0.7679
   29CHL1    C2 2119   5.405   5.705   2.908  0.4322  0.5379 -0.6757
   29CHL1   H2A 2120   5.470   5.631   2.856  0.2672 -0.3945  0.4010
   29CHL1   H2B 2121   5.455   5.803   2.918  1.0093  0.0875  1.6722
   29CHL1   C20 2122   5.296   5.607   3.839 -0.4195  0.0839 -0.6304
   29CHL1   H20 2123   5.343   5.707   3.842 -1.4431  0.5497  0.1358
   29CHL1   C21 2124   5.400   5.498   3.830 -0.1769  0.0244 -0.0322
   29CHL1  H21A 2125   5.357   5.402   3.864  1.2992 -0.7301 -0.2067
   29CHL1  H21B 2126   5.488   5.535   3.888 -1.8740  2.4465  1.1805
   29CHL1  H21C 2127   5.440   5.471   3.730 -0.0865 -3.1421  0.7564
   29CHL1   C22 2128   5.225   5.583   3.977  0.0111 -0.3183  0.1149
   29CHL1  H22A 2129   5.151   5.501   3.968 -1.5625  0.9674  0.8468
   29CHL1  H22B 2130   5.296   5.558   4.059 -1.0216  0.2583  1.2202
   29CHL1   C23 2131   5.162   5.705   4.042 -0.6197  0.0371  0.0834
   29CHL1  H23A 2132   5.224   5.797   4.049  0.0478 -0.3588 -0.4744
   29CHL1  H23B 2133   5.085   5.742   3.971  2.4169  5.9880 -0.7828
   29CHL1   C24 2134   5.096   5.679   4.179 -0.1311 -0.4976  1.3146
   29CHL1  H24A 2135   5.019   5.755   4.206 -0.3486 -0.2895  0.1344
   29CHL1  H24B 2136   5.054   5.577   4.178  0.2701 -0.7308 -2.2103
   29CHL1   C25 2137   5.192   5.677   4.303 -0.2361 -0.5801  0.5007
   29CHL1   H25 2138   5.283   5.616   4.283  0.1629 -1.1271  3.5341
   29CHL1   C26 2139   5.243   5.814   4.341 -0.4695  0.0285 -0.3588
   29CHL1  H26A 2140   5.304   5.806   4.434  0.5731  0.7142 -0.9746
   29CHL1  H26B 2141   5.309   5.852   4.260  3.3032 -1.0048  1.9595
   29CHL1  H26C 2142   5.155   5.879   4.363 -0.7111 -0.7711  1.1826
   29CHL1   C27 2143   5.128   5.604   4.419  0.0880  0.9132 -0.1709
   29CHL1  H27A 2144   5.042   5.664   4.455 -0.6048 -0.7877  1.1960
   29CHL1  H27B 2145   5.098   5.500   4.394 -0.5730  1.3381 -1.1957
   29CHL1  H27C 2146   5.197   5.597   4.506 -2.1105  1.9522  1.7727
   30CHL1    C3 2147   6.305   6.676   3.252 -0.0670  0.1116  0.3180
   30CHL1    H3 2148   6.224   6.611   3.215  0.2541  0.0865 -0.3525
   30CHL1    O3 2149   6.381   6.725   3.144  0.4411  0.0134  0.1430
   30CHL1   H3' 2150   6.344   6.688   3.063  0.3312  0.3096  0.0552
   30CHL1    C4 2151   6.238   6.790   3.324 -0.3876 -0.1689 -0.2646
   30CHL1   H4A 2152   6.305   6.878   3.334 -2.4808  1.4615  0.1123
   30CHL1   H4B 2153   6.152   6.830   3.266 -1.3466 -0.3689  0.9729
   30CHL1    C5 2154   6.175   6.752   3.455 -0.7089 -0.3369  0.3338
   30CHL1    C6 2155   6.045   6.766   3.484 -0.4090  0.1424 -0.1872
   30CHL1    H6 2156   5.977   6.810   3.410  0.3446  0.0194 -0.9734
   30CHL1    C7 2157   5.995   6.720   3.614  0.0146  0.5887  0.2239
   30CHL1   H7A 2158   5.898   6.769   3.635 -0.0872  0.6427 -0.3563
   30CHL1   H7B 2159   5.960   6.615   3.602 -1.1144  1.0690 -0.9353
   30CHL1    C8 2160   6.096   6.717   3.733  0.0862 -0.8631  0.5464
   30CHL1    H8 2161   6.128   6.823   3.737 -1.2038 -0.3654 -1.3283
   30CHL1   C14 2162   6.035   6.676   3.866  0.3128  0.0590  0.5215
   30CHL1   H14 2163   6.010   6.569   3.855 -2.0713  0.8167 -3.0241
   30CHL1   C15 2164   5.907   6.752   3.904 -0.4369  0.3170 -0.0161
   30CHL1  H15A 2165   5.921   6.861   3.891 -0.0502  0.3336  0.5099
   30CHL1  H15B 2166   5.815   6.712   3.855 -0.1747  1.3582 -1.4231
   30CHL1   C16 2167   5.894   6.713   4.055  0.8136  0.2295  0.8105
   30CHL1  H16A 2168   5.852   6.798   4.112 -2.2710  0.4691 -1.5154
   30CHL1  H16B 2169   5.821   6.629   4.055  0.6595  0.2824 -1.6098
   30CHL1   C17 2170   6.029   6.652   4.094 -0.6963 -0.0221  0.0007
   30CHL1   H17 2171   6.028   6.541   4.086  1.4263 -0.0011 -1.4099
   30CHL1   C13 2172   6.128   6.684   3.979  0.2676  0.3560 -0.3525
   30CHL1   C18 2173   6.184   6.830   3.995 -0.0203  0.2357  0.0290
   30CHL1  H18A 2174   6.259   6.849   3.916  1.1913  3.9353  1.8062
   30CHL1  H18B 2175   6.111   6.914   3.987 -3.3295 -2.3164  0.9473
   30CHL1  H18C 2176   6.250   6.841   4.084  1.2289  2.1015 -1.0644
   30CHL1   C12 2177   6.237   6.577   3.952  0.3605 -0.5287 -0.0452
   30CHL1  H12A 2178   6.314   6.569   4.031  1.4371 -1.3569 -1.1347
   30CHL1  H12B 2179   6.183   6.480   3.948 -0.6995  0.0697 -0.5926
   30CHL1   C11 2180   6.305   6.590   3.812  0.1210  0.4522  0.0892
   30CHL1  H11A 2181   6.371   6.677   3.829  0.3077  0.0520  1.6372
   30CHL1  H11B 2182   6.367   6.507   3.772  0.1765  1.2481 -1.5759
   30CHL1    C9 2183   6.212   6.631   3.692 -0.3661  0.7347  0.2917
   30CHL1    H9 2184   6.159   6.537   3.663  3.1576 -1.1888 -0.5196
   30CHL1   C10 2185   6.275   6.680   3.557  0.3032  0.1870 -0.0110
   30CHL1   C19 2186   6.373   6.789   3.601 -0.3833  0.0485 -0.4522
   30CHL1  H19A 2187   6.322   6.858   3.671 -1.0009 -0.5831 -0.2574
   30CHL1  H19B 2188   6.465   6.754   3.652 -0.2256 -0.8469 -1.3071
   30CHL1  H19C 2189   6.405   6.847   3.512  0.0214  0.6476  0.0782
   30CHL1    C1 2190   6.345   6.564   3.480  0.4161  0.2417 -0.1910
   30CHL1   H1A 2191   6.429   6.530   3.544 -1.0990 -0.6213  1.4394
   30CHL1   H1B 2192   6.271   6.481   3.481 -1.4632  1.8241 -0.7892
   30CHL1    C2 2193   6.402   6.590   3.341  0.0958  0.6384  0.6329
   30CHL1   H2A 2194   6.425   6.498   3.285 -0.4129 -0.0420  1.5182
   30CHL1   H2B 2195   6.493   6.652   3.358  1.6517 -1.2449 -0.4439
   30CHL1   C20 2196   6.059   6.696   4.240 -0.1159  0.0594  0.3014
   30CHL1   H20 2197   6.050   6.807   4.246  0.4323  0.0397  1.9480
   30CHL1   C21 2198   6.199   6.648   4.274  0.1064 -1.0851  0.5303
   30CHL1  H21A 2199   6.229   6.665   4.380  2.7285  0.2743 -0.3350
   30CHL1  H21B 2200   6.279   6.702   4.219  0.9682 -3.0447 -0.2131
   30CHL1  H21C 2201   6.215   6.545   4.237 -1.9370 -1.1187 -0.3838
   30CHL1   C22 2202   5.960   6.641   4.344 -0.2614  0.0635 -0.6027
   30CHL1  H22A 2203   5.853   6.667   4.331 -0.7741 -0.1884  2.2867
   30CHL1  H22B 2204   5.961   6.530   4.341 -0.9004 -0.0350  1.4047
   30CHL1   C23 2205   5.996   6.687   4.492 -0.1960  0.1273  0.2540
   30CHL1  H23A 2206   6.059   6.613   4.545  0.6296  0.8175  0.2719
   30CHL1  H23B 2207   6.059   6.778   4.481 -1.6981  1.1604 -0.1015
   30CHL1   C24 2208   5.873   6.721   4.578  0.4876 -0.4888 -0.2076
   30CHL1  H24A 2209   5.817   6.807   4.534  0.3086 -1.2403 -1.4967
   30CHL1  H24B 2210   5.804   6.634   4.579 -1.2129  0.7321 -2.3193
   30CHL1   C25 2211   5.920   6.740   4.720 -0.4123  0.0407 -0.1015
   30CHL1   H25 2212   5.966   6.647   4.760  3.1504 -0.0645 -3.8206
   30CHL1   C26 2213   6.031   6.844   4.746  0.4109  0.5314 -0.6533
   30CHL1  H26A 2214   6.131   6.812   4.707 -0.9538 -3.2709 -1.5038
   30CHL1  H26B 2215   6.002   6.942   4.702 -0.6891  2.0120  3.0254
   30CHL1  H26C 2216   6.040   6.851   4.856  0.0319  1.5489 -0.6824
   30CHL1   C27 2217   5.800   6.778   4.805  0.4790 -0.3157 -0.8799
   30CHL1  H27A 2218   5.826   6.751   4.910 -0.1807 -0.3031 -0.7083
   30CHL1  H27B 2219   5.782   6.888   4.808 -1.0966 -0.5365 -1.6747
   30CHL1  H27C 2220   5.707   6.724   4.780 -1.0224  1.5433  0.3728
   31CHL1    C3 2221   0.535   0.813   2.944 -0.1395 -0.5689  0.1340
   31CHL1    H3 2222   0.643   0.797   2.967 -0.0262  0.1647  0.1608
   31CHL1    O3 2223   0.514   0.803   2.805  0.4235 -0.5344 -0.0144
   31CHL1   H3' 2224   0.428   0.842   2.785  0.9713  1.0518  0.5686
   31CHL1    C4 2225   0.446   0.707   3.009  0.1663 -0.4908  0.8952
   31CHL1   H4A 2226   0.342   0.734   2.979  0.4188 -1.3226 -0.8781
   31CHL1   H4B 2227   0.475   0.614   2.957 -0.3633  0.7163 -1.7484
   31CHL1    C5 2228   0.477   0.712   3.157  0.2086  0.0107  0.3549
   31CHL1    C6 2229   0.530   0.608   3.225 -0.6967  0.4007  0.8485
   31CHL1    H6 2230   0.569   0.519   3.175 -0.9080  0.8204 -0.0794
   31CHL1    C7 2231   0.547   0.602   3.372  0.4310  0.2497  0.0641
   31CHL1   H7A 2232   0.520   0.505   3.419 -0.5418  1.1613  1.4629
   31CHL1   H7B 2233   0.656   0.605   3.392  0.9811 -2.7203 -1.8139
   31CHL1    C8 2234   0.465   0.706   3.451  0.3519  1.2195  0.1111
   31CHL1    H8 2235   0.359   0.674   3.443  0.4413  1.0586 -0.5413
   31CHL1   C14 2236   0.498   0.707   3.601 -0.3517 -0.8016 -0.3873
   31CHL1   H14 2237   0.608   0.724   3.599 -0.7333  2.3126 -0.4784
   31CHL1   C15 2238   0.480   0.575   3.677  0.0810  0.5572 -0.5476
   31CHL1  H15A 2239   0.381   0.525   3.665 -0.0169  0.4850  0.4335
   31CHL1  H15B 2240   0.565   0.512   3.646  0.1038  1.0329 -1.5036
   31CHL1   C16 2241   0.480   0.621   3.822  0.6801 -0.3676 -0.5989
   31CHL1  H16A 2242   0.385   0.606   3.877  1.3042  1.3551  1.0288
   31CHL1  H16B 2243   0.561   0.575   3.883  1.4544  2.1025  0.3646
   31CHL1   C17 2244   0.492   0.777   3.821  0.2696 -0.1436 -0.0092
   31CHL1   H17 2245   0.599   0.803   3.825  0.2463  0.4609 -2.2464
   31CHL1   C13 2246   0.431   0.819   3.681 -0.1649  0.8168 -0.2571
   31CHL1   C18 2247   0.272   0.808   3.679 -0.0551 -0.6605 -0.3287
   31CHL1  H18A 2248   0.229   0.814   3.576  1.4359  0.8951 -0.9057
   31CHL1  H18B 2249   0.237   0.719   3.736  1.9814 -1.2890 -0.0000
   31CHL1  H18C 2250   0.241   0.900   3.733  0.4355 -1.5719  1.5664
   31CHL1   C12 2251   0.483   0.951   3.619  0.1677  0.2297 -0.4458
   31CHL1  H12A 2252   0.438   1.034   3.676  0.6012 -0.4622  0.9553
   31CHL1  H12B 2253   0.594   0.955   3.628  0.0347  0.7446  1.1364
   31CHL1   C11 2254   0.430   0.962   3.472  0.7939 -0.0968 -0.1983
   31CHL1  H11A 2255   0.319   0.967   3.470  0.7930  0.6451  1.0708
   31CHL1  H11B 2256   0.486   1.049   3.430  2.6681 -1.0067  0.2877
   31CHL1    C9 2257   0.480   0.847   3.382  0.0672  0.7282 -0.7398
   31CHL1    H9 2258   0.591   0.852   3.388  0.2127  0.1607 -2.3147
   31CHL1   C10 2259   0.439   0.847   3.234  0.2194 -0.1052 -0.0117
   31CHL1   C19 2260   0.283   0.867   3.230 -0.1689  1.1611  0.6059
   31CHL1  H19A 2261   0.247   0.857   3.126  0.7711 -1.8914  0.4842
   31CHL1  H19B 2262   0.229   0.783   3.280  1.1923 -0.8641 -1.1878
   31CHL1  H19C 2263   0.262   0.965   3.279  1.9094  1.5244  0.8378
   31CHL1    C1 2264   0.511   0.968   3.154 -0.4105  0.4515 -0.3500
   31CHL1   H1A 2265   0.459   1.057   3.194 -2.0964  0.3990 -2.2419
   31CHL1   H1B 2266   0.617   0.967   3.186 -0.2481  0.0564 -0.8819
   31CHL1    C2 2267   0.499   0.954   2.998  0.4418 -0.9213  0.4674
   31CHL1   H2A 2268   0.556   1.032   2.942 -0.4462  0.3121  1.2469
   31CHL1   H2B 2269   0.391   0.975   2.984  0.7396 -1.1165 -3.0270
   31CHL1   C20 2270   0.421   0.838   3.945 -0.2230 -0.5955  0.0058
   31CHL1   H20 2271   0.311   0.821   3.943 -0.5195  0.9865  0.7440
   31CHL1   C21 2272   0.440   0.990   3.946 -0.0362 -0.6754  0.3418
   31CHL1  H21A 2273   0.390   1.050   3.866  0.1210 -1.4619 -0.3551
   31CHL1  H21B 2274   0.549   1.007   3.936 -0.6131  3.3157 -0.8860
   31CHL1  H21C 2275   0.413   1.043   4.040 -0.2843  2.9974 -1.6246
   31CHL1   C22 2276   0.479   0.782   4.079 -0.1795  0.0652 -0.1753
   31CHL1  H22A 2277   0.513   0.676   4.079  2.5475  0.8550 -0.2899
   31CHL1  H22B 2278   0.578   0.832   4.084 -0.4487  0.8520 -1.8776
   31CHL1   C23 2279   0.422   0.823   4.209 -0.5077 -0.8144 -0.3590
   31CHL1  H23A 2280   0.495   0.831   4.293  0.0012 -2.4643 -0.6244
   31CHL1  H23B 2281   0.373   0.922   4.195  2.4287  0.5902 -1.8206
   31CHL1   C24 2282   0.315   0.716   4.250  0.1357  0.4516 -0.6351
   31CHL1  H24A 2283   0.233   0.733   4.176  0.0023  1.7163 -0.2265
   31CHL1  H24B 2284   0.350   0.613   4.229 -1.1560  0.1603 -1.4953
   31CHL1   C25 2285   0.268   0.737   4.396  0.4971  0.0166  0.5396
   31CHL1   H25 2286   0.284   0.846   4.414 -1.5895  0.3017  0.8839
   31CHL1   C26 2287   0.121   0.703   4.423  0.9245  0.7602 -0.1775
   31CHL1  H26A 2288   0.087   0.598   4.424  1.8894  0.4296  1.7933
   31CHL1  H26B 2289   0.089   0.747   4.520  1.0204  2.2378 -0.7879
   31CHL1  H26C 2290   0.061   0.762   4.349  0.8446 -1.6641 -2.1776
   31CHL1   C27 2291   0.367   0.678   4.500  0.2351 -0.2184 -0.1122
   31CHL1  H27A 2292   0.352   0.741   4.591  0.2678  0.3606 -0.5004
   31CHL1  H27B 2293   0.344   0.571   4.521 -1.7198 -0.0996 -1.4018
   31CHL1  H27C 2294   0.468   0.673   4.454  0.1762 -2.0491 -0.0881
   32CHL1    C3 2295   1.082   0.569   3.217 -0.5198  0.2994 -0.0314
   32CHL1    H3 2296   1.080   0.679   3.237 -0.0348  0.7925 -2.4042
   32CHL1    O3 2297   1.093   0.569   3.073 -0.3537  0.5540 -0.8327
   32CHL1   H3' 2298   1.104   0.476   3.051  0.2341  0.6632 -1.0300
   32CHL1    C4 2299   1.198   0.499   3.288  0.4273  0.2975 -0.4239
   32CHL1   H4A 2300   1.197   0.388   3.287  0.5541  0.2790  0.3305
   32CHL1   H4B 2301   1.293   0.543   3.253  0.7237  0.4162  0.4852
   32CHL1    C5 2302   1.189   0.525   3.440 -0.0722  0.0542  1.1089
   32CHL1    C6 2303   1.275   0.599   3.509  0.2158  0.2327 -0.0524
   32CHL1    H6 2304   1.370   0.644   3.476  1.6685 -1.8998  0.9716
   32CHL1    C7 2305   1.265   0.623   3.661 -0.2033 -0.4838 -0.0995
   32CHL1   H7A 2306   1.360   0.596   3.711  0.7446  0.6875 -1.1890
   32CHL1   H7B 2307   1.245   0.728   3.689  0.3220 -0.2089 -0.7361
   32CHL1    C8 2308   1.152   0.538   3.730  0.9568  0.2784  0.3355
   32CHL1    H8 2309   1.182   0.432   3.744  0.7453  0.2388  0.5011
   32CHL1   C14 2310   1.097   0.605   3.857  0.2982  0.4541  0.5309
   32CHL1   H14 2311   1.052   0.700   3.821 -0.8756 -1.0152 -2.1444
   32CHL1   C15 2312   1.201   0.661   3.953 -0.1926  0.0098 -0.0801
   32CHL1  H15A 2313   1.277   0.581   3.968  2.4934  2.0116 -2.0537
   32CHL1  H15B 2314   1.252   0.757   3.929  0.5936 -0.1921  0.7140
   32CHL1   C16 2315   1.124   0.677   4.084 -0.2345  0.0169  0.3016
   32CHL1  H16A 2316   1.178   0.620   4.163  1.0776  0.3202 -0.3514
   32CHL1  H16B 2317   1.111   0.783   4.114  2.2161 -0.5074  3.8080
   32CHL1   C17 2318   0.972   0.627   4.062 -0.1840 -0.7444  0.2378
   32CHL1   H17 2319   0.915   0.720   4.041  0.5506 -0.1651  0.7359
   32CHL1   C13 2320   0.985   0.535   3.936  0.0244  0.4376  0.1577
   32CHL1   C18 2321   1.042   0.396   3.977 -0.7855 -0.2369  0.1960
   32CHL1  H18A 2322   1.132   0.407   4.041 -1.5488  2.7218  0.9335
   32CHL1  H18B 2323   0.964   0.340   4.032 -1.5157  0.2630 -0.3171
   32CHL1  H18C 2324   1.078   0.327   3.898  1.4789  0.2165  0.7549
   32CHL1   C12 2325   0.861   0.513   3.846 -0.2871  1.0328  0.1893
   32CHL1  H12A 2326   0.787   0.450   3.899 -0.1834 -0.3572 -1.2663
   32CHL1  H12B 2327   0.820   0.611   3.815 -0.3670  0.7535 -0.5905
   32CHL1   C11 2328   0.912   0.443   3.713  0.4464  0.9075  0.3192
   32CHL1  H11A 2329   0.932   0.342   3.755 -0.5794  1.2153  1.6300
   32CHL1  H11B 2330   0.820   0.428   3.653  2.2215 -1.4746 -2.0306
   32CHL1    C9 2331   1.027   0.518   3.636  0.0640 -0.1871 -0.0280
   32CHL1    H9 2332   0.987   0.622   3.626  3.8805  1.2303 -2.6656
   32CHL1   C10 2333   1.063   0.467   3.504  0.3610  0.1660  0.8094
   32CHL1   C19 2334   1.071   0.314   3.501 -0.2369  0.0846  0.1013
   32CHL1  H19A 2335   0.983   0.273   3.555  2.2487  0.0167  4.6185
   32CHL1  H19B 2336   1.068   0.275   3.397 -1.2744 -2.1831  0.9168
   32CHL1  H19C 2337   1.162   0.271   3.549  0.2457  0.1564 -0.7436
   32CHL1    C1 2338   0.935   0.512   3.409 -0.3139  0.1144  0.4620
   32CHL1   H1A 2339   0.852   0.444   3.438  2.3351 -3.3871  0.5212
   32CHL1   H1B 2340   0.904   0.614   3.439 -0.8710  0.3976 -0.9664
   32CHL1    C2 2341   0.953   0.501   3.255  0.5831 -0.1734 -0.1203
   32CHL1   H2A 2342   0.866   0.543   3.201  1.4327  0.9261 -0.6781
   32CHL1   H2B 2343   0.972   0.393   3.236  2.4076  0.0493  0.2603
   32CHL1   C20 2344   0.914   0.573   4.197  0.6908 -0.6649  0.6352
   32CHL1   H20 2345   0.976   0.483   4.219  0.8410 -1.2787 -1.9671
   32CHL1   C21 2346   0.774   0.521   4.192  0.1264  0.3601 -1.0918
   32CHL1  H21A 2347   0.742   0.482   4.291 -0.8488  0.4165 -1.3752
   32CHL1  H21B 2348   0.768   0.446   4.111 -2.2582  0.7183 -1.3324
   32CHL1  H21C 2349   0.695   0.599   4.179 -0.5241 -0.0354  0.3387
   32CHL1   C22 2350   0.929   0.669   4.318  0.2262  0.6143  0.3141
   32CHL1  H22A 2351   1.016   0.737   4.313 -0.0150  0.8323 -2.3650
   32CHL1  H22B 2352   0.846   0.742   4.305  1.6404  2.0429 -1.1424
   32CHL1   C23 2353   0.924   0.600   4.461 -0.1503  0.0326  0.2504
   32CHL1  H23A 2354   0.848   0.520   4.469 -2.3217  1.8484 -1.0751
   32CHL1  H23B 2355   1.023   0.550   4.467  0.4402  0.9771 -1.1000
   32CHL1   C24 2356   0.900   0.691   4.583 -0.2206 -0.4309 -0.3045
   32CHL1  H24A 2357   0.987   0.760   4.594  0.2990 -0.7907 -1.8678
   32CHL1  H24B 2358   0.817   0.761   4.559  0.9915  0.9806 -0.5221
   32CHL1   C25 2359   0.878   0.620   4.715  0.1360  0.4435  0.4581
   32CHL1   H25 2360   0.871   0.690   4.801  2.9484  0.4943  0.7232
   32CHL1   C26 2361   0.748   0.538   4.708  0.1671 -0.2556 -0.0343
   32CHL1  H26A 2362   0.747   0.461   4.628  3.0543 -1.2877  0.8151
   32CHL1  H26B 2363   0.730   0.480   4.801  2.5039 -4.8290 -2.1040
   32CHL1  H26C 2364   0.657   0.597   4.683 -0.8424 -0.5839  2.5246
   32CHL1   C27 2365   1.012   0.557   4.747  0.0463  0.9916 -0.4488
   32CHL1  H27A 2366   1.012   0.520   4.852  3.0590 -0.8297 -0.9637
   32CHL1  H27B 2367   1.036   0.467   4.686 -0.7049 -0.2271  0.9880
   32CHL1  H27C 2368   1.090   0.635   4.740  1.0769 -0.0602 -0.9770
   33CHL1    C3 2369   4.183   6.764   3.165 -0.4289 -0.0784  0.1266
   33CHL1    H3 2370   4.245   6.856   3.173 -1.7944  0.7219  2.4081
   33CHL1    O3 2371   4.227   6.705   3.047 -0.2283  0.0246 -0.1337
   33CHL1   H3' 2372   4.158   6.642   3.025  0.5934 -1.0384  0.3119
   33CHL1    C4 2373   4.214   6.673   3.283  0.5218  0.7338 -0.5135
   33CHL1   H4A 2374   4.154   6.581   3.263  2.0329 -1.1807  2.9415
   33CHL1   H4B 2375   4.317   6.636   3.295  0.4186  0.5119 -0.3006
   33CHL1    C5 2376   4.176   6.733   3.410  0.2357 -0.7840 -0.0080
   33CHL1    C6 2377   4.278   6.760   3.501 -0.0654  0.0267  0.5683
   33CHL1    H6 2378   4.381   6.730   3.479 -0.8486 -2.3538 -0.2299
   33CHL1    C7 2379   4.250   6.837   3.627 -0.3921 -0.1791 -0.8662
   33CHL1   H7A 2380   4.305   6.786   3.709 -3.0116 -0.9779  0.5121
   33CHL1   H7B 2381   4.299   6.935   3.609  2.1758 -1.5777 -1.9500
   33CHL1    C8 2382   4.102   6.864   3.653  0.5866 -0.2520 -0.5116
   33CHL1    H8 2383   4.065   6.765   3.690  2.9635 -0.7005  0.9011
   33CHL1   C14 2384   4.081   6.967   3.769 -0.0055  0.1155 -0.9119
   33CHL1   H14 2385   4.126   7.063   3.737 -0.0727  0.1677 -0.8524
   33CHL1   C15 2386   4.149   6.929   3.907  0.0839  0.2939  1.4229
   33CHL1  H15A 2387   4.118   6.827   3.939  0.9554 -0.5473 -0.2431
   33CHL1  H15B 2388   4.258   6.937   3.884 -0.0814  0.4081  0.6734
   33CHL1   C16 2389   4.087   7.027   3.999  0.0643 -0.2979  0.3276
   33CHL1  H16A 2390   4.056   6.976   4.093 -1.2288 -2.8438 -1.3653
   33CHL1  H16B 2391   4.143   7.120   4.020 -1.7749  0.7947  0.6360
   33CHL1   C17 2392   3.970   7.098   3.915  0.2396 -0.0306 -0.1263
   33CHL1   H17 2393   4.006   7.190   3.865 -2.8285  1.1120 -0.4520
   33CHL1   C13 2394   3.937   7.009   3.797  0.2016  0.1306  0.2355
   33CHL1   C18 2395   3.850   6.889   3.855  0.1012  0.5276 -0.0010
   33CHL1  H18A 2396   3.894   6.850   3.949  0.8297 -1.2094 -1.0233
   33CHL1  H18B 2397   3.747   6.925   3.879 -1.2739 -2.9819 -0.0226
   33CHL1  H18C 2398   3.840   6.805   3.784  0.2667  0.6798 -0.2029
   33CHL1   C12 2399   3.882   7.068   3.670 -0.3869 -0.6114  0.3572
   33CHL1  H12A 2400   3.776   7.095   3.686 -0.6933 -2.2552  1.3576
   33CHL1  H12B 2401   3.948   7.156   3.654 -0.1766 -1.1087 -1.8120
   33CHL1   C11 2402   3.885   6.979   3.547 -0.5147 -0.7628 -0.3710
   33CHL1  H11A 2403   3.808   6.899   3.551 -0.9220 -0.3193  1.4294
   33CHL1  H11B 2404   3.856   7.033   3.455 -0.4410 -0.5176 -0.2509
   33CHL1    C9 2405   4.031   6.919   3.527  0.3234  0.2959  0.8652
   33CHL1    H9 2406   4.092   7.005   3.493  1.1601 -1.4919 -2.7111
   33CHL1   C10 2407   4.039   6.808   3.416  0.0925  0.5794  0.7581
   33CHL1   C19 2408   3.953   6.683   3.445  0.7343 -0.1616 -0.1365
   33CHL1  H19A 2409   3.970   6.603   3.371 -1.0691 -1.7058  1.0246
   33CHL1  H19B 2410   3.972   6.640   3.546 -1.4332  1.1815  0.9270
   33CHL1  H19C 2411   3.844   6.704   3.442  0.5069 -1.1038  0.8419
   33CHL1    C1 2412   4.004   6.874   3.282  0.0774 -0.8225 -0.1121
   33CHL1   H1A 2413   3.895   6.894   3.273  0.3660 -0.0553 -2.7185
   33CHL1   H1B 2414   4.061   6.969   3.278 -0.0042 -0.7962 -0.6137
   33CHL1    C2 2415   4.036   6.794   3.159 -0.1790  0.7446  0.1933
   33CHL1   H2A 2416   4.023   6.853   3.066  1.3651 -0.3276 -0.7540
   33CHL1   H2B 2417   3.975   6.701   3.148 -2.3059  1.8685  1.7359
   33CHL1   C20 2418   3.847   7.150   4.006 -0.4497  0.1368  0.0572
   33CHL1   H20 2419   3.808   7.062   4.061 -0.3692 -2.0143 -3.0468
   33CHL1   C21 2420   3.733   7.218   3.928  0.4937 -0.1789 -0.2878
   33CHL1  H21A 2421   3.778   7.276   3.845  0.2340 -2.2679 -1.9725
   33CHL1  H21B 2422   3.670   7.287   3.987  2.6356  0.6340  1.1841
   33CHL1  H21C 2423   3.669   7.136   3.888  3.1851 -2.8140  0.3737
   33CHL1   C22 2424   3.897   7.253   4.113 -0.1288 -0.2927  0.0970
   33CHL1  H22A 2425   4.004   7.236   4.135  0.3651  0.2042 -1.7415
   33CHL1  H22B 2426   3.891   7.355   4.069 -0.9715 -0.5058 -0.3151
   33CHL1   C23 2427   3.809   7.259   4.236 -0.1795 -0.3667 -0.7609
   33CHL1  H23A 2428   3.705   7.293   4.214 -0.7720 -0.0845  2.0105
   33CHL1  H23B 2429   3.807   7.153   4.272  1.7901 -0.2897 -0.3034
   33CHL1   C24 2430   3.871   7.357   4.337  0.1459  0.0158  0.7661
   33CHL1  H24A 2431   3.967   7.305   4.353 -1.2105 -2.4791  1.3555
   33CHL1  H24B 2432   3.901   7.451   4.287 -1.6622 -0.5347 -1.5535
   33CHL1   C25 2433   3.783   7.366   4.454  0.1212 -0.5954  0.3511
   33CHL1   H25 2434   3.745   7.265   4.477 -0.7971 -0.7519 -1.6797
   33CHL1   C26 2435   3.856   7.420   4.582 -0.7421  0.0517  0.2406
   33CHL1  H26A 2436   3.785   7.443   4.664 -0.4642 -1.1466  0.8395
   33CHL1  H26B 2437   3.928   7.353   4.633 -0.9865  0.6148  1.3408
   33CHL1  H26C 2438   3.904   7.518   4.557  2.3010 -2.0356 -3.0388
   33CHL1   C27 2439   3.667   7.463   4.434 -1.0203 -0.2557 -0.6309
   33CHL1  H27A 2440   3.720   7.559   4.420 -0.6880 -0.8956 -5.1102
   33CHL1  H27B 2441   3.608   7.450   4.341 -1.9060 -0.2045 -0.0809
   33CHL1  H27C 2442   3.609   7.460   4.529  0.1143  0.5484  0.1132
   34CHL1    C3 2443   1.116   1.479   2.900  0.3060  0.1251  0.1834
   34CHL1    H3 2444   1.177   1.400   2.949 -0.4764  0.1278  1.1972
   34CHL1    O3 2445   1.150   1.507   2.759  0.4224  0.1758  0.7279
   34CHL1   H3' 2446   1.065   1.496   2.716 -0.3573  0.3630  2.1630
   34CHL1    C4 2447   0.967   1.434   2.902 -0.5332  0.6614 -0.4345
   34CHL1   H4A 2448   0.901   1.500   2.843  0.0385 -1.8447 -4.2435
   34CHL1   H4B 2449   0.957   1.337   2.850  0.8656  1.2895 -1.9623
   34CHL1    C5 2450   0.932   1.410   3.052 -0.8985  0.8574  0.6344
   34CHL1    C6 2451   0.895   1.291   3.102 -1.0547  0.3649 -0.1676
   34CHL1    H6 2452   0.897   1.200   3.040 -0.7737 -0.0555  0.4542
   34CHL1    C7 2453   0.837   1.272   3.239 -0.0320 -0.9807 -0.2784
   34CHL1   H7A 2454   0.749   1.204   3.231  2.1812 -4.2879  0.9459
   34CHL1   H7B 2455   0.911   1.216   3.300 -2.0773 -4.1155 -0.4332
   34CHL1    C8 2456   0.805   1.404   3.308 -0.4963  0.2927  0.2789
   34CHL1    H8 2457   0.709   1.438   3.263 -0.3324  2.2599  1.3100
   34CHL1   C14 2458   0.776   1.372   3.451  0.1661  0.0090 -1.1096
   34CHL1   H14 2459   0.870   1.335   3.497  0.3568 -0.6083 -1.9630
   34CHL1   C15 2460   0.681   1.253   3.493 -0.4550  0.3261  0.2044
   34CHL1  H15A 2461   0.586   1.255   3.434 -0.7454 -0.2496  0.6504
   34CHL1  H15B 2462   0.733   1.156   3.477 -0.1710  0.1240  2.1844
   34CHL1   C16 2463   0.645   1.289   3.644 -0.1543  0.7566  0.5949
   34CHL1  H16A 2464   0.534   1.282   3.648 -0.0671 -0.2853  1.6672
   34CHL1  H16B 2465   0.668   1.212   3.721 -1.6186 -0.8974 -0.5343
   34CHL1   C17 2466   0.701   1.431   3.682 -0.2138 -0.5135 -0.2900
   34CHL1   H17 2467   0.798   1.427   3.736 -0.0242  0.7928 -0.5172
   34CHL1   C13 2468   0.738   1.487   3.544  0.9964  0.4638  0.2021
   34CHL1   C18 2469   0.610   1.550   3.482 -0.4779  0.8256 -0.4977
   34CHL1  H18A 2470   0.598   1.651   3.528  1.0667  0.3319  1.1131
   34CHL1  H18B 2471   0.631   1.578   3.377 -0.0556  2.8279  0.0629
   34CHL1  H18C 2472   0.521   1.484   3.487 -0.1138  0.3372 -0.4708
   34CHL1   C12 2473   0.851   1.595   3.535  0.8806  0.4856 -0.7429
   34CHL1  H12A 2474   0.831   1.687   3.595 -2.7935 -1.4389  1.3176
   34CHL1  H12B 2475   0.941   1.545   3.578 -0.3848  0.9792  2.8189
   34CHL1   C11 2476   0.897   1.630   3.388 -0.4322 -0.1812  0.3054
   34CHL1  H11A 2477   0.824   1.706   3.353  2.4423  1.1460 -3.5210
   34CHL1  H11B 2478   0.993   1.685   3.393 -1.5053  1.7770  0.2981
   34CHL1    C9 2479   0.920   1.503   3.299  0.2897 -0.4909 -0.3428
   34CHL1    H9 2480   1.009   1.441   3.322  0.9836  0.6344  0.0944
   34CHL1   C10 2481   0.947   1.538   3.147 -0.1716  0.3132  0.0901
   34CHL1   C19 2482   0.852   1.651   3.099  0.2842 -0.0594 -0.4523
   34CHL1  H19A 2483   0.866   1.666   2.990  0.5958  0.0841 -0.3908
   34CHL1  H19B 2484   0.744   1.627   3.114  0.1890 -0.5932 -1.8054
   34CHL1  H19C 2485   0.883   1.745   3.147  0.8671 -0.3082 -0.3290
   34CHL1    C1 2486   1.096   1.581   3.138 -0.6431  0.4165 -0.2956
   34CHL1   H1A 2487   1.124   1.677   3.186 -0.1078 -1.1728  2.8487
   34CHL1   H1B 2488   1.163   1.500   3.174 -0.9185  0.0416 -0.6182
   34CHL1    C2 2489   1.143   1.599   2.993  0.2025 -0.4846 -0.3452
   34CHL1   H2A 2490   1.252   1.613   3.010  0.3340 -1.4035 -0.3586
   34CHL1   H2B 2491   1.110   1.694   2.945 -1.1560 -1.6694 -1.8662
   34CHL1   C20 2492   0.611   1.508   3.782 -0.6319  0.2563  0.0327
   34CHL1   H20 2493   0.513   1.517   3.731  0.3118  1.0707 -1.7543
   34CHL1   C21 2494   0.667   1.649   3.810 -0.0516  0.5127  0.2053
   34CHL1  H21A 2495   0.674   1.705   3.715  1.3798 -2.8741 -1.8573
   34CHL1  H21B 2496   0.766   1.648   3.860 -0.3575  4.7132  1.2832
   34CHL1  H21C 2497   0.598   1.697   3.883  0.7278  1.0617  0.5997
   34CHL1   C22 2498   0.574   1.436   3.914 -0.0433 -0.1738  0.0175
   34CHL1  H22A 2499   0.563   1.331   3.879  0.6208 -0.9453  2.0146
   34CHL1  H22B 2500   0.654   1.432   3.991  0.9319 -2.8863 -1.0229
   34CHL1   C23 2501   0.444   1.463   3.987 -0.1130  0.4034  0.2575
   34CHL1  H23A 2502   0.456   1.571   4.010  2.0785  0.1213  0.6684
   34CHL1  H23B 2503   0.358   1.459   3.917  0.8510 -2.2476 -0.8999
   34CHL1   C24 2504   0.413   1.368   4.107 -0.5273 -0.3354 -0.1459
   34CHL1  H24A 2505   0.400   1.270   4.055 -0.2160 -1.7214  2.2476
   34CHL1  H24B 2506   0.508   1.347   4.162 -1.9406  0.4328  2.7657
   34CHL1   C25 2507   0.299   1.387   4.193  1.1495 -0.7230  0.3137
   34CHL1   H25 2508   0.309   1.333   4.290 -1.4656 -2.4565 -0.2759
   34CHL1   C26 2509   0.288   1.536   4.221  0.4034  0.6900 -0.5767
   34CHL1  H26A 2510   0.249   1.586   4.130 -1.9795  0.9983  0.5373
   34CHL1  H26B 2511   0.212   1.554   4.300  1.1761  1.9713 -0.0921
   34CHL1  H26C 2512   0.384   1.587   4.245  0.9374 -1.4898  2.6521
   34CHL1   C27 2513   0.171   1.333   4.122  0.5186 -0.6664 -0.4226
   34CHL1  H27A 2514   0.173   1.222   4.134 -0.4626 -0.6674 -0.1489
   34CHL1  H27B 2515   0.076   1.367   4.169 -0.5362 -1.9024 -1.5798
   34CHL1  H27C 2516   0.169   1.358   4.014 -1.3794  1.3080 -0.0064
   35CHL1    C3 2517   2.429   0.805   3.178  0.7037  0.0076  0.4782
   35CHL1    H3 2518   2.419   0.916   3.178  1.6141  0.1004 -0.5273
   35CHL1    O3 2519   2.446   0.736   3.052 -0.0879  0.2407 -0.9868
   35CHL1   H3' 2520   2.365   0.734   3.001  0.2191 -0.0377 -1.4810
   35CHL1    C4 2521   2.550   0.766   3.261 -0.0256  0.5625 -0.0942
   35CHL1   H4A 2522   2.555   0.655   3.261  3.7410  0.5671  1.9902
   35CHL1   H4B 2523   2.642   0.790   3.203 -0.3671 -0.4021 -1.0964
   35CHL1    C5 2524   2.547   0.817   3.403  0.3294 -0.3338  0.2719
   35CHL1    C6 2525   2.632   0.907   3.457 -1.0829 -0.3472 -0.4527
   35CHL1    H6 2526   2.734   0.910   3.417 -0.9026  0.4300  0.0530
   35CHL1    C7 2527   2.623   0.963   3.597  0.4542 -0.5245 -0.6053
   35CHL1   H7A 2528   2.719   0.975   3.651 -0.7377 -0.1236  1.4879
   35CHL1   H7B 2529   2.585   1.067   3.586 -0.5045 -0.6045  1.4606
   35CHL1    C8 2530   2.519   0.881   3.682 -0.5624 -0.9556 -0.3834
   35CHL1    H8 2531   2.574   0.788   3.707 -1.8207 -2.0419 -1.4777
   35CHL1   C14 2532   2.491   0.960   3.812 -0.4406 -0.5008  0.8726
   35CHL1   H14 2533   2.443   1.055   3.780  0.0608  0.2500  2.2772
   35CHL1   C15 2534   2.616   1.004   3.882  0.1596  0.0263 -0.3154
   35CHL1  H15A 2535   2.688   0.919   3.877 -0.4177 -0.4215 -1.2421
   35CHL1  H15B 2536   2.673   1.090   3.839  2.5501 -0.6366  1.3292
   35CHL1   C16 2537   2.558   1.040   4.022 -0.0823  0.2663 -0.4192
   35CHL1  H16A 2538   2.612   0.986   4.103  1.4405  1.6990 -0.4371
   35CHL1  H16B 2539   2.559   1.147   4.052  0.2041  0.5692 -1.4883
   35CHL1   C17 2540   2.405   0.989   4.028 -0.1172 -0.6613 -0.1319
   35CHL1   H17 2541   2.345   1.082   4.011  1.9212  0.6693 -0.4564
   35CHL1   C13 2542   2.400   0.890   3.908  0.5100 -0.0495 -0.6722
   35CHL1   C18 2543   2.478   0.756   3.956  0.4460 -0.1512  0.4478
   35CHL1  H18A 2544   2.513   0.700   3.867 -1.0186  0.8194 -0.7987
   35CHL1  H18B 2545   2.564   0.768   4.025  1.3334 -4.4717  0.3726
   35CHL1  H18C 2546   2.396   0.694   3.999 -0.5257  1.2338  0.6670
   35CHL1   C12 2547   2.263   0.860   3.835  0.4828 -0.3690 -0.1644
   35CHL1  H12A 2548   2.193   0.796   3.893  0.6749 -1.7050 -1.3526
   35CHL1  H12B 2549   2.209   0.957   3.819  0.5683 -0.1530  0.8314
   35CHL1   C11 2550   2.287   0.776   3.704 -0.5154 -0.1411 -0.4860
   35CHL1  H11A 2551   2.326   0.676   3.733  0.7644  0.0993 -1.2603
   35CHL1  H11B 2552   2.190   0.762   3.652 -1.0745 -0.0548  0.5080
   35CHL1    C9 2553   2.391   0.844   3.611  0.2173 -0.2649  0.0231
   35CHL1    H9 2554   2.344   0.942   3.587  0.2765 -0.1103  0.5351
   35CHL1   C10 2555   2.417   0.774   3.474  0.5054  0.5693  0.1444
   35CHL1   C19 2556   2.416   0.625   3.502 -0.2533  0.0835  0.0798
   35CHL1  H19A 2557   2.418   0.555   3.416  1.0720  0.1214  0.0642
   35CHL1  H19B 2558   2.496   0.596   3.573  0.5579 -1.7925 -1.4996
   35CHL1  H19C 2559   2.323   0.592   3.554  0.8888 -1.1714  1.3964
   35CHL1    C1 2560   2.293   0.810   3.384 -0.5137 -0.1202 -0.0155
   35CHL1   H1A 2561   2.199   0.782   3.436 -1.6971  1.8158 -1.0145
   35CHL1   H1B 2562   2.289   0.921   3.378  1.8910  0.0352  0.0681
   35CHL1    C2 2563   2.299   0.757   3.243 -0.4866 -0.0753 -0.6163
   35CHL1   H2A 2564   2.209   0.777   3.180 -1.4472 -0.7199  0.5075
   35CHL1   H2B 2565   2.313   0.647   3.245 -0.0147 -0.0390 -1.5872
   35CHL1   C20 2566   2.371   0.935   4.163 -0.1750  0.9162 -0.0105
   35CHL1   H20 2567   2.453   0.867   4.195 -0.8845 -0.4239 -0.9286
   35CHL1   C21 2568   2.241   0.851   4.167  0.7168  0.0178 -0.0064
   35CHL1  H21A 2569   2.253   0.758   4.108 -1.3091 -0.7172  0.6427
   35CHL1  H21B 2570   2.152   0.909   4.134  0.5777 -0.6641 -0.8809
   35CHL1  H21C 2571   2.217   0.813   4.268 -3.4726 -0.3050 -0.9556
   35CHL1   C22 2572   2.358   1.054   4.265  0.0787  0.3893  0.4034
   35CHL1  H22A 2573   2.444   1.116   4.233  0.4475 -0.3690 -0.1062
   35CHL1  H22B 2574   2.266   1.109   4.236  1.6839  3.5173  0.8320
   35CHL1   C23 2575   2.368   1.019   4.411  0.0521 -0.1976  0.1322
   35CHL1  H23A 2576   2.277   0.982   4.462 -0.8456 -0.9372 -1.8836
   35CHL1  H23B 2577   2.450   0.946   4.427  2.0918  2.0938  0.6927
   35CHL1   C24 2578   2.411   1.137   4.497  0.4118 -0.4055 -1.0916
   35CHL1  H24A 2579   2.501   1.187   4.457  0.8872  1.9261  2.3968
   35CHL1  H24B 2580   2.330   1.212   4.502 -0.7456 -1.6539  0.0452
   35CHL1   C25 2581   2.442   1.090   4.637 -0.7548  0.6040 -0.4451
   35CHL1   H25 2582   2.508   1.002   4.624  1.0754  2.2746 -3.5514
   35CHL1   C26 2583   2.526   1.199   4.703  0.2069 -0.2650  0.3411
   35CHL1  H26A 2584   2.468   1.292   4.721  1.5037  0.5924  0.2145
   35CHL1  H26B 2585   2.560   1.157   4.799 -0.0421 -1.7303 -0.1858
   35CHL1  H26C 2586   2.608   1.237   4.638 -2.0319  2.2632 -1.2205
   35CHL1   C27 2587   2.319   1.039   4.723  0.1819 -0.5002  0.2823
   35CHL1  H27A 2588   2.262   0.962   4.667  1.2955  0.3764 -2.2161
   35CHL1  H27B 2589   2.361   1.007   4.820 -0.9752  0.5680  1.1759
   35CHL1  H27C 2590   2.252   1.124   4.751  1.5257  0.3532  1.0105
   36CHL1    C3 2591   4.723   2.021   3.758  0.1608  0.6142  0.0185
   36CHL1    H3 2592   4.613   2.033   3.769  0.0898 -0.4485  0.5826
   36CHL1    O3 2593   4.746   1.961   3.629 -0.2301  0.2277 -0.0456
   36CHL1   H3' 2594   4.753   1.866   3.629 -3.2501 -0.1407 -1.9478
   36CHL1    C4 2595   4.790   2.161   3.756  0.5029  0.0981 -0.0544
   36CHL1   H4A 2596   4.894   2.146   3.719  1.3204  3.6226  0.4626
   36CHL1   H4B 2597   4.731   2.218   3.681  0.4145  1.8467  1.2825
   36CHL1    C5 2598   4.785   2.235   3.888 -0.2546 -0.6158 -0.1031
   36CHL1    C6 2599   4.751   2.361   3.895  0.4784 -0.6096 -0.0664
   36CHL1    H6 2600   4.732   2.423   3.806 -1.0093 -2.2677 -0.9529
   36CHL1    C7 2601   4.752   2.442   4.029  0.5205  0.1389  0.4720
   36CHL1   H7A 2602   4.810   2.536   4.025  1.8792 -0.7198 -1.5806
   36CHL1   H7B 2603   4.645   2.450   4.059  0.8751  0.1121  1.8407
   36CHL1    C8 2604   4.815   2.356   4.152  0.5338  0.0753 -0.2346
   36CHL1    H8 2605   4.924   2.372   4.134  0.0256  1.5395 -2.4901
   36CHL1   C14 2606   4.789   2.422   4.287  0.7967 -0.3882  0.1781
   36CHL1   H14 2607   4.678   2.413   4.289  0.5169  2.4714  0.5070
   36CHL1   C15 2608   4.816   2.575   4.318 -0.2124  0.5368  0.3351
   36CHL1  H15A 2609   4.911   2.607   4.269  0.8433 -0.4056  1.7068
   36CHL1  H15B 2610   4.734   2.635   4.272  0.1302 -1.1332 -2.7175
   36CHL1   C16 2611   4.823   2.594   4.471  0.1613  0.5397 -0.5033
   36CHL1  H16A 2612   4.927   2.631   4.487  0.4349  0.3784 -1.8241
   36CHL1  H16B 2613   4.751   2.669   4.511  0.3872 -0.6076  2.2881
   36CHL1   C17 2614   4.805   2.450   4.527 -0.0578 -0.5475  0.3793
   36CHL1   H17 2615   4.695   2.453   4.541  0.1426 -0.7658  2.2994
   36CHL1   C13 2616   4.836   2.347   4.414 -0.2324  0.0838  0.0802
   36CHL1   C18 2617   4.994   2.332   4.403 -0.4693 -0.3131 -0.1961
   36CHL1  H18A 2618   5.021   2.279   4.496 -1.3046  0.9767  0.8185
   36CHL1  H18B 2619   5.029   2.288   4.307 -2.2440 -0.5816 -0.7523
   36CHL1  H18C 2620   5.038   2.434   4.417  3.0909 -2.0486  3.3212
   36CHL1   C12 2621   4.771   2.211   4.413  0.6052 -0.5747  0.2690
   36CHL1  H12A 2622   4.810   2.144   4.493 -0.1196 -0.1653  0.9813
   36CHL1  H12B 2623   4.660   2.210   4.418  0.5824 -1.9211  0.0558
   36CHL1   C11 2624   4.803   2.135   4.282  0.5585  0.2998  0.9316
   36CHL1  H11A 2625   4.912   2.113   4.279  0.2618 -1.4673  2.0452
   36CHL1  H11B 2626   4.747   2.040   4.269 -0.4247  0.9313  0.3484
   36CHL1    C9 2627   4.770   2.210   4.149  0.2139  0.1915 -0.1913
   36CHL1    H9 2628   4.659   2.222   4.141 -0.3962 -2.6628  2.0161
   36CHL1   C10 2629   4.817   2.141   4.019  0.3836 -0.4057 -0.2326
   36CHL1   C19 2630   4.969   2.116   4.032  0.2746  0.2231  0.9467
   36CHL1  H19A 2631   5.016   2.205   4.080 -0.3812  0.6104  0.8943
   36CHL1  H19B 2632   4.976   2.018   4.083 -2.0030 -1.5653 -1.8503
   36CHL1  H19C 2633   5.002   2.089   3.929 -0.9122 -3.5318  1.4257
   36CHL1    C1 2634   4.746   2.001   4.006  0.5668 -0.3961  0.0429
   36CHL1   H1A 2635   4.789   1.936   4.085 -0.2207 -2.6804 -1.3080
   36CHL1   H1B 2636   4.635   2.010   4.014  0.5899  0.2329 -0.2564
   36CHL1    C2 2637   4.778   1.937   3.868  0.6896  0.2596  0.4213
   36CHL1   H2A 2638   4.737   1.834   3.873  1.0982  0.0275 -0.6706
   36CHL1   H2B 2639   4.884   1.925   3.837  0.1036  0.3954 -1.8600
   36CHL1   C20 2640   4.870   2.433   4.670 -0.3322 -1.1760 -0.2259
   36CHL1   H20 2641   4.980   2.442   4.662 -0.5466  2.5801 -0.3268
   36CHL1   C21 2642   4.832   2.291   4.724 -0.0062 -0.5822 -0.3434
   36CHL1  H21A 2643   4.865   2.280   4.829 -2.9551 -2.0259  0.5353
   36CHL1  H21B 2644   4.882   2.210   4.667 -0.0290  0.7073 -2.3077
   36CHL1  H21C 2645   4.724   2.266   4.729 -0.0368 -0.6559 -1.2198
   36CHL1   C22 2646   4.823   2.536   4.777  0.4256 -0.7133 -0.3056
   36CHL1  H22A 2647   4.791   2.632   4.731 -0.8493 -0.5370  0.8753
   36CHL1  H22B 2648   4.739   2.486   4.830  0.3913  1.6413  2.0760
   36CHL1   C23 2649   4.934   2.562   4.874 -0.2067 -0.1303  0.0978
   36CHL1  H23A 2650   4.981   2.471   4.917  2.1717  0.0880 -1.8047
   36CHL1  H23B 2651   5.022   2.615   4.830 -0.7819  2.9736  2.3007
   36CHL1   C24 2652   4.871   2.651   4.988  0.0714  0.6633 -0.2399
   36CHL1  H24A 2653   4.827   2.741   4.939 -1.0795 -0.2015 -0.8469
   36CHL1  H24B 2654   4.784   2.594   5.027 -0.4722  1.9030  0.4005
   36CHL1   C25 2655   4.958   2.691   5.114  0.1128  0.5042 -0.2044
   36CHL1   H25 2656   5.032   2.770   5.086  0.1751  1.3605  2.1507
   36CHL1   C26 2657   4.866   2.737   5.226 -0.6271  0.0558 -0.2315
   36CHL1  H26A 2658   4.780   2.803   5.198 -0.2512  1.4271  1.6578
   36CHL1  H26B 2659   4.823   2.642   5.262  0.6935 -0.0233  1.2427
   36CHL1  H26C 2660   4.919   2.775   5.316 -1.2680 -2.0013  1.0567
   36CHL1   C27 2661   5.038   2.572   5.173 -0.2198 -0.6998  0.3691
   36CHL1  H27A 2662   5.106   2.535   5.093 -1.2351  0.9805 -1.3566
   36CHL1  H27B 2663   5.089   2.594   5.270 -1.1310  1.9836  0.3041
   36CHL1  H27C 2664   4.965   2.490   5.192 -0.4891 -0.4493  0.4185
   37CHL1    C3 2665   1.820   2.296   3.150 -0.0689 -0.8341  0.0659
   37CHL1    H3 2666   1.743   2.374   3.129 -0.6125 -1.1124  0.9648
   37CHL1    O3 2667   1.909   2.286   3.042 -0.2782  0.1081 -0.2443
   37CHL1   H3' 2668   1.928   2.376   3.015 -0.2650  0.9798  2.3834
   37CHL1    C4 2669   1.899   2.320   3.274  0.0278 -0.0366 -0.0364
   37CHL1   H4A 2670   1.978   2.243   3.286  0.1910  0.0779 -0.3650
   37CHL1   H4B 2671   1.946   2.419   3.251 -0.3711 -0.2104 -1.7113
   37CHL1    C5 2672   1.803   2.324   3.393  0.9781  0.5207 -0.1710
   37CHL1    C6 2673   1.773   2.427   3.478  0.5444  0.0935  0.3236
   37CHL1    H6 2674   1.825   2.523   3.468 -1.3045  1.0079 -1.2878
   37CHL1    C7 2675   1.695   2.424   3.603  0.2242 -0.2621  0.4682
   37CHL1   H7A 2676   1.741   2.480   3.687  0.7484  1.7677 -1.1014
   37CHL1   H7B 2677   1.594   2.468   3.593 -0.0659 -0.1357  3.0880
   37CHL1    C8 2678   1.672   2.280   3.655 -0.6017 -0.3534 -0.0648
   37CHL1    H8 2679   1.764   2.227   3.689 -0.4003 -0.9825 -1.5041
   37CHL1   C14 2680   1.580   2.280   3.777  0.5794  0.3622 -0.2763
   37CHL1   H14 2681   1.496   2.336   3.731  0.6742  0.1004 -0.7755
   37CHL1   C15 2682   1.627   2.349   3.906 -0.2286  0.1121 -0.2205
   37CHL1  H15A 2683   1.735   2.326   3.923 -0.4020  0.6271  1.8299
   37CHL1  H15B 2684   1.608   2.458   3.894 -0.7318  0.1761  1.0564
   37CHL1   C16 2685   1.537   2.297   4.015 -0.4179  0.5286 -0.8190
   37CHL1  H16A 2686   1.604   2.259   4.095  0.6811 -1.0705 -2.4245
   37CHL1  H16B 2687   1.478   2.380   4.059  0.1046  0.8287 -0.6744
   37CHL1   C17 2688   1.453   2.184   3.943 -0.3326 -0.2471 -0.5291
   37CHL1   H17 2689   1.360   2.236   3.911 -0.7738  0.5580  1.8472
   37CHL1   C13 2690   1.526   2.142   3.813 -0.4037  0.0902 -0.7792
   37CHL1   C18 2691   1.646   2.050   3.863  0.7899 -0.8184 -0.5745
   37CHL1  H18A 2692   1.615   1.945   3.878  0.2360 -0.3901  1.6544
   37CHL1  H18B 2693   1.725   2.060   3.786 -1.3610  0.0401 -2.8339
   37CHL1  H18C 2694   1.688   2.089   3.958  1.1271  0.6814 -1.2960
   37CHL1   C12 2695   1.451   2.083   3.693 -0.5724  0.5448 -0.0552
   37CHL1  H12A 2696   1.407   1.985   3.722  1.1127 -0.4872 -0.8455
   37CHL1  H12B 2697   1.368   2.155   3.676  1.2482  3.0857  1.0185
   37CHL1   C11 2698   1.535   2.066   3.564 -0.4978  0.3297  0.5269
   37CHL1  H11A 2699   1.617   1.996   3.590 -0.8374 -0.2780 -0.0026
   37CHL1  H11B 2700   1.475   2.019   3.484 -1.1468 -0.5361  1.5059
   37CHL1    C9 2701   1.614   2.201   3.533 -0.0333  0.9497 -0.7124
   37CHL1    H9 2702   1.528   2.262   3.500 -1.7210 -1.3051 -0.7227
   37CHL1   C10 2703   1.723   2.187   3.422  0.0086 -0.1862 -1.2181
   37CHL1   C19 2704   1.821   2.078   3.463  0.2948 -0.4439 -0.0853
   37CHL1  H19A 2705   1.787   1.979   3.425 -0.9680  0.5380 -1.6133
   37CHL1  H19B 2706   1.914   2.084   3.403 -0.2109 -0.2969 -0.8693
   37CHL1  H19C 2707   1.831   2.067   3.573 -0.3131 -2.4859 -0.1822
   37CHL1    C1 2708   1.653   2.152   3.292 -0.5768 -0.2589 -0.1631
   37CHL1   H1A 2709   1.616   2.048   3.296 -2.4936  0.3974  0.9819
   37CHL1   H1B 2710   1.565   2.220   3.282 -0.4167  0.2529  1.5685
   37CHL1    C2 2711   1.738   2.164   3.165 -0.0800 -0.6577  0.0946
   37CHL1   H2A 2712   1.688   2.159   3.066  1.6564 -0.7745 -0.8035
   37CHL1   H2B 2713   1.815   2.084   3.164  1.5572  0.7443 -4.0195
   37CHL1   C20 2714   1.421   2.067   4.046  0.4206 -0.1658 -0.1304
   37CHL1   H20 2715   1.516   2.025   4.087  0.2402  1.2308  1.8889
   37CHL1   C21 2716   1.350   1.949   3.985  0.4337  0.2012  0.2550
   37CHL1  H21A 2717   1.333   1.868   4.059 -2.4209  0.6478  0.1981
   37CHL1  H21B 2718   1.408   1.893   3.908  0.1194 -0.9414  0.8307
   37CHL1  H21C 2719   1.254   1.982   3.940  0.0110 -1.6018 -0.2353
   37CHL1   C22 2720   1.330   2.132   4.159 -0.1868 -0.1775  0.8138
   37CHL1  H22A 2721   1.373   2.224   4.201  1.8137 -1.1187  0.9214
   37CHL1  H22B 2722   1.231   2.157   4.114  0.6824 -0.9374 -1.7514
   37CHL1   C23 2723   1.307   2.041   4.282  0.0139  0.0374  0.1875
   37CHL1  H23A 2724   1.210   1.993   4.258  0.7214 -1.5858  0.4502
   37CHL1  H23B 2725   1.384   1.961   4.287  0.4744  0.5251  1.1068
   37CHL1   C24 2726   1.309   2.119   4.413 -0.4500 -0.4039  0.0840
   37CHL1  H24A 2727   1.403   2.177   4.426 -1.0608  1.4073 -2.7166
   37CHL1  H24B 2728   1.236   2.200   4.394  1.0872  0.2330 -4.0515
   37CHL1   C25 2729   1.266   2.032   4.535 -0.5854 -0.1016  0.0737
   37CHL1   H25 2730   1.183   1.966   4.500  1.3693 -1.6533 -1.9150
   37CHL1   C26 2731   1.377   1.948   4.599 -0.9485  0.1056 -0.1407
   37CHL1  H26A 2732   1.459   2.015   4.631  0.3731 -0.3435 -2.3436
   37CHL1  H26B 2733   1.341   1.900   4.692 -0.9330  3.0085  1.4520
   37CHL1  H26C 2734   1.413   1.878   4.520 -1.0314 -0.4210  0.2888
   37CHL1   C27 2735   1.212   2.130   4.639 -0.1854 -0.6095  0.1640
   37CHL1  H27A 2736   1.279   2.172   4.716 -1.1200  1.7026 -0.2023
   37CHL1  H27B 2737   1.181   2.229   4.598 -0.9786 -1.1255 -0.5105
   37CHL1  H27C 2738   1.112   2.096   4.674 -0.6502  0.2439 -0.3057
   38CHL1    C3 2739   3.362   0.966   3.139  0.5421 -0.0189  0.3920
   38CHL1    H3 2740   3.256   0.944   3.165  0.4074  0.8965  0.6626
   38CHL1    O3 2741   3.390   0.953   3.005 -0.5312 -0.2101  0.2293
   38CHL1   H3' 2742   3.476   0.913   2.993 -1.0325 -0.8729 -1.5922
   38CHL1    C4 2743   3.398   1.104   3.196 -0.3017 -0.1028  0.5337
   38CHL1   H4A 2744   3.504   1.114   3.166 -0.4890  0.3991  0.0194
   38CHL1   H4B 2745   3.337   1.184   3.149 -0.7701 -1.2699 -0.9300
   38CHL1    C5 2746   3.397   1.110   3.348  0.2170  0.4878  0.2805
   38CHL1    C6 2747   3.325   1.203   3.414 -0.4334 -0.5806  0.2388
   38CHL1    H6 2748   3.263   1.280   3.365  0.2984  0.5172  0.9716
   38CHL1    C7 2749   3.346   1.230   3.561 -0.3937 -0.2659  0.3174
   38CHL1   H7A 2750   3.378   1.336   3.574 -1.2966  0.0362  0.1406
   38CHL1   H7B 2751   3.255   1.206   3.620 -0.7118  0.7967  0.2835
   38CHL1    C8 2752   3.453   1.142   3.630 -0.3872 -0.2048 -0.2136
   38CHL1    H8 2753   3.553   1.180   3.602 -0.0263 -1.8355 -1.2795
   38CHL1   C14 2754   3.439   1.132   3.783  0.5180 -0.1922 -0.0977
   38CHL1   H14 2755   3.340   1.083   3.792 -0.0253  0.9234  0.2500
   38CHL1   C15 2756   3.439   1.256   3.871  0.5658 -0.0658  0.3829
   38CHL1  H15A 2757   3.507   1.338   3.837  2.2543 -0.8732  1.6615
   38CHL1  H15B 2758   3.337   1.296   3.889  0.0582 -1.0129 -0.3153
   38CHL1   C16 2759   3.489   1.207   4.016  0.4931  0.5216  0.3623
   38CHL1  H16A 2760   3.582   1.262   4.044  0.2575 -0.5925  3.7845
   38CHL1  H16B 2761   3.413   1.225   4.095 -0.3377 -1.0237 -0.0544
   38CHL1   C17 2762   3.524   1.055   4.003 -0.4392 -0.2872 -0.1889
   38CHL1   H17 2763   3.436   0.994   4.032 -0.1697 -0.8137 -0.4713
   38CHL1   C13 2764   3.538   1.036   3.855 -0.7235  0.0069  0.4864
   38CHL1   C18 2765   3.679   1.093   3.818  0.3285  0.0502  0.1701
   38CHL1  H18A 2766   3.692   1.098   3.707 -0.4667 -2.9710 -0.1537
   38CHL1  H18B 2767   3.694   1.195   3.859 -3.0431  1.0817 -0.7889
   38CHL1  H18C 2768   3.759   1.024   3.851 -0.6563 -0.6896  1.0583
   38CHL1   C12 2769   3.510   0.894   3.802 -0.1834 -0.1383  0.0857
   38CHL1  H12A 2770   3.578   0.819   3.848  1.2417 -0.0069 -1.6993
   38CHL1  H12B 2771   3.407   0.859   3.820 -1.3115  2.7374 -0.1505
   38CHL1   C11 2772   3.529   0.886   3.646 -0.4747 -0.8897  0.3884
   38CHL1  H11A 2773   3.638   0.901   3.628 -0.8279 -0.2072 -1.4172
   38CHL1  H11B 2774   3.495   0.792   3.597 -2.7731  0.4381 -0.7234
   38CHL1    C9 2775   3.450   1.002   3.566  0.2534 -0.5668  0.1924
   38CHL1    H9 2776   3.342   0.984   3.586 -0.2929 -0.0755 -1.9979
   38CHL1   C10 2777   3.484   1.002   3.410  0.8151 -0.1138 -0.1753
   38CHL1   C19 2778   3.635   1.027   3.385 -0.5270 -0.0555  0.5020
   38CHL1  H19A 2779   3.676   1.103   3.455 -1.4807 -0.5616  1.6401
   38CHL1  H19B 2780   3.677   0.926   3.400 -0.2438 -0.1157 -0.6106
   38CHL1  H19C 2781   3.668   1.058   3.283  0.4671  0.8156  1.0670
   38CHL1    C1 2782   3.443   0.860   3.355  0.5749 -0.7540 -0.8585
   38CHL1   H1A 2783   3.524   0.786   3.370  3.1173  1.9693 -0.3414
   38CHL1   H1B 2784   3.354   0.825   3.413  0.3860  0.1943 -0.5555
   38CHL1    C2 2785   3.431   0.845   3.202  0.2329  0.2168 -0.3110
   38CHL1   H2A 2786   3.366   0.757   3.180  0.7415 -0.5900  1.2758
   38CHL1   H2B 2787   3.535   0.824   3.168  0.8248 -0.5691  1.8124
   38CHL1   C20 2788   3.643   1.017   4.093  0.1785 -0.5159  0.1439
   38CHL1   H20 2789   3.739   1.066   4.066 -1.0259  1.6393 -0.4746
   38CHL1   C21 2790   3.665   0.860   4.096  0.5603 -0.1418  0.4779
   38CHL1  H21A 2791   3.696   0.820   3.998 -1.3153  1.2049 -0.7490
   38CHL1  H21B 2792   3.567   0.811   4.115  1.2056 -2.0495 -0.9138
   38CHL1  H21C 2793   3.742   0.837   4.172 -0.4166 -2.7298  0.7850
   38CHL1   C22 2794   3.615   1.063   4.239  0.9014 -0.2998  0.2858
   38CHL1  H22A 2795   3.594   1.172   4.232  0.4326 -0.4311 -0.4261
   38CHL1  H22B 2796   3.521   1.019   4.278  2.0477 -2.4018  0.8010
   38CHL1   C23 2797   3.718   1.044   4.350 -0.0844  0.1888 -0.3810
   38CHL1  H23A 2798   3.721   0.935   4.371 -0.5437  0.5092  1.5500
   38CHL1  H23B 2799   3.814   1.081   4.309  0.0321  0.6102  0.2552
   38CHL1   C24 2800   3.676   1.120   4.485 -0.0844 -0.1318  0.5648
   38CHL1  H24A 2801   3.684   1.229   4.462  1.2598 -0.3393 -0.0466
   38CHL1  H24B 2802   3.576   1.084   4.518 -0.1962  0.2972  0.7160
   38CHL1   C25 2803   3.781   1.103   4.608 -0.2097 -0.7248 -0.6511
   38CHL1   H25 2804   3.879   1.149   4.583  0.5121 -0.3891  2.3179
   38CHL1   C26 2805   3.737   1.195   4.725 -0.2133  0.0969  0.8117
   38CHL1  H26A 2806   3.812   1.184   4.806 -0.8639  0.4489  1.4688
   38CHL1  H26B 2807   3.744   1.302   4.696  1.3778  0.3039  1.8545
   38CHL1  H26C 2808   3.631   1.174   4.750 -1.3443  1.0605 -2.5912
   38CHL1   C27 2809   3.806   0.961   4.652  0.5316 -0.5209  0.1418
   38CHL1  H27A 2810   3.710   0.909   4.634 -1.9817  3.6670  0.1310
   38CHL1  H27B 2811   3.876   0.911   4.583 -0.1214 -2.5278  0.8821
   38CHL1  H27C 2812   3.850   0.951   4.754  1.0576  0.3117  0.0172
   39CHL1    C3 2813   5.119   0.645   3.360  0.7949  0.0838 -0.5215
   39CHL1    H3 2814   5.219   0.680   3.394  0.4636 -0.9899  1.7251
   39CHL1    O3 2815   5.094   0.668   3.220  0.6907 -0.1911 -0.1251
   39CHL1   H3' 2816   5.002   0.649   3.200  0.3382  0.8906  0.3996
   39CHL1    C4 2817   5.112   0.496   3.390 -0.6964  0.1182  0.3014
   39CHL1   H4A 2818   5.022   0.455   3.339 -0.1509  0.8740 -1.3199
   39CHL1   H4B 2819   5.190   0.448   3.327  0.4321  1.5018  0.6081
   39CHL1    C5 2820   5.106   0.461   3.535 -0.1865 -0.5201  0.7433
   39CHL1    C6 2821   5.185   0.363   3.578  0.2906  0.4974  0.0479
   39CHL1    H6 2822   5.254   0.308   3.512  1.3575  0.6919  0.9832
   39CHL1    C7 2823   5.178   0.313   3.722  0.5081 -0.4781  0.5568
   39CHL1   H7A 2824   5.169   0.203   3.726 -0.1468 -0.5312 -1.3103
   39CHL1   H7B 2825   5.270   0.335   3.781  0.7367 -0.5369  0.2213
   39CHL1    C8 2826   5.043   0.366   3.793 -0.6675  0.3475 -1.1444
   39CHL1    H8 2827   4.957   0.308   3.753 -0.5757 -0.9018  0.3823
   39CHL1   C14 2828   5.064   0.328   3.936 -0.1273 -0.0140  0.0645
   39CHL1   H14 2829   5.162   0.374   3.962  0.2012  0.2196 -1.5057
   39CHL1   C15 2830   5.086   0.180   3.972  0.3940 -0.2599 -0.2896
   39CHL1  H15A 2831   5.010   0.116   3.923  1.0216 -2.2054  1.2058
   39CHL1  H15B 2832   5.189   0.145   3.948  0.6076 -0.1533  0.4398
   39CHL1   C16 2833   5.071   0.179   4.127  0.6113 -0.2444  0.3767
   39CHL1  H16A 2834   4.997   0.102   4.157  1.2551 -1.2674 -0.6051
   39CHL1  H16B 2835   5.168   0.167   4.179  0.7380  0.0431  0.2055
   39CHL1   C17 2836   5.020   0.324   4.167 -0.5702 -0.3100  0.1518
   39CHL1   H17 2837   5.109   0.385   4.192 -2.3691  2.0372  1.2453
   39CHL1   C13 2838   4.956   0.382   4.032 -0.1472 -0.1421 -0.3662
   39CHL1   C18 2839   4.815   0.319   4.005  0.2626 -0.1985  0.3290
   39CHL1  H18A 2840   4.784   0.327   3.898 -1.5862  3.0394  1.0053
   39CHL1  H18B 2841   4.824   0.211   4.028  2.0095 -0.1506  0.0804
   39CHL1  H18C 2842   4.747   0.362   4.081  0.2289 -1.5724  1.1144
   39CHL1   C12 2843   4.934   0.535   4.021  0.6086 -0.2068  0.3955
   39CHL1  H12A 2844   4.843   0.559   4.080  1.1583 -1.1889  1.6934
   39CHL1  H12B 2845   5.021   0.589   4.063  0.0785 -0.6649  2.2012
   39CHL1   C11 2846   4.918   0.577   3.872 -0.1066 -0.3389  0.2563
   39CHL1  H11A 2847   4.816   0.543   3.845 -2.5086  4.5984  1.8637
   39CHL1  H11B 2848   4.921   0.687   3.858 -0.4675 -0.5047 -1.4236
   39CHL1    C9 2849   5.026   0.513   3.775  0.3575  0.2261  0.1900
   39CHL1    H9 2850   5.124   0.557   3.804  1.3625 -2.0738  0.5479
   39CHL1   C10 2851   5.008   0.543   3.619  0.5418  0.0045  0.3315
   39CHL1   C19 2852   4.867   0.495   3.578 -0.0079 -0.3635 -0.3329
   39CHL1  H19A 2853   4.852   0.483   3.469 -3.1026 -1.5397  0.1104
   39CHL1  H19B 2854   4.847   0.397   3.626 -1.0470 -0.0450 -0.0835
   39CHL1  H19C 2855   4.789   0.563   3.618 -1.1844 -0.7701 -1.8260
   39CHL1    C1 2856   5.024   0.696   3.586 -0.1803  0.3645 -0.6555
   39CHL1   H1A 2857   4.939   0.745   3.639 -0.4359 -0.8872  0.1209
   39CHL1   H1B 2858   5.125   0.727   3.619  0.3242 -2.4439  0.6919
   39CHL1    C2 2859   5.016   0.730   3.435 -0.2782 -0.0594  0.0191
   39CHL1   H2A 2860   5.045   0.837   3.422  1.9294 -0.1786  2.8961
   39CHL1   H2B 2861   4.917   0.706   3.389  1.0385 -3.5153 -1.3018
   39CHL1   C20 2862   4.928   0.320   4.296  0.3309  0.5651 -0.7422
   39CHL1   H20 2863   4.842   0.252   4.281  1.1966 -0.5098 -0.9369
   39CHL1   C21 2864   4.878   0.459   4.347  0.3377 -0.0116 -0.1105
   39CHL1  H21A 2865   4.956   0.537   4.359 -0.4832  1.1397 -1.8221
   39CHL1  H21B 2866   4.836   0.441   4.448 -0.0825 -4.4773 -0.8922
   39CHL1  H21C 2867   4.794   0.505   4.290  2.0315  0.9557 -1.9414
   39CHL1   C22 2868   5.010   0.266   4.414  0.0795 -0.1789 -0.2612
   39CHL1  H22A 2869   4.947   0.240   4.502  1.8451 -0.5097  0.9705
   39CHL1  H22B 2870   5.064   0.177   4.376  0.6724  0.5534 -1.1615
   39CHL1   C23 2871   5.117   0.360   4.485 -0.5998 -0.7183  0.3732
   39CHL1  H23A 2872   5.154   0.432   4.409  0.3599  0.6640  2.0818
   39CHL1  H23B 2873   5.097   0.400   4.587 -2.6186 -2.4838  0.7377
   39CHL1   C24 2874   5.237   0.263   4.526 -0.2099  0.0671 -0.1086
   39CHL1  H24A 2875   5.212   0.194   4.609 -2.2918 -0.0559 -0.7738
   39CHL1  H24B 2876   5.265   0.208   4.434  0.8567 -1.0847  0.8751
   39CHL1   C25 2877   5.359   0.332   4.585 -0.7616  0.0890 -0.2087
   39CHL1   H25 2878   5.330   0.390   4.676  1.4507  0.2815  0.4575
   39CHL1   C26 2879   5.464   0.222   4.628 -0.3123  0.3299  0.2905
   39CHL1  H26A 2880   5.429   0.145   4.700 -3.0146  0.4512 -0.7710
   39CHL1  H26B 2881   5.485   0.163   4.536 -0.8254  1.7184 -0.7576
   39CHL1  H26C 2882   5.560   0.267   4.659 -1.2114  3.0045 -0.5352
   39CHL1   C27 2883   5.428   0.434   4.484 -0.2928 -0.1528 -0.0447
   39CHL1  H27A 2884   5.525   0.463   4.531  0.8269 -0.8493 -1.8166
   39CHL1  H27B 2885   5.466   0.381   4.394 -0.8202  0.8479 -0.8759
   39CHL1  H27C 2886   5.362   0.521   4.466 -0.5131 -0.2036  0.4987
   40CHL1    C3 2887   2.833   5.821   3.149  0.6253  0.2654  0.2955
   40CHL1    H3 2888   2.738   5.863   3.189 -1.1739 -1.9625 -1.3358
   40CHL1    O3 2889   2.789   5.750   3.034 -0.2406  0.4153  0.1339
   40CHL1   H3' 2890   2.856   5.683   3.025  0.0581  0.5744  1.0123
   40CHL1    C4 2891   2.931   5.926   3.115 -0.0990  0.3612 -0.1333
   40CHL1   H4A 2892   3.008   5.882   3.048 -0.7474  1.8544 -1.9517
   40CHL1   H4B 2893   2.880   6.001   3.050  0.3839 -0.0066 -0.9470
   40CHL1    C5 2894   2.993   5.985   3.240  0.3067  0.2329 -0.7531
   40CHL1    C6 2895   2.987   6.116   3.242 -0.5417  0.0318 -0.4490
   40CHL1    H6 2896   2.941   6.180   3.165 -0.4451  0.3646 -0.2316
   40CHL1    C7 2897   3.034   6.195   3.363  0.0167  0.1236  0.1355
   40CHL1   H7A 2898   3.094   6.281   3.324  1.3217 -1.4449 -1.5204
   40CHL1   H7B 2899   2.943   6.244   3.403  0.1183 -0.4661  1.1272
   40CHL1    C8 2900   3.118   6.116   3.473  0.5088  0.3124  0.6737
   40CHL1    H8 2901   3.217   6.097   3.426  0.3832 -1.0569  0.9240
   40CHL1   C14 2902   3.114   6.192   3.607 -0.3166  0.3808 -0.1261
   40CHL1   H14 2903   3.008   6.204   3.638 -0.0482 -1.9809  2.0325
   40CHL1   C15 2904   3.168   6.338   3.599 -0.4990 -0.0183  0.0034
   40CHL1  H15A 2905   3.268   6.358   3.554 -2.0116  1.6899 -2.8750
   40CHL1  H15B 2906   3.101   6.406   3.543 -1.4653  0.3956  1.5857
   40CHL1   C16 2907   3.184   6.364   3.751 -0.2802 -0.4652 -0.0956
   40CHL1  H16A 2908   3.273   6.421   3.784  0.0839 -0.2115 -1.4625
   40CHL1  H16B 2909   3.097   6.428   3.780 -0.4084 -0.8003  0.2663
   40CHL1   C17 2910   3.157   6.234   3.838 -0.1625  0.2471  0.1705
   40CHL1   H17 2911   3.051   6.239   3.868  0.2879  0.0345  1.9145
   40CHL1   C13 2912   3.177   6.121   3.729 -0.1339  0.2860 -0.3519
   40CHL1   C18 2913   3.328   6.107   3.707 -0.2902  0.0283  0.7207
   40CHL1  H18A 2914   3.388   6.200   3.696 -0.0248 -0.0541  1.4273
   40CHL1  H18B 2915   3.361   6.058   3.801 -2.7414 -1.7859  0.7529
   40CHL1  H18C 2916   3.343   6.041   3.619  3.4279 -1.1696  2.0557
   40CHL1   C12 2917   3.117   5.983   3.745 -0.2346 -0.2044  0.1182
   40CHL1  H12A 2918   3.146   5.919   3.831  0.6754  0.1211  0.0608
   40CHL1  H12B 2919   3.010   6.012   3.753 -0.7886 -2.0496 -0.1680
   40CHL1   C11 2920   3.118   5.898   3.612  0.5064 -0.3169  0.4341
   40CHL1  H11A 2921   3.225   5.876   3.591  0.7998  1.1920  0.2308
   40CHL1  H11B 2922   3.067   5.799   3.616  0.1678 -0.2797 -1.8054
   40CHL1    C9 2923   3.062   5.978   3.492  0.3217  0.5110  0.1468
   40CHL1    H9 2924   2.955   5.996   3.517  0.3995  1.3800 -0.1143
   40CHL1   C10 2925   3.046   5.897   3.360 -0.3159 -0.2914 -0.1594
   40CHL1   C19 2926   3.179   5.834   3.323 -0.3484  0.0897 -0.4899
   40CHL1  H19A 2927   3.262   5.905   3.301  0.9849 -1.1724  0.2165
   40CHL1  H19B 2928   3.206   5.759   3.401 -0.2850  0.6560  0.0381
   40CHL1  H19C 2929   3.168   5.762   3.239  2.2309  1.1568 -1.8578
   40CHL1    C1 2930   2.938   5.785   3.378 -0.0119  0.3016  0.2164
   40CHL1   H1A 2931   2.991   5.696   3.418  0.0916  0.3814  0.2595
   40CHL1   H1B 2932   2.853   5.807   3.446 -0.7965 -4.3294  1.0565
   40CHL1    C2 2933   2.888   5.721   3.248 -0.1055 -0.3165  0.3962
   40CHL1   H2A 2934   2.809   5.647   3.276 -0.0818 -0.0120  1.3233
   40CHL1   H2B 2935   2.970   5.663   3.201 -0.8071  0.9818 -2.6057
   40CHL1   C20 2936   3.232   6.232   3.966 -0.3003  0.5932 -0.2669
   40CHL1   H20 2937   3.340   6.257   3.956  0.0460 -0.5687  0.4576
   40CHL1   C21 2938   3.231   6.096   4.045  0.2004 -0.3875 -0.2641
   40CHL1  H21A 2939   3.291   6.017   3.994 -2.1012 -1.3482 -1.6566
   40CHL1  H21B 2940   3.129   6.061   4.070  0.0018  0.9957  1.0095
   40CHL1  H21C 2941   3.280   6.114   4.143  2.0137 -1.1409 -0.9757
   40CHL1   C22 2942   3.193   6.344   4.070  0.1417 -0.1870  0.1997
   40CHL1  H22A 2943   3.251   6.327   4.163 -0.6296  0.0069  0.7320
   40CHL1  H22B 2944   3.219   6.442   4.024 -1.2898  0.0095 -0.2597
   40CHL1   C23 2945   3.041   6.348   4.105 -0.1365 -0.6175  0.1593
   40CHL1  H23A 2946   2.985   6.381   4.015  2.5025  2.7713 -0.4550
   40CHL1  H23B 2947   3.013   6.245   4.137 -1.9878  0.3854  2.0407
   40CHL1   C24 2948   3.015   6.452   4.221  0.7712 -0.3212 -0.4427
   40CHL1  H24A 2949   2.906   6.456   4.243  1.0619 -0.2848  1.0748
   40CHL1  H24B 2950   3.062   6.420   4.316 -1.3603 -1.5467  0.2830
   40CHL1   C25 2951   3.052   6.599   4.185  0.2135 -0.1564 -0.3659
   40CHL1   H25 2952   3.161   6.613   4.164 -0.1364  2.4536 -0.7923
   40CHL1   C26 2953   2.974   6.650   4.062  0.6652  0.1451 -0.4272
   40CHL1  H26A 2954   2.865   6.637   4.077  1.2344 -2.6036  2.1678
   40CHL1  H26B 2955   3.000   6.754   4.033 -2.6255  0.6173 -2.1826
   40CHL1  H26C 2956   2.995   6.599   3.966 -0.0415 -1.6957  0.3580
   40CHL1   C27 2957   3.026   6.691   4.309 -0.7879 -0.3777  0.1699
   40CHL1  H27A 2958   3.036   6.797   4.279  1.5052 -1.2211 -2.4881
   40CHL1  H27B 2959   2.921   6.671   4.338 -0.2809  2.1844  4.5546
   40CHL1  H27C 2960   3.104   6.661   4.382 -0.3569  1.7851  0.6667
   41CHL1    C3 2961   0.394   2.666   3.227 -0.0543  0.3543  0.7489
   41CHL1    H3 2962   0.496   2.629   3.251  0.5414 -1.5363 -3.7580
   41CHL1    O3 2963   0.392   2.670   3.089 -0.1834  0.1841 -0.8512
   41CHL1   H3' 2964   0.298   2.673   3.073 -0.9302 -1.6197  2.3405
   41CHL1    C4 2965   0.295   2.563   3.274  0.7269 -0.0570 -0.5761
   41CHL1   H4A 2966   0.195   2.588   3.235 -0.0368  0.8142  1.7435
   41CHL1   H4B 2967   0.339   2.466   3.240  0.8664  0.4645 -1.9105
   41CHL1    C5 2968   0.278   2.562   3.426 -0.4219 -0.1678  0.0711
   41CHL1    C6 2969   0.308   2.445   3.490 -0.4847  1.2709 -0.0760
   41CHL1    H6 2970   0.346   2.362   3.429 -2.3237  0.6649 -0.4638
   41CHL1    C7 2971   0.271   2.414   3.636  0.5189 -0.4687 -0.4149
   41CHL1   H7A 2972   0.218   2.319   3.659 -1.0018  0.7867  1.7086
   41CHL1   H7B 2973   0.356   2.426   3.707 -0.1474  1.3551  0.1512
   41CHL1    C8 2974   0.172   2.527   3.685 -0.1916 -0.0944 -0.4477
   41CHL1    H8 2975   0.074   2.510   3.634 -0.5651  2.1438 -0.5702
   41CHL1   C14 2976   0.156   2.515   3.835 -0.3435 -0.3063 -0.4657
   41CHL1   H14 2977   0.259   2.522   3.878 -0.6688  0.9452  0.1541
   41CHL1   C15 2978   0.098   2.384   3.898 -0.9551 -0.5874  0.0811
   41CHL1  H15A 2979   0.017   2.354   3.827 -0.0120  0.2621 -1.4125
   41CHL1  H15B 2980   0.174   2.303   3.904 -0.1878 -0.0779 -1.9211
   41CHL1   C16 2981   0.044   2.421   4.035 -0.1068 -0.2316 -0.3006
   41CHL1  H16A 2982  -0.062   2.388   4.035 -0.3993  0.6642 -1.4392
   41CHL1  H16B 2983   0.097   2.369   4.119 -2.6762 -1.0414  0.9171
   41CHL1   C17 2984   0.051   2.578   4.044  0.1076  0.9523 -0.4183
   41CHL1   H17 2985   0.148   2.593   4.096  0.3435  2.5922 -1.2425
   41CHL1   C13 2986   0.078   2.630   3.898  0.1750 -0.5447 -0.0129
   41CHL1   C18 2987  -0.069   2.648   3.829  0.4728  0.2285 -0.5040
   41CHL1  H18A 2988  -0.077   2.655   3.718 -1.5467  1.0001 -0.3687
   41CHL1  H18B 2989  -0.142   2.569   3.857 -0.5071 -0.2093 -3.8450
   41CHL1  H18C 2990  -0.120   2.742   3.859  1.3483  1.2900 -2.2119
   41CHL1   C12 2991   0.169   2.753   3.888 -0.3777 -1.0298  0.9589
   41CHL1  H12A 2992   0.134   2.843   3.943  0.1899 -1.3496  1.8646
   41CHL1  H12B 2993   0.271   2.732   3.926  0.3344 -1.3340 -1.0317
   41CHL1   C11 2994   0.178   2.790   3.736 -0.1462  0.0594 -0.5273
   41CHL1  H11A 2995   0.077   2.818   3.696  0.1497  0.2531 -1.1616
   41CHL1  H11B 2996   0.239   2.883   3.724  0.2416  0.0676  1.3101
   41CHL1    C9 2997   0.232   2.664   3.647  0.3418 -0.5134 -0.4343
   41CHL1    H9 2998   0.339   2.660   3.675  0.0503  1.4260  1.1867
   41CHL1   C10 2999   0.237   2.691   3.491 -0.1783  0.6865  0.5636
   41CHL1   C19 3000   0.098   2.730   3.437  0.1226  0.6893 -0.2932
   41CHL1  H19A 3001   0.064   2.833   3.460 -2.1175 -0.0139 -0.2033
   41CHL1  H19B 3002   0.094   2.725   3.326  1.9308 -0.9860 -0.3427
   41CHL1  H19C 3003   0.017   2.660   3.466  0.4403  0.1095 -0.7699
   41CHL1    C1 3004   0.345   2.791   3.443  0.0445 -0.1055 -0.8234
   41CHL1   H1A 3005   0.323   2.894   3.477 -2.1419 -0.1797 -1.8494
   41CHL1   H1B 3006   0.440   2.755   3.488 -0.1490  1.5976  1.0888
   41CHL1    C2 3007   0.360   2.799   3.291  0.0810 -0.5239 -0.1735
   41CHL1   H2A 3008   0.439   2.871   3.258  0.3253 -0.0847  1.2491
   41CHL1   H2B 3009   0.263   2.837   3.254 -0.4471 -0.8639  0.8311
   41CHL1   C20 3010  -0.050   2.651   4.135  0.0268 -0.2150  0.5192
   41CHL1   H20 3011  -0.149   2.662   4.086 -0.0855  0.4897  0.8909
   41CHL1   C21 3012   0.008   2.787   4.186  0.4879 -0.6275  0.1475
   41CHL1  H21A 3013  -0.062   2.826   4.263  1.7331 -1.1632  1.6097
   41CHL1  H21B 3014   0.031   2.864   4.109  0.1197  1.5457  2.1137
   41CHL1  H21C 3015   0.106   2.756   4.228 -0.7061 -3.0020  1.4145
   41CHL1   C22 3016  -0.082   2.559   4.256 -0.2031 -0.1636  0.0874
   41CHL1  H22A 3017  -0.169   2.603   4.308  0.2978  1.3081 -0.2672
   41CHL1  H22B 3018  -0.119   2.461   4.217  0.6893 -0.9522  1.1436
   41CHL1   C23 3019   0.029   2.527   4.356 -0.0882 -0.9013  0.5484
   41CHL1  H23A 3020   0.115   2.476   4.306  0.1891 -0.1391  0.2326
   41CHL1  H23B 3021   0.071   2.618   4.403  0.2315 -1.2701  0.9938
   41CHL1   C24 3022  -0.035   2.434   4.463 -0.7650  0.2360 -0.4278
   41CHL1  H24A 3023  -0.102   2.490   4.531 -0.7444 -1.8388  1.4347
   41CHL1  H24B 3024  -0.088   2.352   4.410  1.4616 -1.4908 -0.1882
   41CHL1   C25 3025   0.078   2.374   4.556 -0.3060  0.4732 -0.3210
   41CHL1   H25 3026   0.155   2.454   4.568 -1.0994  1.3468 -0.9345
   41CHL1   C26 3027   0.023   2.338   4.696 -0.6116  0.1652 -0.0287
   41CHL1  H26A 3028   0.107   2.301   4.759 -1.3250  1.9606  2.1081
   41CHL1  H26B 3029  -0.023   2.429   4.741  1.8478  1.3641  0.2093
   41CHL1  H26C 3030  -0.057   2.262   4.677  0.6676 -0.7745 -1.9684
   41CHL1   C27 3031   0.145   2.249   4.494  0.1192 -0.0713 -0.1417
   41CHL1  H27A 3032   0.230   2.231   4.563 -0.0323 -0.9156 -0.1726
   41CHL1  H27B 3033   0.075   2.165   4.477  0.6778 -0.2817 -1.4939
   41CHL1  H27C 3034   0.189   2.277   4.396  1.9850 -0.9318  0.3957
   42CHL1    C3 3035   1.303   0.936   3.150  0.2092  0.2552 -0.7277
   42CHL1    H3 3036   1.294   0.830   3.180  0.4614  0.6050  0.6947
   42CHL1    O3 3037   1.358   0.937   3.021  0.3411 -0.5326 -0.5570
   42CHL1   H3' 3038   1.364   1.028   2.992  2.8359 -0.5981 -0.5363
   42CHL1    C4 3039   1.173   1.011   3.156 -0.6546  0.3427  0.1816
   42CHL1   H4A 3040   1.189   1.110   3.109  4.0276 -0.8967 -1.3208
   42CHL1   H4B 3041   1.098   0.960   3.091 -0.5417  1.4949 -0.8763
   42CHL1    C5 3042   1.125   1.007   3.298 -0.6373  0.3413  0.0208
   42CHL1    C6 3043   1.011   0.948   3.326 -0.1332 -0.3604 -0.7291
   42CHL1    H6 3044   0.945   0.918   3.243 -1.3065  0.1136  0.0053
   42CHL1    C7 3045   0.958   0.928   3.465  0.2399  0.0522 -0.4862
   42CHL1   H7A 3046   0.848   0.928   3.449  0.3813 -0.4547 -1.6058
   42CHL1   H7B 3047   0.994   0.829   3.500  2.3622  1.0770  0.3934
   42CHL1    C8 3048   1.024   1.026   3.561  0.2645 -0.3783 -0.3277
   42CHL1    H8 3049   0.981   1.128   3.550  0.5138 -0.0914  1.0881
   42CHL1   C14 3050   0.998   0.992   3.712 -0.2896 -0.0081 -0.1427
   42CHL1   H14 3051   1.043   0.893   3.733  1.3370  1.2580  2.9960
   42CHL1   C15 3052   0.854   0.969   3.752 -0.2387  0.3284 -0.4631
   42CHL1  H15A 3053   0.790   1.046   3.703 -0.7391 -0.2919 -0.8057
   42CHL1  H15B 3054   0.825   0.865   3.726  0.5907 -0.2154  0.7151
   42CHL1   C16 3055   0.853   0.983   3.907 -0.8891 -0.4843 -0.9849
   42CHL1  H16A 3056   0.780   1.062   3.935  0.0101 -0.4208  1.3893
   42CHL1  H16B 3057   0.828   0.885   3.954  0.8553 -0.6403 -0.3237
   42CHL1   C17 3058   0.993   1.037   3.948 -0.1562 -0.4861 -0.3593
   42CHL1   H17 3059   1.058   0.948   3.965  0.0578 -0.0847  1.0799
   42CHL1   C13 3060   1.058   1.088   3.821  0.0384  0.3797  0.0690
   42CHL1   C18 3061   1.016   1.232   3.797 -0.0102  0.5158  0.1063
   42CHL1  H18A 3062   1.047   1.269   3.697  0.0372  0.4563  0.0991
   42CHL1  H18B 3063   0.905   1.238   3.800 -0.1067 -0.0604 -1.4796
   42CHL1  H18C 3064   1.067   1.303   3.865  1.7498 -0.4133 -0.1974
   42CHL1   C12 3065   1.212   1.062   3.808  0.0346  0.5442  0.8528
   42CHL1  H12A 3066   1.279   1.126   3.869 -0.1472  1.9582 -0.3648
   42CHL1  H12B 3067   1.240   0.957   3.829  1.6254  1.0617  1.5273
   42CHL1   C11 3068   1.257   1.094   3.660  0.0826 -0.3099  1.4831
   42CHL1  H11A 3069   1.235   1.203   3.658  0.4331 -0.2394  1.2267
   42CHL1  H11B 3070   1.366   1.079   3.649  0.2277 -0.0313  2.4712
   42CHL1    C9 3071   1.175   1.029   3.547  0.2107 -0.1599  0.3902
   42CHL1    H9 3072   1.193   0.921   3.563  0.4511  0.0359  1.4928
   42CHL1   C10 3073   1.226   1.055   3.407  0.1930 -0.7014  0.1787
   42CHL1   C19 3074   1.242   1.212   3.380 -0.4598  0.2536  0.6649
   42CHL1  H19A 3075   1.281   1.243   3.281 -0.2123 -1.0160  0.3523
   42CHL1  H19B 3076   1.148   1.269   3.397 -1.2418 -0.4732 -1.0763
   42CHL1  H19C 3077   1.312   1.250   3.459 -2.3315 -0.1297  2.6010
   42CHL1    C1 3078   1.363   0.995   3.391  0.3707  0.7385  0.0510
   42CHL1   H1A 3079   1.433   1.044   3.461  1.0449 -1.1492  0.7484
   42CHL1   H1B 3080   1.369   0.887   3.416  1.5818  1.0990  1.4423
   42CHL1    C2 3081   1.408   0.994   3.247 -0.3746  0.4947 -0.4097
   42CHL1   H2A 3082   1.505   0.941   3.232 -1.3002 -1.6942  0.8260
   42CHL1   H2B 3083   1.420   1.098   3.209 -1.5160  0.1147 -1.9011
   42CHL1   C20 3084   0.995   1.115   4.086  0.1690 -0.0612  0.0571
   42CHL1   H20 3085   0.930   1.202   4.066 -0.4455  0.1179  2.5530
   42CHL1   C21 3086   1.138   1.154   4.123  0.3598 -0.2005 -0.7568
   42CHL1  H21A 3087   1.165   1.241   4.061  2.7552 -2.2850 -2.8656
   42CHL1  H21B 3088   1.215   1.076   4.106  1.2806  0.7442 -0.9664
   42CHL1  H21C 3089   1.141   1.180   4.231 -1.8721  1.0230 -0.9143
   42CHL1   C22 3090   0.927   1.033   4.203  0.6587  0.4713  0.0743
   42CHL1  H22A 3091   0.840   0.973   4.169 -0.8548  1.2323  2.4258
   42CHL1  H22B 3092   0.991   0.960   4.257 -2.2490  0.0664  3.2703
   42CHL1   C23 3093   0.853   1.118   4.307 -0.2710  0.1144 -0.7718
   42CHL1  H23A 3094   0.925   1.189   4.353 -1.2196  1.0557 -0.7019
   42CHL1  H23B 3095   0.769   1.175   4.262 -1.9342  0.4373  2.4637
   42CHL1   C24 3096   0.796   1.037   4.429 -0.0201  0.7500 -0.1411
   42CHL1  H24A 3097   0.718   0.968   4.389 -0.0488 -1.3897  3.1962
   42CHL1  H24B 3098   0.876   0.973   4.471 -0.4320  0.6621  0.5271
   42CHL1   C25 3099   0.728   1.117   4.545  0.5511 -0.2799 -0.5405
   42CHL1   H25 3100   0.802   1.189   4.585 -0.0627 -0.4185  0.9073
   42CHL1   C26 3101   0.600   1.192   4.486 -0.5187 -0.4505 -0.8584
   42CHL1  H26A 3102   0.531   1.119   4.437  0.2076 -1.1717 -0.8358
   42CHL1  H26B 3103   0.555   1.237   4.577  1.4200  0.1973 -0.1692
   42CHL1  H26C 3104   0.632   1.269   4.412 -0.2026  1.0265  0.7655
   42CHL1   C27 3105   0.688   1.026   4.663 -0.2666 -0.0870  1.2733
   42CHL1  H27A 3106   0.618   0.945   4.631 -0.7628  1.4264 -1.7669
   42CHL1  H27B 3107   0.779   0.969   4.692 -0.5254 -3.1251 -2.9752
   42CHL1  H27C 3108   0.655   1.089   4.748  1.1304  1.5804  0.6377
   43CHL1    C3 3109   6.148   6.244   3.027  0.5303 -0.1995 -1.2189
   43CHL1    H3 3110   6.041   6.223   3.004 -0.4925  4.6024 -1.8574
   43CHL1    O3 3111   6.203   6.302   2.913 -0.5978  0.5236  0.0187
   43CHL1   H3' 3112   6.177   6.242   2.843 -0.1663  1.8547 -1.3160
   43CHL1    C4 3113   6.159   6.353   3.139 -0.3051 -0.6631  0.1103
   43CHL1   H4A 3114   6.262   6.397   3.134  0.3706 -1.6689  3.1282
   43CHL1   H4B 3115   6.093   6.442   3.130  0.1101 -0.3801 -0.2098
   43CHL1    C5 3116   6.133   6.292   3.279  0.8416  0.5645 -0.1347
   43CHL1    C6 3117   6.040   6.342   3.360  0.1225 -0.4051  0.2083
   43CHL1    H6 3118   5.981   6.430   3.329  1.7824  0.3715 -0.8839
   43CHL1    C7 3119   6.013   6.297   3.496  0.4336  0.1916  0.1649
   43CHL1   H7A 3120   6.013   6.380   3.570  0.9045  1.0303 -0.7673
   43CHL1   H7B 3121   5.909   6.257   3.502 -0.0075  0.8560 -2.2702
   43CHL1    C8 3122   6.115   6.197   3.551 -1.5672 -0.3779  1.1114
   43CHL1    H8 3123   6.209   6.253   3.570 -1.7522 -0.1491  1.3577
   43CHL1   C14 3124   6.060   6.129   3.674  0.2382  0.3319 -0.4988
   43CHL1   H14 3125   5.966   6.077   3.645 -1.0389  2.8065 -1.0131
   43CHL1   C15 3126   6.011   6.213   3.791 -0.3965 -1.2416 -0.1884
   43CHL1  H15A 3127   6.083   6.290   3.827 -1.0758 -0.2543 -0.9150
   43CHL1  H15B 3128   5.923   6.273   3.761 -0.4480 -2.2148 -2.1312
   43CHL1   C16 3129   5.996   6.112   3.907 -0.1068 -0.1606  0.0764
   43CHL1  H16A 3130   6.043   6.143   4.004  0.8515 -2.5860  0.4602
   43CHL1  H16B 3131   5.889   6.084   3.915  0.6614 -4.0380 -1.2329
   43CHL1   C17 3132   6.073   5.980   3.861  0.7495  0.1732  0.7158
   43CHL1   H17 3133   5.993   5.914   3.820  0.4737  0.6828  0.4202
   43CHL1   C13 3134   6.154   6.021   3.730 -0.5544  0.4302 -0.2840
   43CHL1   C18 3135   6.291   6.085   3.769 -0.4240 -0.2566 -0.5220
   43CHL1  H18A 3136   6.270   6.161   3.848  0.8501  0.5865 -0.9642
   43CHL1  H18B 3137   6.363   6.013   3.813 -2.0134 -0.8997  1.1664
   43CHL1  H18C 3138   6.337   6.140   3.684 -0.2986  0.8471  0.2362
   43CHL1   C12 3139   6.178   5.913   3.624 -0.0754  0.5349  0.2247
   43CHL1  H12A 3140   6.256   5.848   3.668 -0.4148  0.3875  0.6141
   43CHL1  H12B 3141   6.080   5.868   3.597  0.5665 -0.9311  0.2853
   43CHL1   C11 3142   6.243   5.980   3.495 -0.0135 -0.6174 -0.0506
   43CHL1  H11A 3143   6.344   6.020   3.521 -0.0382 -0.4018 -0.2907
   43CHL1  H11B 3144   6.265   5.901   3.420 -0.9911 -0.6392 -0.3272
   43CHL1    C9 3145   6.156   6.098   3.442 -0.2546 -0.3648 -0.0798
   43CHL1    H9 3146   6.055   6.061   3.413 -0.3398  0.0641 -0.3331
   43CHL1   C10 3147   6.209   6.161   3.317  0.3481  0.3289  0.5165
   43CHL1   C19 3148   6.356   6.189   3.320 -0.8227 -0.7556  0.3097
   43CHL1  H19A 3149   6.431   6.111   3.296  1.3332  1.0543  0.8774
   43CHL1  H19B 3150   6.382   6.257   3.236 -2.4574 -0.7434 -0.2234
   43CHL1  H19C 3151   6.374   6.236   3.418 -0.2491  0.1083 -0.1989
   43CHL1    C1 3152   6.184   6.065   3.197 -0.3012  0.3647  0.1274
   43CHL1   H1A 3153   6.252   5.979   3.217  0.1895  1.0826  1.6489
   43CHL1   H1B 3154   6.076   6.039   3.188  0.0687 -1.5246  0.7017
   43CHL1    C2 3155   6.222   6.116   3.053 -0.5252  0.5234  0.0176
   43CHL1   H2A 3156   6.206   6.037   2.977 -2.1363  1.0955 -0.2787
   43CHL1   H2B 3157   6.330   6.144   3.049 -0.7553  1.3101 -0.9957
   43CHL1   C20 3158   6.140   5.894   3.967  0.2517 -0.0770 -0.3749
   43CHL1   H20 3159   6.234   5.938   4.009 -1.2998  1.3489  1.8333
   43CHL1   C21 3160   6.188   5.751   3.917  0.5469 -0.3192 -0.8461
   43CHL1  H21A 3161   6.285   5.750   3.863  0.1488  1.0989 -1.6497
   43CHL1  H21B 3162   6.113   5.693   3.858  1.1185 -2.5606  0.5209
   43CHL1  H21C 3163   6.209   5.696   4.011 -1.1181  0.1037 -0.1966
   43CHL1   C22 3164   6.032   5.862   4.078 -0.6249 -0.8245 -0.3555
   43CHL1  H22A 3165   5.930   5.882   4.039 -0.8643  1.4667  1.2186
   43CHL1  H22B 3166   6.044   5.757   4.113 -0.1539 -1.2105 -1.6114
   43CHL1   C23 3167   6.052   5.947   4.205  0.1749  0.2330  0.6348
   43CHL1  H23A 3168   6.045   6.055   4.181  3.8039  0.3066 -0.7501
   43CHL1  H23B 3169   5.969   5.914   4.271 -0.5186  1.4861  0.4157
   43CHL1   C24 3170   6.194   5.931   4.267  0.1898  0.0123 -0.3965
   43CHL1  H24A 3171   6.237   5.829   4.274 -0.5864 -0.3390 -0.6356
   43CHL1  H24B 3172   6.266   5.992   4.208  0.0183 -0.3081 -0.9511
   43CHL1   C25 3173   6.208   5.999   4.407 -0.8197  0.0804 -0.3273
   43CHL1   H25 3174   6.173   6.104   4.400 -0.0838  0.2363 -2.1812
   43CHL1   C26 3175   6.125   5.930   4.516 -0.1969  0.0966 -0.3054
   43CHL1  H26A 3176   6.174   5.832   4.537  0.5344  0.9115  2.1848
   43CHL1  H26B 3177   6.119   5.990   4.610  0.7441  0.2109 -0.3072
   43CHL1  H26C 3178   6.027   5.901   4.475 -0.2390 -2.4491  1.3729
   43CHL1   C27 3179   6.354   6.006   4.449 -0.2857 -0.4510 -0.0149
   43CHL1  H27A 3180   6.365   6.061   4.545  0.9965 -0.4035 -0.1693
   43CHL1  H27B 3181   6.385   5.902   4.471  1.5037  0.6651  3.5466
   43CHL1  H27C 3182   6.416   6.051   4.369 -0.0966 -0.9746 -0.1615
   44CHL1    C3 3183   2.076   2.824   3.190 -0.2737  0.5011 -0.0894
   44CHL1    H3 3184   1.990   2.889   3.163 -0.2059  1.4802  1.8443
   44CHL1    O3 3185   2.125   2.774   3.069 -0.0824 -0.2955  0.1064
   44CHL1   H3' 3186   2.188   2.842   3.042  0.1634 -1.4230 -2.4664
   44CHL1    C4 3187   2.198   2.893   3.259 -0.0874  0.5272  0.6862
   44CHL1   H4A 3188   2.281   2.820   3.252  0.0466  0.7233  0.1001
   44CHL1   H4B 3189   2.220   2.986   3.201 -0.1869  0.7488  0.9972
   44CHL1    C5 3190   2.181   2.920   3.407 -0.5024  0.2096 -0.6004
   44CHL1    C6 3191   2.202   3.044   3.462  0.5076 -0.2102  0.4364
   44CHL1    H6 3192   2.234   3.126   3.395  0.0772 -0.6072 -0.2716
   44CHL1    C7 3193   2.184   3.074   3.610 -0.2429 -0.4140  0.0204
   44CHL1   H7A 3194   2.274   3.131   3.639 -0.5570 -0.1756  0.5448
   44CHL1   H7B 3195   2.095   3.139   3.626  0.9679  1.0447  1.1245
   44CHL1    C8 3196   2.161   2.952   3.699 -0.5727 -0.4569  0.0226
   44CHL1    H8 3197   2.259   2.900   3.699 -0.4146 -0.1989 -1.7655
   44CHL1   C14 3198   2.138   2.988   3.844  0.3021  0.2356 -0.3650
   44CHL1   H14 3199   2.047   3.050   3.860 -0.7947 -1.3396 -0.1557
   44CHL1   C15 3200   2.244   3.059   3.930  0.0593 -0.0065 -0.0511
   44CHL1  H15A 3201   2.344   3.013   3.920  0.1435 -0.5231  2.5460
   44CHL1  H15B 3202   2.262   3.165   3.902  0.7932 -0.2306 -0.4359
   44CHL1   C16 3203   2.199   3.042   4.076 -0.4313 -0.2908 -0.1633
   44CHL1  H16A 3204   2.293   3.015   4.129 -0.3321 -0.1558 -0.2690
   44CHL1  H16B 3205   2.165   3.140   4.116 -1.8262 -0.5400 -0.7200
   44CHL1   C17 3206   2.090   2.927   4.076  0.0704  0.0747 -0.5242
   44CHL1   H17 3207   1.993   2.982   4.078 -0.7942 -1.4000 -0.2093
   44CHL1   C13 3208   2.106   2.861   3.934 -0.5634  0.0339  0.4682
   44CHL1   C18 3209   2.229   2.764   3.941 -0.6771 -0.6439  0.0555
   44CHL1  H18A 3210   2.270   2.721   3.847  0.7923 -1.4203  1.0064
   44CHL1  H18B 3211   2.323   2.811   3.976  0.7360 -2.0485 -1.6601
   44CHL1  H18C 3212   2.200   2.673   3.998  2.0191 -0.5194  1.8205
   44CHL1   C12 3213   1.981   2.794   3.878 -0.1220 -0.6412  0.2041
   44CHL1  H12A 3214   1.945   2.711   3.943  1.8203 -0.2509  1.8814
   44CHL1  H12B 3215   1.906   2.876   3.875  0.2687 -0.3104 -0.8726
   44CHL1   C11 3216   2.000   2.750   3.732 -0.1300  0.9562  0.3291
   44CHL1  H11A 3217   2.074   2.667   3.736 -2.5860 -1.6818 -2.8707
   44CHL1  H11B 3218   1.906   2.705   3.693 -0.0717  1.0138  0.1195
   44CHL1    C9 3219   2.051   2.859   3.632  0.0312 -0.3437  0.8000
   44CHL1    H9 3220   1.968   2.930   3.612 -0.0889 -1.0911 -1.7201
   44CHL1   C10 3221   2.109   2.811   3.490 -0.0874 -0.0225 -0.8251
   44CHL1   C19 3222   2.211   2.695   3.517  0.1249  0.4424  0.4984
   44CHL1  H19A 3223   2.154   2.607   3.553 -1.0306  0.5173 -1.0462
   44CHL1  H19B 3224   2.262   2.661   3.424  3.3467  3.3794  0.9775
   44CHL1  H19C 3225   2.291   2.720   3.590  3.1235  0.8431 -2.6547
   44CHL1    C1 3226   1.992   2.752   3.411 -0.4695  0.0912 -0.0607
   44CHL1   H1A 3227   1.970   2.656   3.462 -2.0956  0.6039  0.2661
   44CHL1   H1B 3228   1.904   2.819   3.408 -0.1111  0.5160 -1.5797
   44CHL1    C2 3229   2.029   2.702   3.268 -0.0710  0.2888 -0.3514
   44CHL1   H2A 3230   1.940   2.653   3.223  1.0385 -2.5850  0.3707
   44CHL1   H2B 3231   2.104   2.620   3.273 -0.8000 -0.3292  1.4732
   44CHL1   C20 3232   2.108   2.836   4.198 -0.6046  0.4395  0.2674
   44CHL1   H20 3233   2.210   2.791   4.197 -1.4672 -1.6846  1.7089
   44CHL1   C21 3234   2.003   2.721   4.207  0.0603 -0.5572 -0.1941
   44CHL1  H21A 3235   1.989   2.689   4.312 -1.5122  1.7843  0.3966
   44CHL1  H21B 3236   2.029   2.638   4.138 -1.5878  0.7582 -2.5392
   44CHL1  H21C 3237   1.906   2.762   4.172 -0.4464 -2.3388 -0.9873
   44CHL1   C22 3238   2.096   2.910   4.332 -0.5634 -0.1991 -0.1665
   44CHL1  H22A 3239   2.115   2.847   4.422  3.3983  2.2929  1.0133
   44CHL1  H22B 3240   2.177   2.986   4.338  0.9456 -1.8404  2.2570
   44CHL1   C23 3241   1.973   2.993   4.350  1.0313  0.0714 -0.1852
   44CHL1  H23A 3242   1.958   3.058   4.261  1.5380 -0.4770 -0.6851
   44CHL1  H23B 3243   1.886   2.925   4.351  1.1062 -0.0534 -1.0657
   44CHL1   C24 3244   1.975   3.084   4.474 -0.2109  0.1232  0.2548
   44CHL1  H24A 3245   2.008   3.016   4.555 -0.9130  0.0284  0.4699
   44CHL1  H24B 3246   2.066   3.145   4.458  0.4287 -0.8673  0.0233
   44CHL1   C25 3247   1.837   3.136   4.516  0.6803  0.8752 -0.3940
   44CHL1   H25 3248   1.786   3.170   4.424  0.6293  2.2102  0.0928
   44CHL1   C26 3249   1.753   3.020   4.572  0.2379 -0.1673 -0.2788
   44CHL1  H26A 3250   1.650   3.059   4.591  0.0371 -0.1071 -1.4239
   44CHL1  H26B 3251   1.742   2.933   4.504 -1.6774  0.2766 -0.5872
   44CHL1  H26C 3252   1.808   2.979   4.659 -1.1641 -2.4859 -0.4111
   44CHL1   C27 3253   1.835   3.249   4.613 -0.5168  0.0348  0.1910
   44CHL1  H27A 3254   1.902   3.333   4.584  1.8991 -1.6726  0.5122
   44CHL1  H27B 3255   1.729   3.283   4.621 -0.9888 -1.3976  0.2315
   44CHL1  H27C 3256   1.870   3.226   4.716  1.2140 -2.0908 -0.7961
   45CHL1    C3 3257   3.249   1.619   3.027 -0.5030  0.2222  0.1498
   45CHL1    H3 3258   3.192   1.526   3.044 -1.3415  0.8851  1.1257
   45CHL1    O3 3259   3.244   1.651   2.887  0.3598  0.5329  0.7311
   45CHL1   H3' 3260   3.316   1.714   2.875  0.2833  0.1886 -2.4181
   45CHL1    C4 3261   3.189   1.742   3.097  0.0852  0.4076 -0.3327
   45CHL1   H4A 3262   3.244   1.829   3.057  0.8296  0.4797  0.8007
   45CHL1   H4B 3263   3.088   1.758   3.054 -0.2765  0.4188  0.4857
   45CHL1    C5 3264   3.200   1.740   3.249  0.3720  0.1046 -0.0860
   45CHL1    C6 3265   3.085   1.751   3.324 -0.6958 -0.0390  0.4513
   45CHL1    H6 3266   2.985   1.764   3.281 -0.6692 -0.3422  0.2985
   45CHL1    C7 3267   3.096   1.727   3.474 -0.0030  0.0535  1.0385
   45CHL1   H7A 3268   3.016   1.787   3.524 -1.7762 -0.4339 -1.0298
   45CHL1   H7B 3269   3.070   1.620   3.483  1.9040 -0.9584 -3.2549
   45CHL1    C8 3270   3.237   1.737   3.538  0.2696  0.3211  0.2331
   45CHL1    H8 3271   3.260   1.846   3.535  0.0023  0.4717  2.0311
   45CHL1   C14 3272   3.235   1.680   3.675 -0.3626 -0.1269 -0.1013
   45CHL1   H14 3273   3.223   1.571   3.658  1.2343 -0.0416 -2.1515
   45CHL1   C15 3274   3.124   1.716   3.770  0.4478 -0.4521  0.0071
   45CHL1  H15A 3275   3.107   1.826   3.769 -0.3006 -0.5430  1.3765
   45CHL1  H15B 3276   3.036   1.662   3.730  2.1252 -2.6737 -0.8907
   45CHL1   C16 3277   3.171   1.654   3.908 -0.0201 -0.5115  0.3900
   45CHL1  H16A 3278   3.144   1.731   3.982 -3.1947 -1.0263 -0.0498
   45CHL1  H16B 3279   3.106   1.569   3.940 -1.0635  0.5296  1.1385
   45CHL1   C17 3280   3.318   1.620   3.890 -0.5096  0.4108 -0.5278
   45CHL1   H17 3281   3.331   1.512   3.866 -2.6786 -0.0984  0.3013
   45CHL1   C13 3282   3.359   1.695   3.758 -0.1964  1.0770 -0.1068
   45CHL1   C18 3283   3.381   1.844   3.786  0.4700 -0.0531  0.3310
   45CHL1  H18A 3284   3.315   1.892   3.862  1.5852  0.0605  1.2601
   45CHL1  H18B 3285   3.481   1.864   3.830 -0.2023  0.2229  1.8220
   45CHL1  H18C 3286   3.374   1.902   3.692  2.4844 -0.0488  0.1544
   45CHL1   C12 3287   3.469   1.623   3.681 -0.0781 -0.0767 -0.0104
   45CHL1  H12A 3288   3.568   1.640   3.727 -1.1477  0.7194  2.1578
   45CHL1  H12B 3289   3.453   1.514   3.695 -3.9439  0.5029  1.4343
   45CHL1   C11 3290   3.481   1.659   3.531 -0.7816  0.9687 -0.3438
   45CHL1  H11A 3291   3.543   1.750   3.521  2.0619 -0.8870 -0.9098
   45CHL1  H11B 3292   3.534   1.576   3.479 -0.5921  1.3069 -0.6979
   45CHL1    C9 3293   3.343   1.663   3.457  0.6195  0.8413  0.4290
   45CHL1    H9 3294   3.300   1.561   3.459 -0.0352  1.1244  0.8046
   45CHL1   C10 3295   3.343   1.705   3.306 -0.3828  0.1864  0.2161
   45CHL1   C19 3296   3.425   1.838   3.305 -0.4874 -0.4063 -0.3149
   45CHL1  H19A 3297   3.396   1.912   3.383  0.8203 -0.5449  0.3285
   45CHL1  H19B 3298   3.534   1.822   3.315 -0.4618 -1.9213 -2.2169
   45CHL1  H19C 3299   3.419   1.888   3.206  4.3159 -2.1171 -1.7257
   45CHL1    C1 3300   3.409   1.585   3.219 -0.0305 -0.3443 -0.0732
   45CHL1   H1A 3301   3.515   1.568   3.249  0.8626  1.4400 -1.9678
   45CHL1   H1B 3302   3.356   1.491   3.245  0.7844 -0.1651  2.5700
   45CHL1    C2 3303   3.403   1.601   3.067  0.1930  0.4611  0.8186
   45CHL1   H2A 3304   3.450   1.513   3.018 -1.2169 -0.2866  0.7434
   45CHL1   H2B 3305   3.463   1.689   3.037  1.1615 -1.0302 -1.9173
   45CHL1   C20 3306   3.397   1.651   4.023  0.4923 -0.8250 -0.5496
   45CHL1   H20 3307   3.383   1.759   4.044  0.9043 -1.1374  1.4945
   45CHL1   C21 3308   3.547   1.633   3.996  0.5947  0.2855 -0.4189
   45CHL1  H21A 3309   3.569   1.532   3.957  0.3684  0.7976 -1.9604
   45CHL1  H21B 3310   3.610   1.654   4.084 -0.6993  0.0094  0.6091
   45CHL1  H21C 3311   3.589   1.701   3.918  3.2225 -1.3066 -0.4834
   45CHL1   C22 3312   3.345   1.574   4.144  0.3608 -0.4404 -0.8634
   45CHL1  H22A 3313   3.237   1.548   4.146  0.9326 -3.0916 -0.5829
   45CHL1  H22B 3314   3.382   1.469   4.144  2.9783  0.4180 -0.1659
   45CHL1   C23 3315   3.382   1.636   4.283  0.0831 -0.3319 -0.1831
   45CHL1  H23A 3316   3.490   1.618   4.298 -0.2959 -4.0027 -0.8917
   45CHL1  H23B 3317   3.350   1.741   4.303 -0.1188 -0.5575  0.6953
   45CHL1   C24 3318   3.321   1.554   4.405 -0.7167 -0.4150 -0.1879
   45CHL1  H24A 3319   3.212   1.564   4.391 -0.4246  0.9459 -1.8186
   45CHL1  H24B 3320   3.334   1.444   4.398  0.3091 -0.5745  2.9430
   45CHL1   C25 3321   3.361   1.606   4.542 -0.2411  0.4938 -0.5257
   45CHL1   H25 3322   3.318   1.709   4.547 -0.8709  0.1705  1.7680
   45CHL1   C26 3323   3.300   1.516   4.651 -0.0675  0.5491  0.2288
   45CHL1  H26A 3324   3.330   1.560   4.748  2.4258 -1.3336  0.3968
   45CHL1  H26B 3325   3.189   1.505   4.642 -0.3010  0.2577  2.8114
   45CHL1  H26C 3326   3.346   1.415   4.643 -0.5682  0.4054 -1.1214
   45CHL1   C27 3327   3.517   1.621   4.562 -0.4154  0.1773 -0.0838
   45CHL1  H27A 3328   3.559   1.687   4.484  0.7004  0.4318  0.6981
   45CHL1  H27B 3329   3.544   1.660   4.663  1.5377 -0.6087 -0.2565
   45CHL1  H27C 3330   3.555   1.517   4.561 -0.6584  0.0893 -0.0499
   46CHL1    C3 3331   4.338   2.585   3.687 -0.0827 -0.4984 -0.5975
   46CHL1    H3 3332   4.298   2.501   3.748  0.6588 -0.6540 -0.3202
   46CHL1    O3 3333   4.322   2.554   3.547 -0.1294 -0.5794  0.2714
   46CHL1   H3' 3334   4.272   2.628   3.510  0.7290  1.2263  2.4910
   46CHL1    C4 3335   4.266   2.715   3.713  0.1043 -0.4767 -0.0776
   46CHL1   H4A 3336   4.300   2.800   3.650  0.6398 -0.2152  0.5581
   46CHL1   H4B 3337   4.159   2.706   3.682  0.1625  0.8297 -0.7764
   46CHL1    C5 3338   4.280   2.753   3.852 -0.6684 -0.2685 -0.3443
   46CHL1    C6 3339   4.173   2.774   3.932  0.2588 -0.2941  0.0839
   46CHL1    H6 3340   4.077   2.756   3.880  0.0816  0.1548  0.2547
   46CHL1    C7 3341   4.166   2.818   4.076  0.2540  0.3577 -0.2341
   46CHL1   H7A 3342   4.098   2.905   4.089 -0.3236 -0.0822 -0.2704
   46CHL1   H7B 3343   4.145   2.728   4.139 -2.1910  0.5554 -0.6598
   46CHL1    C8 3344   4.299   2.867   4.125 -0.4063 -0.1154 -0.4680
   46CHL1    H8 3345   4.321   2.967   4.082  1.6225 -0.3234 -0.0268
   46CHL1   C14 3346   4.301   2.871   4.281  0.3692 -0.5915 -0.1791
   46CHL1   H14 3347   4.288   2.763   4.307  1.6476 -0.3549  1.5734
   46CHL1   C15 3348   4.188   2.946   4.359  0.6209 -0.2620  0.3968
   46CHL1  H15A 3349   4.168   3.046   4.316 -0.0287  0.3314  2.0188
   46CHL1  H15B 3350   4.094   2.886   4.351  0.1252  0.6098 -0.4895
   46CHL1   C16 3351   4.240   2.970   4.500 -0.2081 -0.5240 -0.3004
   46CHL1  H16A 3352   4.245   3.078   4.527  3.5299  0.0418 -2.6031
   46CHL1  H16B 3353   4.187   2.909   4.577  1.2134 -0.4585  0.7600
   46CHL1   C17 3354   4.386   2.911   4.496 -0.0709 -0.2148 -0.2523
   46CHL1   H17 3355   4.380   2.802   4.519 -0.2835  0.0239  0.8929
   46CHL1   C13 3356   4.432   2.918   4.349  0.0278  0.3636  0.7081
   46CHL1   C18 3357   4.460   3.060   4.306 -0.5438 -0.2081 -1.1127
   46CHL1  H18A 3358   4.467   3.092   4.200  0.1964 -0.3502 -1.1105
   46CHL1  H18B 3359   4.385   3.126   4.356 -2.3283 -1.6427 -1.8034
   46CHL1  H18C 3360   4.555   3.090   4.355 -0.6568  0.6056 -1.3680
   46CHL1   C12 3361   4.547   2.821   4.298 -0.1613  0.4576 -0.1306
   46CHL1  H12A 3362   4.647   2.839   4.343  0.2299 -3.5470  0.9924
   46CHL1  H12B 3363   4.520   2.720   4.335 -0.5086  0.7410  0.3952
   46CHL1   C11 3364   4.554   2.820   4.138  0.3780 -0.0733 -0.6155
   46CHL1  H11A 3365   4.584   2.924   4.112 -1.0834  0.2771 -0.9545
   46CHL1  H11B 3366   4.643   2.762   4.104  0.7634 -0.0972  0.4004
   46CHL1    C9 3367   4.414   2.779   4.071 -0.9215  0.4493  0.4436
   46CHL1    H9 3368   4.399   2.679   4.115  4.5750 -1.3301 -0.9122
   46CHL1   C10 3369   4.419   2.775   3.911 -0.0799 -0.1733  0.4158
   46CHL1   C19 3370   4.487   2.895   3.846  0.5503  0.3112 -0.4093
   46CHL1  H19A 3371   4.451   2.991   3.889 -1.3739 -1.0846  1.2894
   46CHL1  H19B 3372   4.596   2.883   3.864  0.9293  0.6725 -2.2127
   46CHL1  H19C 3373   4.480   2.893   3.735 -2.0125  1.1320 -0.3275
   46CHL1    C1 3374   4.507   2.656   3.866 -0.5559  0.5059 -0.1245
   46CHL1   H1A 3375   4.616   2.676   3.876  0.2100 -2.2906 -1.9121
   46CHL1   H1B 3376   4.496   2.566   3.931 -0.7788  1.4655  1.2091
   46CHL1    C2 3377   4.486   2.605   3.721  0.2490  0.1457 -0.5489
   46CHL1   H2A 3378   4.543   2.512   3.701 -0.7000 -0.1373 -2.0784
   46CHL1   H2B 3379   4.532   2.680   3.654  4.0633 -0.4997  1.0553
   46CHL1   C20 3380   4.479   2.972   4.607  0.4127 -0.5687 -0.3031
   46CHL1   H20 3381   4.505   3.078   4.589 -0.8924  0.0061  0.9789
   46CHL1   C21 3382   4.618   2.893   4.606 -0.0027 -0.3428  0.4684
   46CHL1  H21A 3383   4.662   2.903   4.708 -0.5709  0.7006  0.6258
   46CHL1  H21B 3384   4.685   2.933   4.527  0.2275  2.3169  1.8808
   46CHL1  H21C 3385   4.598   2.785   4.591 -0.6001  0.0617 -2.1240
   46CHL1   C22 3386   4.420   2.968   4.751 -0.7290  0.5183 -0.0871
   46CHL1  H22A 3387   4.316   3.008   4.750 -0.9120  0.1322  1.5735
   46CHL1  H22B 3388   4.412   2.861   4.780 -0.7962  0.6225  0.2747
   46CHL1   C23 3389   4.490   3.057   4.860  1.1489 -0.7226 -0.1786
   46CHL1  H23A 3390   4.594   3.031   4.890  0.9234 -0.1825  1.1547
   46CHL1  H23B 3391   4.484   3.157   4.812 -0.7921  0.4680  2.2962
   46CHL1   C24 3392   4.405   3.052   4.990  0.1732  0.4801 -0.1589
   46CHL1  H24A 3393   4.301   3.081   4.965 -0.0474 -1.2328 -1.4183
   46CHL1  H24B 3394   4.405   2.945   5.020 -0.0682  0.3923 -0.4712
   46CHL1   C25 3395   4.460   3.149   5.100  0.1186 -0.1736  0.1069
   46CHL1   H25 3396   4.568   3.136   5.122  0.4613  0.5397 -1.0870
   46CHL1   C26 3397   4.432   3.287   5.050 -0.3614 -0.4697 -0.2365
   46CHL1  H26A 3398   4.325   3.307   5.024 -1.6768 -1.9626  3.3231
   46CHL1  H26B 3399   4.447   3.362   5.131  3.0326 -1.9923  0.6785
   46CHL1  H26C 3400   4.496   3.316   4.964 -0.6795 -0.9250 -0.6362
   46CHL1   C27 3401   4.383   3.118   5.229  0.0118 -0.0989  0.3847
   46CHL1  H27A 3402   4.276   3.106   5.202 -0.6572  1.9926  1.8716
   46CHL1  H27B 3403   4.417   3.025   5.280 -0.2060  0.2562  1.1898
   46CHL1  H27C 3404   4.396   3.202   5.300  0.1601  0.6834 -0.5605
   47CHL1    C3 3405   4.189   5.672   3.265 -0.7672  0.0167 -0.1244
   47CHL1    H3 3406   4.285   5.617   3.262 -1.3422 -1.1409  1.3156
   47CHL1    O3 3407   4.129   5.653   3.136  0.2925 -0.2186  0.3455
   47CHL1   H3' 3408   4.035   5.674   3.144 -0.0649 -0.7732 -1.8673
   47CHL1    C4 3409   4.114   5.601   3.380  0.2163  0.3335  0.5249
   47CHL1   H4A 3410   4.006   5.627   3.374  0.0044 -0.7168 -0.7730
   47CHL1   H4B 3411   4.124   5.494   3.351  1.1758  0.1356  1.5024
   47CHL1    C5 3412   4.167   5.619   3.516  0.4746 -0.8174  0.2183
   47CHL1    C6 3413   4.201   5.515   3.596 -0.2297  0.2989  0.2033
   47CHL1    H6 3414   4.191   5.410   3.564  1.5361  0.2097 -0.1546
   47CHL1    C7 3415   4.242   5.527   3.740 -0.7001  0.1883  0.2871
   47CHL1   H7A 3416   4.201   5.442   3.799 -1.2851 -0.3633 -0.9023
   47CHL1   H7B 3417   4.353   5.523   3.741 -0.5502  2.5108 -1.1452
   47CHL1    C8 3418   4.213   5.670   3.804 -0.6998  0.0810 -0.2368
   47CHL1    H8 3419   4.105   5.664   3.830 -0.7745  1.3286 -0.2347
   47CHL1   C14 3420   4.289   5.686   3.931 -0.0361 -0.0835  1.0637
   47CHL1   H14 3421   4.396   5.684   3.904 -0.3420  0.1324 -0.2599
   47CHL1   C15 3422   4.285   5.572   4.035 -0.6867 -0.0623 -0.3125
   47CHL1  H15A 3423   4.186   5.521   4.042  0.1500 -1.5916  1.1173
   47CHL1  H15B 3424   4.364   5.496   4.019 -0.4604 -0.0144  0.5490
   47CHL1   C16 3425   4.312   5.640   4.173 -0.0817 -0.9574  0.9702
   47CHL1  H16A 3426   4.225   5.625   4.240 -0.6793 -1.2848  0.1408
   47CHL1  H16B 3427   4.400   5.600   4.228  1.0780  1.3053  0.8589
   47CHL1   C17 3428   4.341   5.795   4.142 -0.7728 -0.0249  0.3202
   47CHL1   H17 3429   4.449   5.804   4.115 -0.4736  2.1124  1.9169
   47CHL1   C13 3430   4.263   5.818   4.009 -0.1186  0.9050 -0.1665
   47CHL1   C18 3431   4.119   5.830   4.048 -0.9945 -0.1028 -0.4186
   47CHL1  H18A 3432   4.096   5.904   4.127  1.4284 -1.4613  1.7077
   47CHL1  H18B 3433   4.065   5.857   3.954 -0.9157  0.0634 -0.4168
   47CHL1  H18C 3434   4.073   5.741   4.097  0.3342 -0.3497  0.4356
   47CHL1   C12 3435   4.306   5.928   3.914 -0.8471 -0.1031 -0.2050
   47CHL1  H12A 3436   4.275   6.025   3.958  0.9250  0.1809  0.5187
   47CHL1  H12B 3437   4.417   5.929   3.913 -0.7910 -1.5508  0.5855
   47CHL1   C11 3438   4.252   5.919   3.769  0.2390  0.2899  0.7865
   47CHL1  H11A 3439   4.148   5.957   3.765  0.6543  1.4782  0.9164
   47CHL1  H11B 3440   4.320   5.990   3.717  0.4176  0.2592  0.9750
   47CHL1    C9 3441   4.249   5.781   3.707 -1.5263 -0.7364 -0.0876
   47CHL1    H9 3442   4.357   5.756   3.693 -1.1891 -0.1932  1.2912
   47CHL1   C10 3443   4.186   5.770   3.562 -0.8921  0.3253  0.3981
   47CHL1   C19 3444   4.041   5.827   3.574 -0.0214  0.2176  0.7113
   47CHL1  H19A 3445   4.006   5.796   3.675  1.5934 -0.5695  1.0536
   47CHL1  H19B 3446   4.043   5.937   3.590 -3.6340  0.2731  1.6941
   47CHL1  H19C 3447   3.974   5.804   3.489 -0.9219 -1.3400  1.7978
   47CHL1    C1 3448   4.261   5.839   3.445  0.2807  0.3228 -0.6051
   47CHL1   H1A 3449   4.253   5.948   3.463 -0.6387  0.2469 -0.4881
   47CHL1   H1B 3450   4.369   5.814   3.437  0.1941  0.0631 -1.0110
   47CHL1    C2 3451   4.199   5.823   3.307 -0.1326 -0.2415  0.4796
   47CHL1   H2A 3452   4.249   5.887   3.233 -1.0700 -1.6808 -1.4916
   47CHL1   H2B 3453   4.094   5.857   3.303  0.0267  0.3238  1.0418
   47CHL1   C20 3454   4.325   5.885   4.263  0.6597 -0.1402 -0.9533
   47CHL1   H20 3455   4.224   5.871   4.309  0.0218 -2.2821 -2.8171
   47CHL1   C21 3456   4.346   6.034   4.233  0.8024  0.1330 -0.1969
   47CHL1  H21A 3457   4.266   6.067   4.164  1.6258 -0.4871 -1.4970
   47CHL1  H21B 3458   4.440   6.053   4.176 -0.1550  0.9443 -1.5530
   47CHL1  H21C 3459   4.345   6.097   4.325  1.4565 -0.3721  0.1636
   47CHL1   C22 3460   4.416   5.844   4.387 -1.2149  0.1392 -0.0937
   47CHL1  H22A 3461   4.396   5.914   4.471  2.8044  0.2996  0.9069
   47CHL1  H22B 3462   4.388   5.742   4.420  0.4876 -0.0662  0.7775
   47CHL1   C23 3463   4.568   5.834   4.360 -0.1721  0.2060 -0.3687
   47CHL1  H23A 3464   4.585   5.739   4.306 -0.7923 -0.0527 -0.1231
   47CHL1  H23B 3465   4.609   5.899   4.280 -2.3986 -0.6512 -2.3372
   47CHL1   C24 3466   4.650   5.849   4.490  0.1218  0.1626 -0.6002
   47CHL1  H24A 3467   4.625   5.950   4.529 -2.5674 -1.0482  1.0395
   47CHL1  H24B 3468   4.616   5.771   4.560  1.7605 -1.0513 -1.1053
   47CHL1   C25 3469   4.804   5.851   4.483  0.4432  0.5149  0.4551
   47CHL1   H25 3470   4.835   5.771   4.413 -0.7334  1.3677 -1.1292
   47CHL1   C26 3471   4.848   5.984   4.409  0.3857  0.0611  0.9028
   47CHL1  H26A 3472   4.829   5.977   4.300  3.5264  2.1711  0.0662
   47CHL1  H26B 3473   4.810   6.079   4.454  1.8778  3.0472 -3.4570
   47CHL1  H26C 3474   4.958   5.988   4.424  0.6337 -1.1040 -0.4012
   47CHL1   C27 3475   4.869   5.841   4.616  0.2270 -0.3499  0.1504
   47CHL1  H27A 3476   4.855   5.742   4.662  1.2974 -0.0886  1.0819
   47CHL1  H27B 3477   4.975   5.876   4.616 -0.0314  0.5324  1.6155
   47CHL1  H27C 3478   4.829   5.923   4.680  1.2758 -0.1965  0.6315
   48CHL1    C3 3479   1.853   1.068   2.945 -0.1811 -0.1426 -0.1839
   48CHL1    H3 3480   1.776   0.989   2.963 -1.1600  0.9204  0.4100
   48CHL1    O3 3481   1.865   1.080   2.807  0.1338 -0.3310  0.2531
   48CHL1   H3' 3482   1.906   1.167   2.797 -0.7936 -0.0660 -1.6462
   48CHL1    C4 3483   1.792   1.197   2.997 -0.3726  0.0761 -0.2553
   48CHL1   H4A 3484   1.873   1.265   2.963 -2.0543  0.4837 -3.9395
   48CHL1   H4B 3485   1.702   1.223   2.936  1.4945  3.2171 -1.9290
   48CHL1    C5 3486   1.774   1.204   3.144 -0.2325  0.2848 -0.2857
   48CHL1    C6 3487   1.656   1.226   3.202 -0.3591 -0.0134 -0.6917
   48CHL1    H6 3488   1.574   1.249   3.132 -0.2607  1.7395 -0.2728
   48CHL1    C7 3489   1.644   1.244   3.352 -0.4939  1.0382 -0.2340
   48CHL1   H7A 3490   1.608   1.346   3.378  0.2821  1.4752 -0.8282
   48CHL1   H7B 3491   1.572   1.171   3.396 -2.1608  3.1421  0.7104
   48CHL1    C8 3492   1.778   1.240   3.435  0.4213  0.4115  0.9899
   48CHL1    H8 3493   1.826   1.340   3.432  0.9898  0.1520 -1.6615
   48CHL1   C14 3494   1.759   1.190   3.575 -0.9654  0.1423 -0.1303
   48CHL1   H14 3495   1.731   1.083   3.583  1.3811 -0.4049  2.1019
   48CHL1   C15 3496   1.658   1.266   3.649 -0.1631  0.3386 -0.2983
   48CHL1  H15A 3497   1.684   1.372   3.626  4.3344 -0.7781 -1.1898
   48CHL1  H15B 3498   1.551   1.252   3.620  0.1336 -0.7543 -0.8869
   48CHL1   C16 3499   1.685   1.238   3.796 -0.9852 -0.4547  0.2187
   48CHL1  H16A 3500   1.692   1.330   3.859 -2.3341 -0.4427  0.3851
   48CHL1  H16B 3501   1.601   1.183   3.844 -0.2799 -1.8488 -0.1164
   48CHL1   C17 3502   1.821   1.158   3.795  0.0931  0.6720 -0.0949
   48CHL1   H17 3503   1.799   1.049   3.794 -2.3370  1.0987 -0.5878
   48CHL1   C13 3504   1.884   1.193   3.658 -0.0634 -0.1692 -1.2646
   48CHL1   C18 3505   1.942   1.339   3.657 -0.1181  0.8315  0.6969
   48CHL1  H18A 3506   1.877   1.417   3.702 -2.2830  0.6684 -1.9001
   48CHL1  H18B 3507   2.032   1.331   3.723  0.3156 -3.0278 -0.1563
   48CHL1  H18C 3508   1.980   1.374   3.559 -0.3593 -1.6327 -0.3429
   48CHL1   C12 3509   1.975   1.085   3.610  0.1428 -0.0304  0.1429
   48CHL1  H12A 3510   2.071   1.076   3.666  0.5570  1.0540 -0.3667
   48CHL1  H12B 3511   1.936   0.981   3.618 -2.3413  0.9281  1.8698
   48CHL1   C11 3512   2.007   1.123   3.462 -0.3490  0.2285  0.1244
   48CHL1  H11A 3513   2.077   1.208   3.478  0.7400 -0.8642  1.5061
   48CHL1  H11B 3514   2.077   1.046   3.423 -0.4541  1.2659 -2.2545
   48CHL1    C9 3515   1.870   1.138   3.372 -0.8873  0.1552 -0.2377
   48CHL1    H9 3516   1.823   1.038   3.380 -0.5713  0.0538  0.4745
   48CHL1   C10 3517   1.899   1.164   3.224 -0.4778 -0.1809 -0.2438
   48CHL1   C19 3518   1.997   1.289   3.216  0.4701 -0.1235 -0.2836
   48CHL1  H19A 3519   1.961   1.380   3.269  0.3864 -0.1685 -0.2638
   48CHL1  H19B 3520   2.092   1.262   3.267  1.7418  2.9362 -0.8014
   48CHL1  H19C 3521   2.011   1.319   3.110 -2.1484 -2.7370 -1.5220
   48CHL1    C1 3522   1.968   1.032   3.172 -0.2964  0.1113  0.3486
   48CHL1   H1A 3523   2.061   1.016   3.231 -1.9334 -0.1133  3.0484
   48CHL1   H1B 3524   1.909   0.942   3.202 -1.1839  1.4470  2.9710
   48CHL1    C2 3525   1.986   1.031   3.012 -0.2695  0.2461 -0.3221
   48CHL1   H2A 3526   2.008   0.927   2.980 -2.5938 -0.6137  0.6634
   48CHL1   H2B 3527   2.075   1.095   2.994 -0.1701  0.0068 -0.6906
   48CHL1   C20 3528   1.900   1.193   3.924 -0.0669  0.4467 -0.2467
   48CHL1   H20 3529   1.920   1.302   3.930  0.1819  0.5502 -2.1128
   48CHL1   C21 3530   2.039   1.128   3.925  0.4756  0.4472  0.0540
   48CHL1  H21A 3531   2.108   1.159   3.844 -0.7933 -0.0798 -1.2592
   48CHL1  H21B 3532   2.026   1.017   3.922  1.7581  0.2618  0.6741
   48CHL1  H21C 3533   2.094   1.150   4.019  0.1699  0.2583  0.2781
   48CHL1   C22 3534   1.831   1.126   4.052 -0.5398 -0.6974 -0.1359
   48CHL1  H22A 3535   1.723   1.153   4.056 -0.4664 -0.5453  1.5188
   48CHL1  H22B 3536   1.828   1.016   4.039  1.0924 -0.5643 -2.3067
   48CHL1   C23 3537   1.890   1.164   4.192  0.1422  0.8929  0.2010
   48CHL1  H23A 3538   1.986   1.109   4.201  0.2404  1.2916  1.9495
   48CHL1  H23B 3539   1.899   1.275   4.197 -1.0319  1.0715 -1.0233
   48CHL1   C24 3540   1.799   1.114   4.303  0.5248  0.0706 -0.8270
   48CHL1  H24A 3541   1.692   1.141   4.291  0.1975  1.5473  3.4855
   48CHL1  H24B 3542   1.816   1.004   4.312  4.6064  0.6216 -0.0804
   48CHL1   C25 3543   1.837   1.168   4.448 -0.2302  0.2769  0.0980
   48CHL1   H25 3544   1.851   1.278   4.442  1.1183  0.0674 -1.2335
   48CHL1   C26 3545   1.728   1.136   4.552  0.4341 -0.5413  0.9085
   48CHL1  H26A 3546   1.718   1.026   4.562  0.5458 -0.8041 -1.2875
   48CHL1  H26B 3547   1.759   1.172   4.652  1.8884  0.4850  0.1316
   48CHL1  H26C 3548   1.631   1.177   4.518  2.0385  2.0667 -0.9234
   48CHL1   C27 3549   1.974   1.123   4.499  0.1757  0.2970  0.2932
   48CHL1  H27A 3550   1.980   1.017   4.532 -2.9019 -0.0327  0.0608
   48CHL1  H27B 3551   2.048   1.141   4.418  0.9914 -0.2892  0.8903
   48CHL1  H27C 3552   2.001   1.179   4.591  1.5695  0.0295  0.0659
   49CHL1    C3 3553   1.952   3.316   3.358 -0.0127 -0.8217 -0.1155
   49CHL1    H3 3554   2.015   3.228   3.380  0.6527 -0.6100 -1.0964
   49CHL1    O3 3555   1.920   3.292   3.226 -1.1339  0.2931  0.8358
   49CHL1   H3' 3556   1.999   3.264   3.181 -0.3064  4.0162 -0.4123
   49CHL1    C4 3557   1.822   3.324   3.434  0.0414 -0.2974  0.2990
   49CHL1   H4A 3558   1.774   3.404   3.375  2.6424  0.2927 -1.2078
   49CHL1   H4B 3559   1.762   3.234   3.409 -1.0192  0.1955  1.0161
   49CHL1    C5 3560   1.853   3.353   3.583 -0.5629  0.3973 -0.2116
   49CHL1    C6 3561   1.801   3.268   3.678  0.1542  0.2629  0.0849
   49CHL1    H6 3562   1.736   3.186   3.644  0.1526  0.1041  0.4623
   49CHL1    C7 3563   1.823   3.288   3.827  0.1194 -0.1902  0.3584
   49CHL1   H7A 3564   1.719   3.276   3.865 -0.0043 -0.4136 -0.0484
   49CHL1   H7B 3565   1.877   3.204   3.876 -1.2322 -0.2485  1.8275
   49CHL1    C8 3566   1.887   3.424   3.871 -0.5732 -0.1539 -0.2550
   49CHL1    H8 3567   1.813   3.507   3.868  0.7518  1.1634  1.2509
   49CHL1   C14 3568   1.952   3.403   4.011 -0.4650  0.2561  0.0071
   49CHL1   H14 3569   2.031   3.326   4.001 -0.8515 -0.1134 -0.1691
   49CHL1   C15 3570   1.867   3.353   4.123 -0.6859 -0.4031  0.2757
   49CHL1  H15A 3571   1.768   3.402   4.138 -0.9839 -0.0827 -2.3770
   49CHL1  H15B 3572   1.847   3.243   4.120  1.2480 -0.8137  1.0950
   49CHL1   C16 3573   1.944   3.385   4.251  0.1301  0.0213  0.0130
   49CHL1  H16A 3574   1.894   3.460   4.317  0.5701 -0.6968  1.2020
   49CHL1  H16B 3575   1.981   3.293   4.302  0.8185 -0.0748 -0.6484
   49CHL1   C17 3576   2.072   3.462   4.195 -0.8925 -0.0754  0.3566
   49CHL1   H17 3577   2.143   3.378   4.175  0.0774  0.9082 -0.4581
   49CHL1   C13 3578   2.035   3.519   4.061  0.2365 -0.3829 -0.4582
   49CHL1   C18 3579   1.943   3.643   4.079 -0.6877  0.4639 -0.1215
   49CHL1  H18A 3580   1.873   3.624   4.163  1.4959  0.5692  1.8238
   49CHL1  H18B 3581   2.002   3.731   4.112 -0.1144  0.4917 -1.1860
   49CHL1  H18C 3582   1.880   3.682   3.996 -1.8559 -0.0271  0.4984
   49CHL1   C12 3583   2.148   3.547   3.966 -0.1735 -0.5178 -0.2339
   49CHL1  H12A 3584   2.205   3.638   3.994 -2.3237  1.0781 -0.7907
   49CHL1  H12B 3585   2.217   3.460   3.965  0.8421  0.2320 -2.8843
   49CHL1   C11 3586   2.093   3.563   3.820 -0.4487 -0.7270  0.0498
   49CHL1  H11A 3587   2.064   3.665   3.788 -0.7505 -1.2110 -1.3164
   49CHL1  H11B 3588   2.192   3.557   3.768 -0.3142  0.0558  0.2152
   49CHL1    C9 3589   1.991   3.463   3.770 -0.1179 -0.1356  0.0368
   49CHL1    H9 3590   2.050   3.369   3.767 -1.8242 -1.2484  0.2468
   49CHL1   C10 3591   1.949   3.473   3.620  0.4674  0.2335 -0.9027
   49CHL1   C19 3592   1.875   3.605   3.607  0.0656  0.4994 -0.3821
   49CHL1  H19A 3593   1.949   3.687   3.614  0.6808 -0.0767  0.0221
   49CHL1  H19B 3594   1.822   3.613   3.509  1.2687 -1.4100 -1.2502
   49CHL1  H19C 3595   1.797   3.621   3.685  1.5296 -1.0263  1.4659
   49CHL1    C1 3596   2.071   3.468   3.528 -0.6371  0.1114 -0.2292
   49CHL1   H1A 3597   2.145   3.551   3.528  1.1988 -1.4303 -0.4562
   49CHL1   H1B 3598   2.119   3.377   3.570  2.6859  2.1388  0.7302
   49CHL1    C2 3599   2.029   3.449   3.377  0.2061  0.4978 -0.6112
   49CHL1   H2A 3600   2.124   3.461   3.321  1.7415 -2.2716  1.1730
   49CHL1   H2B 3601   1.964   3.531   3.340  0.5785  0.1616 -2.0972
   49CHL1   C20 3602   2.154   3.542   4.302 -0.8370 -0.4681  0.2724
   49CHL1   H20 3603   2.246   3.585   4.256 -0.6600  2.2541  2.9042
   49CHL1   C21 3604   2.209   3.432   4.398 -0.3580  0.2401 -0.3411
   49CHL1  H21A 3605   2.302   3.470   4.445 -0.6047  1.4047 -0.7767
   49CHL1  H21B 3606   2.240   3.348   4.332 -1.5054 -3.2168  3.1642
   49CHL1  H21C 3607   2.130   3.398   4.469 -0.6950 -0.8700 -1.2057
   49CHL1   C22 3608   2.082   3.655   4.385  0.6269 -0.6789  0.1685
   49CHL1  H22A 3609   2.049   3.742   4.325  2.6533 -0.6224 -0.9131
   49CHL1  H22B 3610   1.996   3.596   4.424  1.6600 -1.3062  1.6012
   49CHL1   C23 3611   2.158   3.731   4.500 -0.2776  0.2388 -0.3803
   49CHL1  H23A 3612   2.204   3.655   4.567  1.9800  2.0840  0.3126
   49CHL1  H23B 3613   2.235   3.793   4.450 -0.5537  2.2015  1.4987
   49CHL1   C24 3614   2.070   3.831   4.569 -0.0715 -0.1408  0.2537
   49CHL1  H24A 3615   2.129   3.915   4.611 -0.6758 -0.7237  2.4386
   49CHL1  H24B 3616   1.994   3.871   4.499 -0.9064 -0.9355  0.6769
   49CHL1   C25 3617   1.994   3.771   4.685 -0.1358  0.0064 -0.7913
   49CHL1   H25 3618   1.925   3.690   4.653 -2.1146  1.7674 -1.2526
   49CHL1   C26 3619   2.089   3.728   4.803 -0.4079 -0.3960 -0.6796
   49CHL1  H26A 3620   2.165   3.658   4.761  1.3437  1.0146  0.0113
   49CHL1  H26B 3621   2.150   3.815   4.836 -0.8971 -0.3193  0.0362
   49CHL1  H26C 3622   2.029   3.694   4.890 -1.7735  2.2287 -0.5011
   49CHL1   C27 3623   1.894   3.874   4.754 -0.3908  0.5710  0.4233
   49CHL1  H27A 3624   1.940   3.952   4.818  0.0385  0.3251  0.4241
   49CHL1  H27B 3625   1.842   3.931   4.675 -2.6592 -1.7897  0.0692
   49CHL1  H27C 3626   1.827   3.809   4.815 -0.2787 -0.6736 -0.7436
   50CHL1    C3 3627   0.843   3.258   2.963  0.2983  0.2939  0.4950
   50CHL1    H3 3628   0.917   3.184   3.002  1.3695  0.9420 -0.2492
   50CHL1    O3 3629   0.843   3.276   2.821  0.2356  0.1215  0.2101
   50CHL1   H3' 3630   0.931   3.307   2.801 -0.2416  1.4364  0.0174
   50CHL1    C4 3631   0.703   3.218   3.014 -0.1988  0.4925 -0.0637
   50CHL1   H4A 3632   0.624   3.290   2.981 -2.8422 -1.7930  0.8405
   50CHL1   H4B 3633   0.669   3.126   2.962 -0.7394  1.1529 -0.9012
   50CHL1    C5 3634   0.715   3.204   3.168 -0.5697 -0.1233  0.3566
   50CHL1    C6 3635   0.693   3.091   3.232 -0.0560 -0.2744  0.0422
   50CHL1    H6 3636   0.658   3.000   3.182 -0.3577  0.3298 -0.8898
   50CHL1    C7 3637   0.682   3.080   3.385  0.0485 -0.4197  0.5830
   50CHL1   H7A 3638   0.590   3.024   3.412 -0.3191  0.2903  0.8514
   50CHL1   H7B 3639   0.768   3.026   3.429  1.1959  0.8462 -0.0159
   50CHL1    C8 3640   0.673   3.216   3.455 -0.2024  0.3090 -0.3852
   50CHL1    H8 3641   0.572   3.261   3.445  0.0423  0.5720 -1.9935
   50CHL1   C14 3642   0.713   3.200   3.604  0.2173  0.0175  0.1725
   50CHL1   H14 3643   0.821   3.174   3.605  0.8840  2.2473 -1.8740
   50CHL1   C15 3644   0.618   3.103   3.679  0.1890 -0.4002 -0.3151
   50CHL1  H15A 3645   0.517   3.112   3.634  0.6235  0.9101 -1.0911
   50CHL1  H15B 3646   0.663   3.001   3.679 -1.2336 -1.0500 -0.4817
   50CHL1   C16 3647   0.621   3.152   3.825 -0.5437 -0.1314  0.2674
   50CHL1  H16A 3648   0.518   3.180   3.856  0.3819  2.6570  1.0888
   50CHL1  H16B 3649   0.662   3.073   3.891  0.0924  0.4989  0.6438
   50CHL1   C17 3650   0.718   3.273   3.824 -0.4730 -0.3884  0.1427
   50CHL1   H17 3651   0.824   3.241   3.832  0.6534  3.2436  2.2615
   50CHL1   C13 3652   0.713   3.330   3.680 -0.5174  0.2189 -0.1886
   50CHL1   C18 3653   0.586   3.411   3.665  0.1691  0.2852 -0.4841
   50CHL1  H18A 3654   0.581   3.503   3.727  3.3262  0.2627 -0.0337
   50CHL1  H18B 3655   0.574   3.445   3.560  2.0167  1.9114 -0.2176
   50CHL1  H18C 3656   0.494   3.353   3.692  1.0262 -1.5864 -1.4148
   50CHL1   C12 3657   0.827   3.414   3.623  0.1865 -0.3334  0.8348
   50CHL1  H12A 3658   0.825   3.515   3.670  2.4169  0.8673 -1.3745
   50CHL1  H12B 3659   0.921   3.356   3.630 -0.2977 -1.1550  0.6289
   50CHL1   C11 3660   0.812   3.438   3.473  0.0313  0.4715 -0.2739
   50CHL1  H11A 3661   0.735   3.516   3.459 -1.4569 -0.6413  1.3712
   50CHL1  H11B 3662   0.909   3.483   3.441  0.0310  1.9117  1.6220
   50CHL1    C9 3663   0.776   3.310   3.392  0.5557 -0.7343  0.3440
   50CHL1    H9 3664   0.871   3.253   3.394  0.6694 -0.6340 -1.0031
   50CHL1   C10 3665   0.742   3.336   3.241 -0.2177 -0.2607 -0.2263
   50CHL1   C19 3666   0.625   3.441   3.224  0.1373  0.8079  0.5026
   50CHL1  H19A 3667   0.538   3.391   3.272  1.8693 -1.8029  1.1303
   50CHL1  H19B 3668   0.656   3.537   3.272 -2.8693  2.3247 -0.3306
   50CHL1  H19C 3669   0.608   3.466   3.117  1.5497  2.3769  0.6025
   50CHL1    C1 3670   0.866   3.400   3.174  0.8925 -0.9189 -0.0633
   50CHL1   H1A 3671   0.870   3.508   3.196 -1.6996 -0.6453 -0.6402
   50CHL1   H1B 3672   0.959   3.358   3.220 -0.7674  0.2364  4.8658
   50CHL1    C2 3673   0.872   3.399   3.023  0.1325  0.3814 -0.7023
   50CHL1   H2A 3674   0.965   3.443   2.982 -0.4378  0.2450 -2.2204
   50CHL1   H2B 3675   0.785   3.457   2.986 -0.2329 -1.3206 -2.7140
   50CHL1   C20 3676   0.709   3.378   3.942  0.0693 -0.1870  0.3794
   50CHL1   H20 3677   0.635   3.457   3.918  0.2952  0.4284  1.6373
   50CHL1   C21 3678   0.845   3.440   3.959  0.2769  0.0186 -0.1335
   50CHL1  H21A 3679   0.885   3.455   3.856 -2.4812  0.8748 -1.1823
   50CHL1  H21B 3680   0.920   3.372   4.005 -0.0207  0.1497  0.5471
   50CHL1  H21C 3681   0.844   3.536   4.015 -2.7750  1.2028 -1.9884
   50CHL1   C22 3682   0.653   3.313   4.076 -0.1531 -0.3792 -0.0313
   50CHL1  H22A 3683   0.546   3.287   4.066  0.2144 -2.0974  0.2068
   50CHL1  H22B 3684   0.706   3.217   4.093  0.4560  0.3906  2.9496
   50CHL1   C23 3685   0.674   3.420   4.195  0.5206  0.4240  0.7529
   50CHL1  H23A 3686   0.781   3.446   4.202  0.2261  1.4870  1.5584
   50CHL1  H23B 3687   0.611   3.501   4.152  2.1361  0.3468 -1.9536
   50CHL1   C24 3688   0.615   3.367   4.329  0.3724 -0.4999  0.1261
   50CHL1  H24A 3689   0.506   3.386   4.316  0.3785 -0.4119  0.2040
   50CHL1  H24B 3690   0.622   3.256   4.335 -0.3808 -0.6220 -1.0248
   50CHL1   C25 3691   0.676   3.438   4.445 -0.1136  0.2540 -0.4479
   50CHL1   H25 3692   0.684   3.547   4.422 -0.4286  0.9332  2.2724
   50CHL1   C26 3693   0.585   3.412   4.568  0.2161 -0.5283 -0.5067
   50CHL1  H26A 3694   0.566   3.304   4.585  0.1806 -0.4827 -0.2626
   50CHL1  H26B 3695   0.641   3.441   4.659  0.8194 -1.5096 -0.5602
   50CHL1  H26C 3696   0.491   3.471   4.559  1.2099  2.1542  3.8929
   50CHL1   C27 3697   0.823   3.397   4.473 -0.5400  0.6105  0.0448
   50CHL1  H27A 3698   0.817   3.286   4.485  0.4122  0.6439  0.9439
   50CHL1  H27B 3699   0.892   3.422   4.390 -1.3212  0.8724 -0.5466
   50CHL1  H27C 3700   0.860   3.445   4.566 -1.0668 -0.8159  1.0347
   51CHL1    C3 3701   2.186   4.013   3.349  0.3628  0.2602 -0.7450
   51CHL1    H3 3702   2.287   4.057   3.364  0.4619 -0.5411  1.2567
   51CHL1    O3 3703   2.181   3.960   3.218  1.0966 -0.0426 -0.7133
   51CHL1   H3' 3704   2.224   3.874   3.215  0.8399 -0.1649 -2.8020
   51CHL1    C4 3705   2.181   3.890   3.452 -0.3310  0.1175  0.9929
   51CHL1   H4A 3706   2.085   3.836   3.442  1.2890 -2.5922 -1.5469
   51CHL1   H4B 3707   2.257   3.816   3.420 -0.9887 -0.4802  0.8003
   51CHL1    C5 3708   2.200   3.940   3.589 -0.4907  0.6163 -0.6041
   51CHL1    C6 3709   2.285   3.882   3.677 -0.1389  0.0171  0.7616
   51CHL1    H6 3710   2.345   3.800   3.635  1.1870  1.9475 -1.4255
   51CHL1    C7 3711   2.310   3.922   3.815 -0.0202  0.2513 -0.3753
   51CHL1   H7A 3712   2.327   3.843   3.891 -1.7470 -0.9206 -1.1407
   51CHL1   H7B 3713   2.394   3.994   3.815 -0.0587  0.3010 -0.7217
   51CHL1    C8 3714   2.192   4.011   3.865  0.2635 -0.8754  0.2742
   51CHL1    H8 3715   2.106   3.943   3.886 -0.1848 -0.9157 -1.4802
   51CHL1   C14 3716   2.219   4.072   4.005  0.4149 -0.6910  0.2121
   51CHL1   H14 3717   2.307   4.133   3.976  1.5058 -2.0789  0.5076
   51CHL1   C15 3718   2.283   3.982   4.109  0.1096 -0.8271 -0.1742
   51CHL1  H15A 3719   2.235   3.882   4.105 -1.1324 -0.2231 -0.8941
   51CHL1  H15B 3720   2.391   3.963   4.092  0.1753 -1.5252  0.9510
   51CHL1   C16 3721   2.248   4.059   4.249 -0.3307 -0.4376 -0.1862
   51CHL1  H16A 3722   2.190   3.996   4.320  2.3907 -0.2316  2.4362
   51CHL1  H16B 3723   2.339   4.092   4.304 -0.6212  0.2874 -0.1333
   51CHL1   C17 3724   2.166   4.189   4.203 -0.4724 -0.1855 -0.0978
   51CHL1   H17 3725   2.244   4.263   4.178 -1.1322  0.8844  0.9363
   51CHL1   C13 3726   2.105   4.150   4.068 -0.1227  0.0796 -0.9531
   51CHL1   C18 3727   1.985   4.058   4.099 -0.6022 -0.3310  0.3154
   51CHL1  H18A 3728   2.009   3.987   4.181  0.3797 -1.0594 -0.5884
   51CHL1  H18B 3729   1.899   4.118   4.136  0.0282 -0.0666  1.4159
   51CHL1  H18C 3730   1.956   4.001   4.009  1.5023 -2.4053  0.8608
   51CHL1   C12 3731   2.072   4.260   3.967 -0.5579  0.4328  0.4244
   51CHL1  H12A 3732   1.982   4.308   4.010 -0.7404 -0.4043  0.9974
   51CHL1  H12B 3733   2.155   4.333   3.968 -0.8604  0.7902  1.7881
   51CHL1   C11 3734   2.040   4.219   3.828 -0.0062  0.5370  0.4808
   51CHL1  H11A 3735   1.937   4.177   3.816 -0.2039  0.7467  1.3646
   51CHL1  H11B 3736   2.043   4.309   3.764 -0.0294  0.0261 -0.2482
   51CHL1    C9 3737   2.144   4.123   3.763 -0.6374  0.0973 -0.3879
   51CHL1    H9 3738   2.236   4.182   3.748 -2.1990  2.8280  0.0810
   51CHL1   C10 3739   2.105   4.055   3.628  0.3046 -0.3886 -0.2001
   51CHL1   C19 3740   1.975   3.980   3.657  0.5694  0.0359 -0.5883
   51CHL1  H19A 3741   1.891   4.045   3.690  0.4815  0.8499 -2.3207
   51CHL1  H19B 3742   1.935   3.939   3.562 -3.6105  2.7371 -0.2451
   51CHL1  H19C 3743   1.984   3.895   3.729 -2.1473 -2.1775 -2.5942
   51CHL1    C1 3744   2.087   4.161   3.514 -0.3009  0.6726 -0.5288
   51CHL1   H1A 3745   2.004   4.233   3.531  0.9765  3.0463 -3.4395
   51CHL1   H1B 3746   2.182   4.218   3.519 -0.4851  0.8989  1.0434
   51CHL1    C2 3747   2.068   4.097   3.375  0.4589  0.5077  0.0978
   51CHL1   H2A 3748   2.060   4.187   3.310  0.2494 -0.9868 -2.0671
   51CHL1   H2B 3749   1.969   4.049   3.361  0.1858  1.6546 -2.6655
   51CHL1   C20 3750   2.089   4.261   4.313  0.5635  0.1451  0.0036
   51CHL1   H20 3751   1.996   4.203   4.330  2.0526 -2.5815 -0.5401
   51CHL1   C21 3752   2.061   4.407   4.272  0.1457  0.2552  0.9312
   51CHL1  H21A 3753   2.004   4.447   4.358  0.4137  1.3162  0.6256
   51CHL1  H21B 3754   1.988   4.408   4.189  0.8626  1.4396  0.2949
   51CHL1  H21C 3755   2.156   4.460   4.251  0.0490 -0.0267 -0.2715
   51CHL1   C22 3756   2.161   4.249   4.449 -0.1326  0.2266  0.2403
   51CHL1  H22A 3757   2.171   4.141   4.473  0.8032  0.0676 -0.8232
   51CHL1  H22B 3758   2.262   4.293   4.442  0.2700 -0.8772 -1.3802
   51CHL1   C23 3759   2.093   4.306   4.584 -0.2634 -0.9795 -0.1931
   51CHL1  H23A 3760   2.109   4.416   4.584  1.3946 -1.1908  0.8682
   51CHL1  H23B 3761   1.982   4.291   4.582 -0.3706 -0.2479  0.0801
   51CHL1   C24 3762   2.146   4.227   4.710 -0.0311  0.7166 -0.3807
   51CHL1  H24A 3763   2.114   4.122   4.695  1.8823  0.1372 -0.5875
   51CHL1  H24B 3764   2.257   4.230   4.709  0.1648 -2.7342 -1.3165
   51CHL1   C25 3765   2.087   4.276   4.841 -0.3342  0.1158 -0.2077
   51CHL1   H25 3766   1.979   4.269   4.818 -0.0429 -1.3048 -1.2534
   51CHL1   C26 3767   2.107   4.183   4.961 -0.4979  0.0535  0.1592
   51CHL1  H26A 3768   2.040   4.098   4.938  0.8753 -0.7475 -1.0255
   51CHL1  H26B 3769   2.211   4.143   4.962 -1.2228 -2.2641 -2.5160
   51CHL1  H26C 3770   2.071   4.236   5.052  0.4523  1.5932 -0.3258
   51CHL1   C27 3771   2.137   4.416   4.881 -0.3251  0.4802  0.4336
   51CHL1  H27A 3772   2.242   4.419   4.917 -0.3724  0.6830  0.5575
   51CHL1  H27B 3773   2.132   4.482   4.791  1.6823 -0.0785 -0.1316
   51CHL1  H27C 3774   2.081   4.462   4.965 -0.1805 -0.6570  1.1683
   52CHL1    C3 3775   2.325   5.767   3.259 -0.4254  0.4132  0.0349
   52CHL1    H3 3776   2.413   5.834   3.272  1.3556 -1.7338 -0.3045
   52CHL1    O3 3777   2.326   5.702   3.129 -0.1790 -0.2967 -0.1760
   52CHL1   H3' 3778   2.314   5.768   3.061 -0.8972 -2.0793 -1.8728
   52CHL1    C4 3779   2.332   5.648   3.360  0.3408 -0.7183  0.1600
   52CHL1   H4A 3780   2.238   5.591   3.342 -0.9894  0.6042  2.4302
   52CHL1   H4B 3781   2.423   5.587   3.341  1.4230  0.6040  0.9490
   52CHL1    C5 3782   2.338   5.709   3.498 -0.8667  0.4320  0.1969
   52CHL1    C6 3783   2.438   5.691   3.585 -0.0320 -0.0905 -0.5528
   52CHL1    H6 3784   2.523   5.622   3.573  1.4626  1.9226 -2.1505
   52CHL1    C7 3785   2.445   5.744   3.725  0.2992 -0.7895 -0.5597
   52CHL1   H7A 3786   2.476   5.659   3.790  0.5923 -0.5609 -0.4026
   52CHL1   H7B 3787   2.520   5.825   3.725  0.0142 -0.4750  1.3783
   52CHL1    C8 3788   2.308   5.792   3.780 -0.1505  0.1831 -0.2162
   52CHL1    H8 3789   2.244   5.704   3.804 -0.7034  0.6800  0.1653
   52CHL1   C14 3790   2.326   5.879   3.907 -0.1883  1.1182  0.0719
   52CHL1   H14 3791   2.394   5.965   3.888  1.1123  0.6760  2.4109
   52CHL1   C15 3792   2.405   5.812   4.022 -0.0771  0.2797  0.3326
   52CHL1  H15A 3793   2.349   5.716   4.021 -1.4617  1.0159 -2.3623
   52CHL1  H15B 3794   2.515   5.797   4.012 -0.0501  1.0307 -0.5852
   52CHL1   C16 3795   2.378   5.911   4.142  0.2098  0.5753 -0.2654
   52CHL1  H16A 3796   2.339   5.845   4.222 -0.4042  1.6229  0.3122
   52CHL1  H16B 3797   2.473   5.959   4.175  0.2946  0.9835 -1.0638
   52CHL1   C17 3798   2.256   6.000   4.099  0.2825 -0.1341  0.7270
   52CHL1   H17 3799   2.296   6.095   4.059 -0.9786 -0.9002 -2.7319
   52CHL1   C13 3800   2.200   5.933   3.965 -0.1673 -0.1698 -0.0072
   52CHL1   C18 3801   2.096   5.821   4.010  0.4213 -0.1698 -0.1948
   52CHL1  H18A 3802   1.992   5.856   4.028  1.0701  1.6757  0.2079
   52CHL1  H18B 3803   2.082   5.743   3.932 -0.0219 -1.8624  1.5018
   52CHL1  H18C 3804   2.134   5.760   4.095  0.7066 -0.1651 -0.3173
   52CHL1   C12 3805   2.144   6.023   3.852  0.1677 -0.2117  0.9340
   52CHL1  H12A 3806   2.061   6.087   3.888  1.1512  1.2484  0.7129
   52CHL1  H12B 3807   2.224   6.095   3.825 -1.0966  0.5319 -1.0073
   52CHL1   C11 3808   2.114   5.945   3.723 -0.3705  0.7551 -0.4229
   52CHL1  H11A 3809   2.032   5.874   3.746  1.2593 -0.5076  1.8804
   52CHL1  H11B 3810   2.066   6.020   3.657 -0.2710 -0.5939 -2.1093
   52CHL1    C9 3811   2.243   5.876   3.667 -0.1515  0.0144  0.2822
   52CHL1    H9 3812   2.313   5.959   3.647 -1.4674  1.2013  0.4477
   52CHL1   C10 3813   2.224   5.796   3.533  0.2899 -0.6097 -0.2219
   52CHL1   C19 3814   2.105   5.706   3.553 -0.3385  0.6209 -0.5493
   52CHL1  H19A 3815   2.073   5.647   3.464 -2.7250 -0.8655  1.1713
   52CHL1  H19B 3816   2.127   5.635   3.635 -2.3099  0.8506  0.2405
   52CHL1  H19C 3817   2.018   5.766   3.587 -1.3363 -0.6877 -0.6800
   52CHL1    C1 3818   2.193   5.898   3.420 -0.4723 -0.6819  0.6497
   52CHL1   H1A 3819   2.106   5.957   3.455  1.0504  1.0944  1.6791
   52CHL1   H1B 3820   2.268   5.981   3.427  1.7741 -2.6553  1.4200
   52CHL1    C2 3821   2.190   5.839   3.273  0.9398 -0.2026 -0.0105
   52CHL1   H2A 3822   2.180   5.920   3.198  0.3624  1.8432  2.1539
   52CHL1   H2B 3823   2.110   5.764   3.253 -0.0122  1.1065 -1.2927
   52CHL1   C20 3824   2.160   6.033   4.215  0.8468 -0.4922 -0.3643
   52CHL1   H20 3825   2.111   5.943   4.257 -1.5066  0.9883  0.2259
   52CHL1   C21 3826   2.042   6.119   4.176 -0.0826 -0.0269  0.0658
   52CHL1  H21A 3827   1.972   6.144   4.259 -1.1539  2.6169 -1.5072
   52CHL1  H21B 3828   1.988   6.078   4.089  3.5077  0.2306 -2.5158
   52CHL1  H21C 3829   2.079   6.220   4.148 -1.2620 -0.0555 -1.7522
   52CHL1   C22 3830   2.240   6.096   4.328 -0.1861 -0.6707 -0.2275
   52CHL1  H22A 3831   2.337   6.047   4.348 -0.4793 -0.6778  1.3660
   52CHL1  H22B 3832   2.277   6.195   4.295 -0.9921 -0.2626  0.0432
   52CHL1   C23 3833   2.162   6.114   4.463  0.0824 -0.1759 -0.0783
   52CHL1  H23A 3834   2.064   6.165   4.448 -0.0422  0.5641  2.7864
   52CHL1  H23B 3835   2.133   6.016   4.507 -2.2596  0.4470 -0.1331
   52CHL1   C24 3836   2.230   6.194   4.580  0.6950  0.5841  0.2451
   52CHL1  H24A 3837   2.336   6.161   4.591  0.9184  1.3850  0.5659
   52CHL1  H24B 3838   2.234   6.302   4.553  0.3166  0.8862  1.3394
   52CHL1   C25 3839   2.153   6.160   4.711 -0.1085  0.8046  0.6646
   52CHL1   H25 3840   2.149   6.050   4.726 -1.1361  0.6474 -0.5854
   52CHL1   C26 3841   2.233   6.210   4.831  0.1183  1.1121 -0.3146
   52CHL1  H26A 3842   2.335   6.165   4.826 -0.0957  0.4190  1.0166
   52CHL1  H26B 3843   2.241   6.321   4.839  0.8973  1.1006 -0.8103
   52CHL1  H26C 3844   2.178   6.164   4.916  0.0799 -1.4300 -1.6205
   52CHL1   C27 3845   2.007   6.202   4.706  0.2611 -0.0392 -0.0120
   52CHL1  H27A 3846   1.960   6.182   4.805  1.3131 -1.1302  0.2828
   52CHL1  H27B 3847   2.007   6.313   4.695  4.4860  0.2303  1.0410
   52CHL1  H27C 3848   1.943   6.155   4.629 -1.7874 -0.5522  1.8902
   53CHL1    C3 3849   2.587   4.437   3.332 -0.2760  0.7281 -1.1815
   53CHL1    H3 3850   2.623   4.344   3.380 -0.8485  1.3722  0.5488
   53CHL1    O3 3851   2.580   4.415   3.195  0.7634  0.3726 -0.2594
   53CHL1   H3' 3852   2.526   4.486   3.161  0.2827  1.0032  1.7166
   53CHL1    C4 3853   2.449   4.466   3.390 -0.1180 -0.2334  0.1408
   53CHL1   H4A 3854   2.406   4.545   3.325  0.7174  0.8747  0.8878
   53CHL1   H4B 3855   2.386   4.376   3.381 -1.2938  0.5734  0.1601
   53CHL1    C5 3856   2.460   4.497   3.540  0.0057 -0.3787 -0.3917
   53CHL1    C6 3857   2.391   4.425   3.629  0.2256  0.0778  0.5137
   53CHL1    H6 3858   2.329   4.339   3.600  0.0146 -0.3822  2.2158
   53CHL1    C7 3859   2.380   4.461   3.777 -0.5810  0.4872 -0.5932
   53CHL1   H7A 3860   2.275   4.466   3.812 -0.0537  0.8152  1.0065
   53CHL1   H7B 3861   2.426   4.383   3.841 -3.0177  0.0593  0.7654
   53CHL1    C8 3862   2.452   4.598   3.803  0.0820  0.7470 -0.5338
   53CHL1    H8 3863   2.378   4.675   3.771 -1.0962 -0.8140 -1.6868
   53CHL1   C14 3864   2.477   4.618   3.950  0.1855  0.8843  0.4950
   53CHL1   H14 3865   2.546   4.534   3.971 -2.9370 -1.6530  1.4114
   53CHL1   C15 3866   2.364   4.593   4.045  0.4947  0.6888 -0.2803
   53CHL1  H15A 3867   2.269   4.636   4.007  2.0038  2.3959 -2.3313
   53CHL1  H15B 3868   2.357   4.482   4.049  1.9365  0.5574 -0.7427
   53CHL1   C16 3869   2.402   4.657   4.180 -0.1867 -0.3773 -0.3155
   53CHL1  H16A 3870   2.313   4.720   4.201 -0.2436 -0.0193 -1.5981
   53CHL1  H16B 3871   2.417   4.586   4.265 -1.0511  2.2139  2.1815
   53CHL1   C17 3872   2.530   4.734   4.159 -0.0844 -0.0439  0.2083
   53CHL1   H17 3873   2.616   4.671   4.189 -0.3814 -0.1938  0.7509
   53CHL1   C13 3874   2.537   4.744   4.003  0.1112  0.1359 -0.4834
   53CHL1   C18 3875   2.445   4.867   3.967  0.4465  0.2527  0.5809
   53CHL1  H18A 3876   2.414   4.870   3.860  0.0916  2.5320  0.6815
   53CHL1  H18B 3877   2.344   4.866   4.014  0.8241  2.6196  1.5882
   53CHL1  H18C 3878   2.497   4.960   4.000  1.1324 -0.2067  0.8122
   53CHL1   C12 3879   2.673   4.767   3.933 -1.0810 -0.1142  0.0943
   53CHL1  H12A 3880   2.720   4.866   3.950  1.2093 -0.2220 -4.1328
   53CHL1  H12B 3881   2.748   4.691   3.967  0.2211  0.1459 -2.0414
   53CHL1   C11 3882   2.659   4.742   3.780  0.0561 -0.4453  0.5973
   53CHL1  H11A 3883   2.608   4.832   3.741  0.3758 -0.3657  0.3593
   53CHL1  H11B 3884   2.766   4.753   3.751  0.0600 -1.3812  0.2248
   53CHL1    C9 3885   2.584   4.616   3.733 -0.4422  0.3735 -0.1507
   53CHL1    H9 3886   2.649   4.528   3.753  1.0157  1.7038  1.2443
   53CHL1   C10 3887   2.560   4.613   3.577 -0.1861  0.4555 -0.2481
   53CHL1   C19 3888   2.497   4.738   3.516 -0.3751  0.1025  0.3665
   53CHL1  H19A 3889   2.415   4.766   3.585 -0.3300  0.7093  0.1747
   53CHL1  H19B 3890   2.556   4.829   3.539 -0.7272  0.1824  0.9708
   53CHL1  H19C 3891   2.468   4.736   3.409  0.1125  0.4103  0.2266
   53CHL1    C1 3892   2.692   4.581   3.511  0.7034 -0.4392  0.0516
   53CHL1   H1A 3893   2.760   4.667   3.528 -0.8208  1.0182 -0.8854
   53CHL1   H1B 3894   2.735   4.493   3.563  1.7311 -0.7414 -1.2480
   53CHL1    C2 3895   2.680   4.552   3.360  0.2821  0.6455  0.0109
   53CHL1   H2A 3896   2.782   4.530   3.322  0.1793 -0.8258  0.4844
   53CHL1   H2B 3897   2.641   4.635   3.298 -0.0087 -0.5669 -1.4962
   53CHL1   C20 3898   2.533   4.862   4.248 -0.4109  0.1255 -0.1853
   53CHL1   H20 3899   2.454   4.932   4.214 -1.0155  0.5236  1.9002
   53CHL1   C21 3900   2.670   4.931   4.225 -0.0458  0.6392  0.4944
   53CHL1  H21A 3901   2.680   4.963   4.119 -0.2421 -0.2213  0.2048
   53CHL1  H21B 3902   2.747   4.854   4.245 -1.1685 -0.7867 -0.4986
   53CHL1  H21C 3903   2.686   5.020   4.290  0.7653  1.4135 -0.7280
   53CHL1   C22 3904   2.507   4.840   4.399 -0.2882  0.3755  0.0435
   53CHL1  H22A 3905   2.403   4.806   4.414 -1.1712  2.3318 -1.1601
   53CHL1  H22B 3906   2.578   4.762   4.434 -2.3672 -2.0868 -0.9115
   53CHL1   C23 3907   2.513   4.974   4.484 -0.1288  0.7438 -0.4385
   53CHL1  H23A 3908   2.611   5.025   4.472  0.3773 -0.0372  0.1832
   53CHL1  H23B 3909   2.434   5.042   4.446  1.1672  1.2293 -2.4073
   53CHL1   C24 3910   2.465   4.947   4.631 -0.1714  0.6232  0.3779
   53CHL1  H24A 3911   2.368   4.893   4.623  1.3664 -1.9419 -3.0114
   53CHL1  H24B 3912   2.541   4.877   4.672 -1.7475  0.9907  4.4797
   53CHL1   C25 3913   2.445   5.073   4.715 -0.0561 -0.2226  0.4830
   53CHL1   H25 3914   2.535   5.138   4.708  1.4335 -2.3662 -1.7135
   53CHL1   C26 3915   2.327   5.154   4.662  0.6324 -0.0920 -0.6123
   53CHL1  H26A 3916   2.315   5.249   4.719 -4.2321 -0.6464 -0.2908
   53CHL1  H26B 3917   2.329   5.177   4.553  4.2179  0.3474 -0.5779
   53CHL1  H26C 3918   2.235   5.099   4.691  0.6446 -0.6691 -1.6079
   53CHL1   C27 3919   2.432   5.039   4.868 -0.7723  1.3205 -0.2550
   53CHL1  H27A 3920   2.410   5.123   4.938  0.4926  0.8737  0.7154
   53CHL1  H27B 3921   2.356   4.960   4.889  1.1719  0.0398  2.6454
   53CHL1  H27C 3922   2.532   4.998   4.892 -0.6247  0.4789 -2.1580
   54CHL1    C3 3923   3.109   4.269   3.234 -0.0952  1.1659  0.5570
   54CHL1    H3 3924   3.030   4.339   3.201 -0.0982  1.5060  1.2748
   54CHL1    O3 3925   3.149   4.184   3.123 -0.0742 -0.0976 -0.6423
   54CHL1   H3' 3926   3.222   4.132   3.154  0.6361 -0.4621 -2.7478
   54CHL1    C4 3927   3.236   4.339   3.284  0.3657  0.0427 -0.4955
   54CHL1   H4A 3928   3.307   4.254   3.285  0.6251  0.1497 -2.8011
   54CHL1   H4B 3929   3.271   4.404   3.200  1.4287  0.8771  0.5649
   54CHL1    C5 3930   3.215   4.414   3.417 -0.4376 -0.2919  0.5224
   54CHL1    C6 3931   3.245   4.542   3.428 -0.2558  0.1466 -0.2620
   54CHL1    H6 3932   3.294   4.605   3.352 -0.9659  1.1000  0.0624
   54CHL1    C7 3933   3.223   4.615   3.558  0.1085 -0.3789 -0.2330
   54CHL1   H7A 3934   3.311   4.674   3.590 -1.1833  0.8850  1.1331
   54CHL1   H7B 3935   3.141   4.690   3.551 -0.0937 -0.5792 -0.0233
   54CHL1    C8 3936   3.193   4.522   3.682 -0.9407 -0.3785  0.3777
   54CHL1    H8 3937   3.292   4.479   3.708 -0.6667 -0.1305 -0.2481
   54CHL1   C14 3938   3.141   4.605   3.795 -0.0617  0.3100  0.4751
   54CHL1   H14 3939   3.050   4.651   3.749  0.4041  1.4250  0.6236
   54CHL1   C15 3940   3.223   4.731   3.845 -0.5248 -0.5050  0.0274
   54CHL1  H15A 3941   3.327   4.694   3.849 -0.2155  0.3148 -0.2101
   54CHL1  H15B 3942   3.225   4.815   3.772  0.9402 -0.7933 -0.2822
   54CHL1   C16 3943   3.169   4.761   3.990  0.1954  0.0431  0.5092
   54CHL1  H16A 3944   3.251   4.754   4.064 -0.0502 -1.4851  0.6801
   54CHL1  H16B 3945   3.127   4.863   3.980  0.9224  0.3882  0.9233
   54CHL1   C17 3946   3.067   4.644   4.015 -0.3620 -0.4979  0.6281
   54CHL1   H17 3947   2.973   4.682   3.969 -0.0420 -0.2442  0.1772
   54CHL1   C13 3948   3.108   4.528   3.920 -0.4521  0.6351  0.5106
   54CHL1   C18 3949   3.236   4.461   3.980 -0.0249 -0.1598 -0.0942
   54CHL1  H18A 3950   3.324   4.530   3.982 -0.6307  0.6498 -0.8161
   54CHL1  H18B 3951   3.215   4.421   4.082  0.1206 -1.2349 -0.4782
   54CHL1  H18C 3952   3.271   4.372   3.925  1.6227  1.0709 -1.1361
   54CHL1   C12 3953   3.005   4.425   3.879  0.6235  0.7447 -1.3797
   54CHL1  H12A 3954   2.980   4.370   3.973 -0.6546  1.1223 -1.4863
   54CHL1  H12B 3955   2.921   4.488   3.842  1.0120  2.6802  0.8205
   54CHL1   C11 3956   3.041   4.338   3.766 -0.1195  0.3141  0.4931
   54CHL1  H11A 3957   3.121   4.273   3.808 -0.1947  1.7512  3.0869
   54CHL1  H11B 3958   2.949   4.285   3.734  0.6103 -1.1544  0.7690
   54CHL1    C9 3959   3.095   4.415   3.641 -0.2266  0.0625 -0.1119
   54CHL1    H9 3960   3.006   4.464   3.596 -0.5580 -1.4503 -1.2238
   54CHL1   C10 3961   3.145   4.327   3.527 -0.1329  0.7053  0.6344
   54CHL1   C19 3962   3.255   4.224   3.580  0.5500 -0.0163 -0.4029
   54CHL1  H19A 3963   3.210   4.162   3.661  1.0709 -1.3184 -1.0888
   54CHL1  H19B 3964   3.281   4.160   3.493 -1.5433  0.9742 -1.8412
   54CHL1  H19C 3965   3.350   4.272   3.613  0.7925  1.4419 -2.9648
   54CHL1    C1 3966   3.027   4.247   3.472 -0.7227  0.5545 -0.0718
   54CHL1   H1A 3967   2.996   4.170   3.546  1.7592  0.6659  1.1872
   54CHL1   H1B 3968   2.938   4.310   3.451 -0.8456  0.2440 -0.5111
   54CHL1    C2 3969   3.057   4.169   3.339 -0.9178 -0.2814  0.0208
   54CHL1   H2A 3970   2.974   4.110   3.295 -0.9164 -0.2883  0.0280
   54CHL1   H2B 3971   3.138   4.097   3.361 -0.0818  0.0808 -1.6801
   54CHL1   C20 3972   3.030   4.617   4.166 -0.2047  0.0313  0.3555
   54CHL1   H20 3973   3.113   4.559   4.211  2.3665  1.6393 -2.0315
   54CHL1   C21 3974   2.898   4.536   4.178 -0.8640 -0.3549  0.1561
   54CHL1  H21A 3975   2.899   4.454   4.254  0.3824 -1.4767 -1.0206
   54CHL1  H21B 3976   2.857   4.480   4.091 -2.0328 -0.7317  0.9255
   54CHL1  H21C 3977   2.821   4.605   4.219  0.9055  2.0578 -0.4031
   54CHL1   C22 3978   3.017   4.750   4.253 -0.3848 -0.6990 -0.3048
   54CHL1  H22A 3979   3.105   4.817   4.243 -0.8461 -0.1033 -0.4438
   54CHL1  H22B 3980   2.944   4.809   4.194  1.7395  0.5471 -1.8667
   54CHL1   C23 3981   2.990   4.727   4.404  0.5196  0.2562  0.0138
   54CHL1  H23A 3982   2.886   4.691   4.407 -0.4407  2.3869 -3.0275
   54CHL1  H23B 3983   3.064   4.650   4.436  0.6351 -0.8426 -2.6703
   54CHL1   C24 3984   2.987   4.856   4.494 -0.7865  0.1932  0.1912
   54CHL1  H24A 3985   3.088   4.877   4.535 -1.1195  0.5036  0.8578
   54CHL1  H24B 3986   2.964   4.945   4.432  3.0797  0.8169 -0.6318
   54CHL1   C25 3987   2.895   4.834   4.611 -0.2561 -0.7382 -0.7590
   54CHL1   H25 3988   2.796   4.803   4.571  0.2718 -1.3476 -1.6299
   54CHL1   C26 3989   2.945   4.719   4.705  0.6946 -0.4301 -0.2554
   54CHL1  H26A 3990   2.952   4.623   4.649 -2.7268 -0.8499 -0.1696
   54CHL1  H26B 3991   3.049   4.736   4.739  0.9959  0.9705 -1.7297
   54CHL1  H26C 3992   2.874   4.707   4.789  0.4722 -0.8250 -0.4952
   54CHL1   C27 3993   2.872   4.972   4.676 -0.3503  0.0558  0.0672
   54CHL1  H27A 3994   2.831   4.946   4.776 -0.0960  0.6870  0.3387
   54CHL1  H27B 3995   2.968   5.024   4.697 -0.2189  0.6419 -1.7756
   54CHL1  H27C 3996   2.810   5.040   4.613 -1.9178 -0.8308  0.6067
   55CHL1    C3 3997   6.873   3.971   3.190 -0.5905 -0.2752 -0.1140
   55CHL1    H3 3998   6.904   3.869   3.219 -1.1773 -0.8310 -1.3782
   55CHL1    O3 3999   6.850   3.963   3.052 -0.2068 -0.3318  0.2203
   55CHL1   H3' 4000   6.844   4.052   3.017 -0.6037 -0.1942  0.6317
   55CHL1    C4 4001   6.743   4.003   3.267  0.0675 -0.4643 -0.1908
   55CHL1   H4A 4002   6.705   4.096   3.222 -1.7879 -1.4394 -0.7289
   55CHL1   H4B 4003   6.674   3.918   3.251 -1.1434  0.3783  0.4305
   55CHL1    C5 4004   6.772   4.016   3.418  0.1759  0.3392 -0.2956
   55CHL1    C6 4005   6.703   3.946   3.506 -0.2705  0.6735 -0.4120
   55CHL1    H6 4006   6.618   3.890   3.464  0.1599  0.7330 -1.3986
   55CHL1    C7 4007   6.714   3.954   3.654 -0.6813 -1.0351 -0.0693
   55CHL1   H7A 4008   6.614   3.976   3.696  0.2268  0.8153  1.2729
   55CHL1   H7B 4009   6.746   3.852   3.685 -0.6581 -0.7252  0.9438
   55CHL1    C8 4010   6.805   4.074   3.711  0.2497  0.6799  0.6251
   55CHL1    H8 4011   6.734   4.158   3.693  1.5733  1.9476  1.1653
   55CHL1   C14 4012   6.837   4.050   3.855  0.1925 -0.7316 -0.4937
   55CHL1   H14 4013   6.896   3.956   3.856  2.0523  0.3764  0.8292
   55CHL1   C15 4014   6.720   4.021   3.952  0.3079 -0.3911  0.2414
   55CHL1  H15A 4015   6.644   4.097   3.924  1.8432  1.2947  0.4597
   55CHL1  H15B 4016   6.683   3.917   3.952 -0.4349 -0.1562  1.4809
   55CHL1   C16 4017   6.786   4.056   4.089 -0.7813  0.5051 -0.4076
   55CHL1  H16A 4018   6.734   4.144   4.134  1.7059  1.6480  0.4405
   55CHL1  H16B 4019   6.787   3.972   4.161  1.8946  0.5527 -0.2776
   55CHL1   C17 4020   6.933   4.099   4.060 -0.0589  1.0982  0.2883
   55CHL1   H17 4021   6.994   4.006   4.064  0.0443  1.1023 -0.9006
   55CHL1   C13 4022   6.938   4.146   3.917  0.4651 -0.3703  0.4040
   55CHL1   C18 4023   6.878   4.300   3.922 -0.3395  0.1805  0.1856
   55CHL1  H18A 4024   6.957   4.363   3.967 -0.6286 -0.4418  1.6168
   55CHL1  H18B 4025   6.847   4.330   3.820  1.2054  1.5055  0.0682
   55CHL1  H18C 4026   6.785   4.306   3.981 -1.0721  1.3212 -1.0447
   55CHL1   C12 4027   7.072   4.134   3.836 -0.4222  0.8675  0.2371
   55CHL1  H12A 4028   7.147   4.201   3.883 -0.3169 -0.9720  2.9108
   55CHL1  H12B 4029   7.107   4.032   3.861  1.4659  1.2452 -0.6728
   55CHL1   C11 4030   7.044   4.169   3.683 -0.6710  0.2422 -0.1781
   55CHL1  H11A 4031   7.012   4.275   3.682  0.9194  0.7628  0.8518
   55CHL1  H11B 4032   7.127   4.168   3.610 -1.4365  4.2529 -1.3330
   55CHL1    C9 4033   6.930   4.077   3.622 -0.4162  0.2797 -0.6027
   55CHL1    H9 4034   6.980   3.977   3.623  0.1007  0.5107 -1.7730
   55CHL1   C10 4035   6.895   4.111   3.471 -0.1008  0.4220 -0.2522
   55CHL1   C19 4036   6.853   4.258   3.460  0.3586  0.2080 -0.2727
   55CHL1  H19A 4037   6.813   4.281   3.359 -2.8186 -0.3536  0.7477
   55CHL1  H19B 4038   6.770   4.279   3.530  1.5568 -0.7580  1.5273
   55CHL1  H19C 4039   6.932   4.332   3.484 -1.2075  1.8184  0.1134
   55CHL1    C1 4040   7.015   4.071   3.376  0.7821 -0.1982  0.0988
   55CHL1   H1A 4041   7.096   4.136   3.416  0.3182  0.6681 -0.3273
   55CHL1   H1B 4042   7.050   3.969   3.400  2.0429  0.3533  0.6835
   55CHL1    C2 4043   6.982   4.070   3.225  0.2801  0.0580  0.3916
   55CHL1   H2A 4044   7.079   4.046   3.177  1.1540  2.1383  1.0075
   55CHL1   H2B 4045   6.941   4.168   3.192 -0.2686 -0.5220 -0.6999
   55CHL1   C20 4046   7.005   4.179   4.171  0.5511  0.1111 -0.0395
   55CHL1   H20 4047   6.953   4.277   4.176 -0.5466 -0.5061  0.8570
   55CHL1   C21 4048   7.160   4.207   4.148 -0.1872  0.1408 -0.2996
   55CHL1  H21A 4049   7.178   4.270   4.058  1.2590 -2.0418 -1.6617
   55CHL1  H21B 4050   7.211   4.110   4.127  2.6956  1.0944  1.7082
   55CHL1  H21C 4051   7.207   4.250   4.239  1.9894 -0.1586 -1.2046
   55CHL1   C22 4052   6.996   4.113   4.305 -0.0463 -0.2229  0.4056
   55CHL1  H22A 4053   6.920   4.032   4.304 -0.3602  0.0534  1.0378
   55CHL1  H22B 4054   7.094   4.071   4.338  1.5110  2.0135 -1.0903
   55CHL1   C23 4055   6.941   4.196   4.416  0.0916  0.4039 -0.4087
   55CHL1  H23A 4056   7.030   4.249   4.455 -1.5099  1.7373  1.6704
   55CHL1  H23B 4057   6.877   4.274   4.370  1.1042  1.4752 -0.0533
   55CHL1   C24 4058   6.868   4.118   4.528  0.6544  0.3977  0.9727
   55CHL1  H24A 4059   6.770   4.078   4.493  0.8192  0.9181 -0.1287
   55CHL1  H24B 4060   6.934   4.039   4.570  1.1154  1.6922  2.8003
   55CHL1   C25 4061   6.832   4.215   4.642  0.1511 -0.3942  0.4131
   55CHL1   H25 4062   6.931   4.248   4.682  0.5607  2.0581 -2.3212
   55CHL1   C26 4063   6.761   4.352   4.606 -0.2453  0.7877 -0.6601
   55CHL1  H26A 4064   6.839   4.412   4.555  1.8077 -0.0446  1.2776
   55CHL1  H26B 4065   6.684   4.341   4.527  0.1136  2.8954 -1.3458
   55CHL1  H26C 4066   6.714   4.398   4.695 -0.3986 -0.7260  0.0810
   55CHL1   C27 4067   6.767   4.150   4.769 -0.0370 -0.1372 -0.1933
   55CHL1  H27A 4068   6.661   4.121   4.756  0.4281 -0.9657 -2.6197
   55CHL1  H27B 4069   6.820   4.065   4.817 -0.3122  0.5272  1.3553
   55CHL1  H27C 4070   6.761   4.232   4.844 -1.8461  0.3674 -0.8455
   56CHL1    C3 4071   0.594   3.896   3.344  0.2687 -0.4147  0.6195
   56CHL1    H3 4072   0.489   3.933   3.338  0.1383 -0.9402 -0.9999
   56CHL1    O3 4073   0.627   3.865   3.211 -0.2495 -0.0725 -0.1766
   56CHL1   H3' 4074   0.720   3.842   3.218  0.3513  1.3140 -2.4947
   56CHL1    C4 4075   0.669   4.020   3.403 -0.0208 -0.1878  0.2573
   56CHL1   H4A 4076   0.776   3.990   3.395 -0.6665 -2.2752 -1.5403
   56CHL1   H4B 4077   0.650   4.103   3.332  0.0041 -1.8444 -1.7671
   56CHL1    C5 4078   0.634   4.045   3.550 -0.0781  0.5637  0.1921
   56CHL1    C6 4079   0.611   4.166   3.593  0.5657  0.2029  0.1833
   56CHL1    H6 4080   0.599   4.250   3.523 -0.7049  0.2982  0.4897
   56CHL1    C7 4081   0.600   4.208   3.732 -0.0616 -0.0921 -0.2438
   56CHL1   H7A 4082   0.649   4.304   3.757 -1.9312  0.8085  0.1825
   56CHL1   H7B 4083   0.493   4.230   3.753 -0.1036 -0.7976  0.2971
   56CHL1    C8 4084   0.650   4.096   3.836 -0.7341  0.4842  0.0880
   56CHL1    H8 4085   0.761   4.100   3.835 -0.7355  1.5341  1.2780
   56CHL1   C14 4086   0.604   4.125   3.978 -0.1849  0.1100 -0.3109
   56CHL1   H14 4087   0.494   4.119   3.965 -0.2251  3.7318 -3.2244
   56CHL1   C15 4088   0.639   4.263   4.033 -0.2261  0.2133  0.7479
   56CHL1  H15A 4089   0.746   4.279   4.010 -0.2070 -1.0240 -0.0901
   56CHL1  H15B 4090   0.571   4.343   3.994  0.2481  1.2477  1.9749
   56CHL1   C16 4091   0.624   4.244   4.183 -0.1492  0.2297 -0.6898
   56CHL1  H16A 4092   0.721   4.273   4.229  0.5038 -1.2702 -1.0441
   56CHL1  H16B 4093   0.542   4.293   4.239 -0.4352  0.3779 -1.2376
   56CHL1   C17 4094   0.608   4.096   4.213 -0.3475  0.2654 -0.0419
   56CHL1   H17 4095   0.499   4.082   4.226 -0.8627 -1.4871 -4.4762
   56CHL1   C13 4096   0.644   4.015   4.084  0.1130 -0.1140 -0.2483
   56CHL1   C18 4097   0.797   4.004   4.075 -0.5753 -0.0727 -0.4715
   56CHL1  H18A 4098   0.831   3.934   4.154  0.2143 -0.7565 -1.3879
   56CHL1  H18B 4099   0.829   3.964   3.976  0.5948  2.4273 -1.1987
   56CHL1  H18C 4100   0.838   4.107   4.085  1.5970 -0.8247 -1.1017
   56CHL1   C12 4101   0.575   3.878   4.041 -0.3292 -0.2161 -0.0485
   56CHL1  H12A 4102   0.594   3.794   4.112 -1.0076  0.6785  1.2468
   56CHL1  H12B 4103   0.467   3.902   4.040 -0.3347  0.1607  2.5259
   56CHL1   C11 4104   0.619   3.835   3.898  0.1693 -0.1968 -0.0805
   56CHL1  H11A 4105   0.723   3.796   3.904  0.7583  1.3725  0.3533
   56CHL1  H11B 4106   0.548   3.755   3.867 -0.3204  0.0452  0.4037
   56CHL1    C9 4107   0.607   3.956   3.794 -0.3853  0.5694  0.2090
   56CHL1    H9 4108   0.496   3.959   3.789 -0.4551 -0.9136  0.3403
   56CHL1   C10 4109   0.658   3.924   3.649  0.4777 -0.6158 -0.1578
   56CHL1   C19 4110   0.811   3.890   3.657  0.1649  0.0451 -0.6129
   56CHL1  H19A 4111   0.865   3.983   3.685 -1.3015  0.3512  1.3894
   56CHL1  H19B 4112   0.825   3.818   3.740 -0.1903 -1.6399 -1.9711
   56CHL1  H19C 4113   0.845   3.851   3.558 -0.9989  0.5875 -1.2544
   56CHL1    C1 4114   0.589   3.802   3.587 -0.4562  0.0124  1.0276
   56CHL1   H1A 4115   0.628   3.708   3.632 -0.1517  0.3756  1.5333
   56CHL1   H1B 4116   0.479   3.812   3.597 -0.4715  2.1501 -0.6669
   56CHL1    C2 4117   0.617   3.777   3.435  0.1853  0.0972  0.3539
   56CHL1   H2A 4118   0.553   3.694   3.399  2.9849 -1.0539 -2.4496
   56CHL1   H2B 4119   0.718   3.732   3.423  0.2368  0.2729  0.1045
   56CHL1   C20 4120   0.668   4.039   4.341  0.6452  0.5083 -0.3151
   56CHL1   H20 4121   0.778   4.030   4.330  0.5537 -2.3015  0.4009
   56CHL1   C21 4122   0.616   3.891   4.370  0.4592  0.0467  0.7664
   56CHL1  H21A 4123   0.619   3.878   4.480 -1.7816 -1.4204  0.7073
   56CHL1  H21B 4124   0.692   3.823   4.326  0.3932 -0.4761  1.4544
   56CHL1  H21C 4125   0.511   3.872   4.339  0.0832  0.7323  1.5707
   56CHL1   C22 4126   0.640   4.121   4.466 -0.0822 -0.6399  0.0069
   56CHL1  H22A 4127   0.684   4.071   4.555 -2.0358 -0.2953  1.2219
   56CHL1  H22B 4128   0.687   4.220   4.450  0.8634 -1.1693 -0.5732
   56CHL1   C23 4129   0.489   4.151   4.503 -0.4237 -0.1031  0.0194
   56CHL1  H23A 4130   0.436   4.177   4.409 -0.3354  0.8687  0.2289
   56CHL1  H23B 4131   0.447   4.053   4.536 -0.1676  0.4573  2.1961
   56CHL1   C24 4132   0.465   4.263   4.603 -0.0057  0.6926 -0.6960
   56CHL1  H24A 4133   0.519   4.352   4.565  1.6804 -0.0597 -0.1834
   56CHL1  H24B 4134   0.355   4.271   4.615 -0.0838  0.3878 -1.1869
   56CHL1   C25 4135   0.524   4.213   4.741 -0.3003  0.7102 -0.6629
   56CHL1   H25 4136   0.626   4.173   4.726 -1.3737 -2.0864 -1.2303
   56CHL1   C26 4137   0.539   4.333   4.840 -0.6733 -0.0337 -0.5845
   56CHL1  H26A 4138   0.438   4.379   4.845  0.7925  3.4111  0.9618
   56CHL1  H26B 4139   0.573   4.298   4.939 -0.3525 -0.4517 -0.8398
   56CHL1  H26C 4140   0.601   4.418   4.804  1.2905 -1.5001 -0.8236
   56CHL1   C27 4141   0.451   4.093   4.806 -0.1740 -0.1778  0.6501
   56CHL1  H27A 4142   0.466   4.002   4.744 -0.1493  0.4720 -0.3177
   56CHL1  H27B 4143   0.495   4.077   4.907  1.0323 -0.9670  0.0227
   56CHL1  H27C 4144   0.344   4.122   4.802 -0.0493  0.3243 -3.2888
   57SAPC     N 4145   2.288   4.522   7.772 -0.8709 -0.0731  0.0430
   57SAPC   C12 4146   2.227   4.601   7.664  0.5165  0.3744 -0.4461
   57SAPC  H12A 4147   2.247   4.705   7.683  0.1255  0.4566 -0.4739
   57SAPC  H12B 4148   2.119   4.589   7.666  0.6372 -0.7404  0.6623
   57SAPC   C13 4149   2.430   4.568   7.793  0.4352  0.3382  0.6322
   57SAPC  H13A 4150   2.498   4.523   7.722 -0.6981  0.8021 -0.8081
   57SAPC  H13B 4151   2.440   4.675   7.779  0.5132  0.0967 -1.4844
   57SAPC  H13C 4152   2.465   4.533   7.888  3.0225 -0.7758 -0.6249
   57SAPC   C14 4153   2.215   4.552   7.905  0.3456 -0.0094  0.4080
   57SAPC  H14A 4154   2.276   4.541   7.993  2.3350 -3.8796 -1.1997
   57SAPC  H14B 4155   2.181   4.653   7.921 -1.2773 -0.4387 -0.0707
   57SAPC  H14C 4156   2.122   4.496   7.907  0.9763 -1.0970  0.1503
   57SAPC   C15 4157   2.287   4.382   7.740  0.1241  0.0826  0.0234
   57SAPC  H15A 4158   2.185   4.347   7.738 -0.8150  2.6008 -0.7771
   57SAPC  H15B 4159   2.329   4.355   7.645  2.2519 -2.0303  1.4497
   57SAPC  H15C 4160   2.340   4.333   7.821  1.3177  1.7872  0.3276
   57SAPC   C11 4161   2.267   4.576   7.518  0.1353  0.5584 -0.8789
   57SAPC  H11A 4162   2.378   4.572   7.515  0.2312 -5.0372 -0.4690
   57SAPC  H11B 4163   2.230   4.663   7.460  0.1356  1.3904  0.3266
   57SAPC     P 4164   2.075   4.446   7.397 -0.3216 -0.3882  0.1999
   57SAPC   O13 4165   2.068   4.310   7.346  0.1889 -0.0651 -0.3062
   57SAPC   O14 4166   1.976   4.500   7.485 -0.1899 -0.7852 -0.5070
   57SAPC   O12 4167   2.216   4.449   7.473  0.0077 -0.0596  0.0666
   57SAPC   O11 4168   2.098   4.543   7.273  0.3860  0.0426  0.5672
   57SAPC    C1 4169   2.169   4.494   7.152 -0.2199 -0.8422 -0.2084
   57SAPC    HA 4170   2.274   4.466   7.175  0.9364  1.7764 -1.8570
   57SAPC    HB 4171   2.113   4.416   7.097 -1.6091 -0.4115  0.5412
   57SAPC    C2 4172   2.177   4.613   7.056  0.8543 -0.2344 -0.5449
   57SAPC    HS 4173   2.211   4.700   7.116 -2.5258 -0.8178  2.5075
   57SAPC   O21 4174   2.045   4.631   6.991 -0.2338  0.1867 -0.3372
   57SAPC   C21 4175   2.010   4.757   6.966  0.8163  0.3073 -0.0541
   57SAPC   O22 4176   2.072   4.856   6.997  0.3548 -0.0903  0.1548
   57SAPC   C22 4177   1.881   4.755   6.888  0.5098  0.5240 -0.0463
   57SAPC   H2R 4178   1.907   4.711   6.790 -0.7017 -0.1485 -0.0901
   57SAPC   H2S 4179   1.807   4.691   6.941  1.5427  0.9429  2.0201
   57SAPC    C3 4180   2.280   4.589   6.942  0.4731 -0.7310  0.0694
   57SAPC    HX 4181   2.248   4.504   6.878  2.2014 -1.2492 -0.1507
   57SAPC    HY 4182   2.375   4.567   6.995 -0.8560 -0.8274  2.5626
   57SAPC   O31 4183   2.294   4.710   6.857  0.7305 -0.7738 -0.6617
   57SAPC   C31 4184   2.381   4.797   6.902  0.7675  0.5951  0.1939
   57SAPC   O32 4185   2.439   4.781   7.006 -0.3840 -0.2413  0.1459
   57SAPC   C32 4186   2.400   4.915   6.808  0.2844  0.1497  0.1473
   57SAPC   H2X 4187   2.441   5.001   6.865  1.6799  0.8711 -1.8327
   57SAPC   H2Y 4188   2.297   4.939   6.776 -0.3265 -0.8879  1.2653
   57SAPC   C23 4189   1.815   4.899   6.868  0.2569 -0.0715 -0.1223
   57SAPC   H3R 4190   1.859   4.968   6.944 -1.7380  0.5609  0.5226
   57SAPC   H3S 4191   1.706   4.888   6.888  0.2375 -0.9260 -0.6336
   57SAPC   C24 4192   1.822   4.950   6.725  0.2267 -0.1975  0.3030
   57SAPC   H4R 4193   1.746   5.030   6.710 -2.3436 -1.8935  3.1924
   57SAPC   H4S 4194   1.772   4.890   6.648  1.3759 -1.8692  0.8038
   57SAPC   C25 4195   1.961   4.991   6.682 -0.8100 -0.7365 -0.9188
   57SAPC   H5R 4196   2.016   5.058   6.749  1.9204 -2.2636 -1.4806
   57SAPC   C26 4197   2.019   4.955   6.565 -0.2787 -0.1931 -0.3859
   57SAPC   H6R 4198   2.129   4.967   6.560 -0.4652  1.8782 -0.3305
   57SAPC   C27 4199   1.956   4.873   6.454  0.1638 -0.2070  0.0974
   57SAPC   H7R 4200   1.991   4.906   6.354 -3.0895  0.3379 -0.9758
   57SAPC   H7S 4201   1.846   4.889   6.453  0.4190  1.9705  0.4532
   57SAPC   C28 4202   1.981   4.733   6.494 -0.0914  0.3381  0.2194
   57SAPC   H8R 4203   1.947   4.702   6.594  0.2286 -0.6973  0.0160
   57SAPC   C29 4204   2.028   4.641   6.410  0.2717  0.2675  0.0328
   57SAPC   H9R 4205   2.036   4.534   6.432 -0.3007  0.1244 -0.4217
   57SAPC  C210 4206   2.053   4.663   6.259 -0.0319  0.2081  0.3119
   57SAPC  H10R 4207   1.977   4.737   6.224 -0.2677  0.7181  1.8266
   57SAPC  H10S 4208   2.037   4.564   6.211 -1.6143  0.5510  0.0996
   57SAPC  C211 4209   2.182   4.730   6.214 -0.8975  0.2258 -0.6713
   57SAPC  H11R 4210   2.247   4.778   6.288  0.1363 -0.3273 -1.2079
   57SAPC  C212 4211   2.216   4.730   6.086  0.3086 -0.2782  0.3905
   57SAPC  H12R 4212   2.316   4.765   6.057 -0.3224  0.9220 -0.4179
   57SAPC  C213 4213   2.142   4.683   5.972 -0.0034 -0.3818 -0.4953
   57SAPC  H13R 4214   2.153   4.768   5.901  0.1354 -0.6017 -0.7373
   57SAPC  H13S 4215   2.033   4.691   5.990  0.4280  3.1094  1.2868
   57SAPC  C214 4216   2.180   4.548   5.929 -0.0039  0.1962 -0.0362
   57SAPC  H14R 4217   2.179   4.474   6.010 -4.2205  0.8256  0.7523
   57SAPC  C215 4218   2.211   4.512   5.801 -0.0450  0.0879 -0.0663
   57SAPC  H15R 4219   2.220   4.403   5.784 -0.4694 -0.1383  1.0346
   57SAPC  C216 4220   2.224   4.604   5.684 -0.2693 -0.0529  0.3693
   57SAPC  H16R 4221   2.221   4.711   5.711 -1.6444  0.6661 -2.3064
   57SAPC  H16S 4222   2.152   4.586   5.601  1.4439  0.7444 -1.3839
   57SAPC  C217 4223   2.362   4.584   5.625  0.2606 -0.6523  0.1986
   57SAPC  H17R 4224   2.382   4.475   5.616  0.8324 -0.5565  0.2754
   57SAPC  H17S 4225   2.431   4.629   5.699 -0.6337 -0.9793  1.2586
   57SAPC  C218 4226   2.379   4.657   5.491 -0.1557 -0.7154  0.0123
   57SAPC  H18R 4227   2.484   4.651   5.453 -0.0026 -2.1382  0.5771
   57SAPC  H18S 4228   2.363   4.764   5.512  2.1806  0.1160 -1.9184
   57SAPC  C219 4229   2.304   4.605   5.363  0.2341 -0.4897 -0.3134
   57SAPC  H19R 4230   2.294   4.690   5.291  0.5078 -1.6310 -1.7548
   57SAPC  H19S 4231   2.201   4.581   5.398  0.1699 -1.4948 -1.1263
   57SAPC  C220 4232   2.367   4.498   5.277 -0.4048  0.4922 -0.3929
   57SAPC  H20R 4233   2.463   4.528   5.229 -0.0356  0.0442  0.0498
   57SAPC  H20S 4234   2.292   4.445   5.215 -1.5084  1.2296  0.2762
   57SAPC  H20T 4235   2.390   4.418   5.351 -0.7083  0.8552  0.1018
   57SAPC   C33 4236   2.488   4.901   6.681  0.2859 -0.2125  0.3590
   57SAPC   H3X 4237   2.590   4.867   6.711  1.0213  0.0924 -1.6897
   57SAPC   H3Y 4238   2.494   5.008   6.652 -0.1646 -0.3537 -0.2797
   57SAPC   C34 4239   2.429   4.813   6.569  0.1936  0.0847 -0.1238
   57SAPC   H4X 4240   2.463   4.861   6.474  0.2260  0.1998 -0.0555
   57SAPC   H4Y 4241   2.318   4.803   6.570  0.2419 -0.8386  2.2266
   57SAPC   C35 4242   2.480   4.662   6.582  0.4377 -0.9399  0.4669
   57SAPC   H5X 4243   2.412   4.611   6.654 -1.3185  0.4965 -0.1159
   57SAPC   H5Y 4244   2.580   4.655   6.629  0.2738 -0.9033  0.8266
   57SAPC   C36 4245   2.461   4.594   6.447  0.4213 -0.5254 -0.2500
   57SAPC   H6X 4246   2.543   4.625   6.379  1.8964 -1.8294  0.8852
   57SAPC   H6Y 4247   2.362   4.637   6.417  0.7996  0.0057 -0.7627
   57SAPC   C37 4248   2.452   4.443   6.453 -0.1674  1.0018 -0.2153
   57SAPC   H7X 4249   2.388   4.405   6.536 -0.9834 -0.5576 -1.5182
   57SAPC   H7Y 4250   2.550   4.401   6.483 -1.7115 -3.7235 -1.0314
   57SAPC   C38 4251   2.391   4.374   6.327  0.9359  0.0363  0.1588
   57SAPC   H8X 4252   2.309   4.429   6.275 -0.2470 -0.9546  0.9501
   57SAPC   H8Y 4253   2.346   4.277   6.355  2.8991 -1.3917 -1.3031
   57SAPC   C39 4254   2.506   4.353   6.221  0.6025 -0.1734  0.0000
   57SAPC   H9X 4255   2.580   4.294   6.280 -0.9521 -2.5930 -0.3240
   57SAPC   H9Y 4256   2.539   4.457   6.201 -2.3124  1.2579  2.0400
   57SAPC  C310 4257   2.469   4.279   6.090 -0.6833 -0.0916 -0.0772
   57SAPC  H10X 4258   2.381   4.333   6.048 -0.3008 -0.2601 -1.1163
   57SAPC  H10Y 4259   2.432   4.177   6.112  1.1639 -0.5063  1.3801
   57SAPC  C311 4260   2.580   4.291   5.978  0.7687  0.2200 -0.4899
   57SAPC  H11X 4261   2.667   4.233   6.015  1.4354  2.5329  1.8183
   57SAPC  H11Y 4262   2.627   4.389   5.954  2.1401  0.0427  1.2786
   57SAPC  C312 4263   2.526   4.235   5.848  0.6566 -0.1889  0.1454
   57SAPC  H12X 4264   2.448   4.303   5.808  0.1435 -0.9205 -0.1302
   57SAPC  H12Y 4265   2.475   4.138   5.864 -0.2379  0.0923 -0.8838
   57SAPC  C313 4266   2.629   4.213   5.735 -0.0642  0.0066 -0.5405
   57SAPC  H13X 4267   2.709   4.142   5.764  0.8906  1.0967 -0.4414
   57SAPC  H13Y 4268   2.676   4.313   5.738  0.9909 -0.4964  0.4477
   57SAPC  C314 4269   2.568   4.210   5.595 -0.2529  0.2051 -0.9738
   57SAPC  H14X 4270   2.642   4.228   5.515  0.6420 -1.9904 -0.7037
   57SAPC  H14Y 4271   2.497   4.293   5.576 -0.7983 -0.4436 -1.8616
   57SAPC  C315 4272   2.491   4.076   5.575  0.4267  0.0250 -0.2437
   57SAPC  H15X 4273   2.429   4.047   5.661  3.3046 -1.5899  1.4513
   57SAPC  H15Y 4274   2.574   4.002   5.577 -0.4424 -0.9628 -0.3791
   57SAPC  C316 4275   2.409   4.081   5.438 -0.2520 -0.5711 -0.8776
   57SAPC  H16X 4276   2.342   4.169   5.429  0.1610 -0.1003  0.4022
   57SAPC  H16Y 4277   2.351   3.987   5.436  1.5871 -1.7577 -1.2020
   57SAPC  C317 4278   2.503   4.094   5.319 -0.0981  0.6120 -0.3981
   57SAPC  H17X 4279   2.585   4.020   5.327 -0.9514 -0.3577 -0.3871
   57SAPC  H17Y 4280   2.547   4.196   5.311 -0.8441  0.8179 -2.5325
   57SAPC  C318 4281   2.434   4.064   5.190 -0.4320 -0.6008  0.0055
   57SAPC  H18X 4282   2.368   4.150   5.163 -0.7646 -0.9287 -0.2215
   57SAPC  H18Y 4283   2.370   3.975   5.203  0.0478 -0.7569  1.5321
   57SAPC  H18Z 4284   2.505   4.052   5.105  0.5551 -1.4735  0.9236
   58SAPC     N 4285   0.396   5.749   7.238 -0.6504  0.1133 -0.0556
   58SAPC   C12 4286   0.406   5.696   7.097 -0.0124 -0.4134  0.3058
   58SAPC  H12A 4287   0.304   5.697   7.061 -0.6833  1.7060  2.0181
   58SAPC  H12B 4288   0.439   5.594   7.102 -1.5589 -0.9950 -0.6087
   58SAPC   C13 4289   0.523   5.727   7.317  0.3915 -0.0735 -0.1022
   58SAPC  H13A 4290   0.515   5.764   7.418  0.4286  0.9262 -0.4541
   58SAPC  H13B 4291   0.559   5.626   7.320  0.3019 -0.0930  2.1857
   58SAPC  H13C 4292   0.600   5.785   7.268  0.2391  0.7972  0.6635
   58SAPC   C14 4293   0.357   5.889   7.237  0.3922  0.2258 -0.3413
   58SAPC  H14A 4294   0.267   5.891   7.177 -0.2332  0.2158  0.5782
   58SAPC  H14B 4295   0.320   5.930   7.329  0.1391  0.0930 -0.3826
   58SAPC  H14C 4296   0.425   5.956   7.186 -1.2818  1.0385 -1.6113
   58SAPC   C15 4297   0.289   5.681   7.326  0.3697 -0.3573  0.9653
   58SAPC  H15A 4298   0.189   5.713   7.301  1.2795  0.9419 -1.2667
   58SAPC  H15B 4299   0.285   5.574   7.310 -3.7383 -0.6862  2.9242
   58SAPC  H15C 4300   0.305   5.701   7.431 -1.2418  2.9983  0.7079
   58SAPC   C11 4301   0.495   5.775   6.998  0.3668  0.0296  0.0963
   58SAPC  H11A 4302   0.471   5.883   7.013 -0.6344 -0.3804  1.6858
   58SAPC  H11B 4303   0.477   5.756   6.890  2.2584 -1.6543  0.0217
   58SAPC     P 4304   0.719   5.633   6.992  0.3395  0.3692 -0.3799
   58SAPC   O13 4305   0.854   5.638   7.058  0.7302  0.2968 -0.0809
   58SAPC   O14 4306   0.630   5.514   7.019 -0.2747  0.2244  0.8117
   58SAPC   O12 4307   0.630   5.761   7.034  0.4598  0.0889  1.2172
   58SAPC   O11 4308   0.730   5.652   6.841  0.1387  0.4954  0.1992
   58SAPC    C1 4309   0.855   5.685   6.771 -0.0229 -0.4788 -0.4388
   58SAPC    HA 4310   0.944   5.632   6.810  0.4276  0.4582 -0.1643
   58SAPC    HB 4311   0.848   5.655   6.664 -1.2623  1.5458 -0.9845
   58SAPC    C2 4312   0.877   5.836   6.778  0.0745 -0.8771 -0.1793
   58SAPC    HS 4313   0.895   5.873   6.881 -1.3229 -0.2984 -0.1210
   58SAPC   O21 4314   0.765   5.906   6.721  0.9030  0.6392  0.9633
   58SAPC   C21 4315   0.755   6.034   6.731 -0.6403  0.1478 -0.0409
   58SAPC   O22 4316   0.828   6.109   6.795 -0.4144 -0.1535 -0.3000
   58SAPC   C22 4317   0.627   6.082   6.648  0.0823 -0.4305  0.4054
   58SAPC   H2R 4318   0.674   6.168   6.596  4.4092 -2.3759  0.6262
   58SAPC   H2S 4319   0.614   5.998   6.576  4.4567 -0.6149 -0.4866
   58SAPC    C3 4320   1.007   5.882   6.700  0.8124  0.0265 -0.5540
   58SAPC    HX 4321   1.094   5.838   6.752 -1.3228 -2.5765  1.0869
   58SAPC    HY 4322   1.029   5.990   6.715  0.3629  0.1485 -0.7522
   58SAPC   O31 4323   0.994   5.846   6.562 -0.0603 -0.3054  0.0327
   58SAPC   C31 4324   0.966   5.939   6.477 -0.0619  0.1575  0.1823
   58SAPC   O32 4325   0.946   6.054   6.501  0.3084 -0.0934  0.7609
   58SAPC   C32 4326   0.947   5.876   6.342 -0.7756  0.4515 -0.0528
   58SAPC   H2X 4327   0.878   5.938   6.282 -0.3483 -0.6772 -1.7887
   58SAPC   H2Y 4328   0.911   5.772   6.356 -0.6289  0.4097  0.0202
   58SAPC   C23 4329   0.506   6.110   6.744  0.2112 -0.2558  0.3126
   58SAPC   H3R 4330   0.533   6.152   6.843 -0.9581 -3.6549  2.2395
   58SAPC   H3S 4331   0.464   6.011   6.773 -2.3580  0.9725  1.0446
   58SAPC   C24 4332   0.394   6.187   6.669 -0.2129 -0.2021 -0.7772
   58SAPC   H4R 4333   0.449   6.266   6.613  0.2206 -0.5443 -0.8402
   58SAPC   H4S 4334   0.317   6.230   6.736 -1.3037 -3.4486  0.2312
   58SAPC   C25 4335   0.316   6.095   6.579  0.3602 -0.3300  0.3350
   58SAPC   H5R 4336   0.295   5.996   6.622  0.3202 -0.0584  0.9451
   58SAPC   C26 4337   0.279   6.115   6.449  0.5083  0.4873 -0.0973
   58SAPC   H6R 4338   0.200   6.052   6.405 -0.1672  2.2380 -1.5344
   58SAPC   C27 4339   0.303   6.247   6.370 -0.1452  0.4344  0.4460
   58SAPC   H7R 4340   0.288   6.326   6.447 -1.4223  1.4015 -0.7461
   58SAPC   H7S 4341   0.229   6.270   6.291  1.0636  3.3401  0.0001
   58SAPC   C28 4342   0.446   6.256   6.313 -0.8507  0.3782  0.3273
   58SAPC   H8R 4343   0.519   6.215   6.385 -0.4182 -0.1277 -0.3878
   58SAPC   C29 4344   0.487   6.304   6.197 -0.8667  0.6809  0.2920
   58SAPC   H9R 4345   0.595   6.311   6.176 -0.6771  0.2518  1.0775
   58SAPC  C210 4346   0.393   6.361   6.096 -0.6989  0.4674  0.0899
   58SAPC  H10R 4347   0.453   6.440   6.047  0.5384 -1.9857 -2.6906
   58SAPC  H10S 4348   0.311   6.413   6.149 -2.5057  0.3704 -2.4128
   58SAPC  C211 4349   0.331   6.259   6.007  0.1104  0.2409 -0.8549
   58SAPC  H11R 4350   0.268   6.179   6.049  2.6722 -2.4346 -1.7428
   58SAPC  C212 4351   0.338   6.255   5.874  0.2176  0.3466  1.1273
   58SAPC  H12R 4352   0.284   6.175   5.821  1.1611 -0.7308  1.7486
   58SAPC  C213 4353   0.421   6.344   5.779 -0.6318  0.5856  0.2116
   58SAPC  H13R 4354   0.409   6.289   5.684  0.3004  1.3818 -0.3850
   58SAPC  H13S 4355   0.527   6.340   5.812 -0.2076  3.1253 -0.5956
   58SAPC  C214 4356   0.380   6.487   5.770 -0.0356 -0.4881 -0.2162
   58SAPC  H14R 4357   0.280   6.492   5.815 -0.1591 -0.9309 -0.4346
   58SAPC  C215 4358   0.446   6.597   5.735 -0.0273 -0.0043  0.0141
   58SAPC  H15R 4359   0.386   6.689   5.725 -1.4425 -0.6225  2.0767
   58SAPC  C216 4360   0.590   6.587   5.687 -0.2895  0.0347  0.4345
   58SAPC  H16R 4361   0.590   6.551   5.582 -1.6059 -0.5618  0.6167
   58SAPC  H16S 4362   0.654   6.516   5.742 -0.7845  0.2711  1.3424
   58SAPC  C217 4363   0.678   6.718   5.702 -0.1389  0.0932 -0.5722
   58SAPC  H17R 4364   0.648   6.796   5.629  2.7854  2.3212  0.4076
   58SAPC  H17S 4365   0.776   6.698   5.653  0.6901  5.2014 -1.5723
   58SAPC  C218 4366   0.691   6.782   5.844  0.2697 -0.0816 -0.7081
   58SAPC  H18R 4367   0.586   6.814   5.864 -0.4422 -2.0174 -1.0630
   58SAPC  H18S 4368   0.766   6.863   5.840  0.8871 -0.5622  0.7908
   58SAPC  C219 4369   0.733   6.690   5.947 -0.2102  0.1784  0.0926
   58SAPC  H19R 4370   0.822   6.638   5.906  1.1377  2.4007  0.0333
   58SAPC  H19S 4371   0.651   6.617   5.964  1.5218 -1.6042  1.1628
   58SAPC  C220 4372   0.767   6.770   6.083  0.3615  0.2736 -0.1770
   58SAPC  H20R 4373   0.675   6.824   6.116 -0.0401 -0.4329 -0.1267
   58SAPC  H20S 4374   0.845   6.846   6.059  1.1972 -1.1505 -2.2010
   58SAPC  H20T 4375   0.799   6.710   6.170 -1.1519 -0.1766  0.1075
   58SAPC   C33 4376   1.082   5.860   6.262  0.6093  0.1720 -0.3664
   58SAPC   H3X 4377   1.149   5.796   6.323  0.7535  0.8135  0.1610
   58SAPC   H3Y 4378   1.144   5.952   6.255  1.2013 -0.2177 -0.2615
   58SAPC   C34 4379   1.061   5.801   6.117  0.0203  0.2942  0.0240
   58SAPC   H4X 4380   0.951   5.806   6.103  0.0349  0.9141  0.0969
   58SAPC   H4Y 4381   1.098   5.696   6.120  1.2288  0.7183  0.2704
   58SAPC   C35 4382   1.138   5.872   6.011  0.3461  0.3295 -0.9898
   58SAPC   H5X 4383   1.246   5.855   6.029  0.1693  2.5500  4.0736
   58SAPC   H5Y 4384   1.128   5.980   6.035  1.3364  0.6083 -1.7840
   58SAPC   C36 4385   1.091   5.875   5.861 -0.0411 -0.2152 -0.0500
   58SAPC   H6X 4386   1.131   5.970   5.818  0.6324 -0.5523 -0.1929
   58SAPC   H6Y 4387   0.981   5.887   5.853 -0.1408 -1.3102 -0.5307
   58SAPC   C37 4388   1.129   5.746   5.786  0.2541 -0.3699  0.4453
   58SAPC   H7X 4389   1.048   5.671   5.801 -1.2372  0.0855 -3.7951
   58SAPC   H7Y 4390   1.233   5.714   5.811  1.0161  1.4487 -0.1989
   58SAPC   C38 4391   1.126   5.745   5.630 -0.6952  0.9699 -0.0693
   58SAPC   H8X 4392   1.033   5.797   5.599  0.2012  1.2774 -2.5624
   58SAPC   H8Y 4393   1.127   5.641   5.592  0.9278  0.4940  1.1770
   58SAPC   C39 4394   1.246   5.819   5.571 -0.9247  0.4137 -0.9007
   58SAPC   H9X 4395   1.343   5.778   5.606 -1.5623 -0.2198  0.1553
   58SAPC   H9Y 4396   1.251   5.926   5.599 -0.1876  0.2682 -0.4441
   58SAPC  C310 4397   1.249   5.823   5.416  0.5215  0.1178  0.5898
   58SAPC  H10X 4398   1.330   5.885   5.371 -0.8733  0.6110 -1.3173
   58SAPC  H10Y 4399   1.156   5.868   5.378 -0.2489 -0.0553  2.1838
   58SAPC  C311 4400   1.263   5.674   5.359  0.3175 -0.4410  0.4309
   58SAPC  H11X 4401   1.173   5.618   5.391  1.9617 -2.6518  1.4505
   58SAPC  H11Y 4402   1.357   5.626   5.393  1.4539 -0.6859 -2.7349
   58SAPC  C312 4403   1.269   5.681   5.207 -0.9113 -0.1893  0.3528
   58SAPC  H12X 4404   1.369   5.646   5.174 -0.0989  2.3406 -0.0559
   58SAPC  H12Y 4405   1.251   5.784   5.169 -0.4259 -0.4440 -0.5923
   58SAPC  C313 4406   1.164   5.598   5.126  0.0782  0.2097 -0.0612
   58SAPC  H13X 4407   1.172   5.627   5.019  0.9708  0.5666  0.0949
   58SAPC  H13Y 4408   1.061   5.625   5.159  0.2232  0.2410  0.3697
   58SAPC  C314 4409   1.200   5.452   5.136  0.0811 -0.0696  0.1936
   58SAPC  H14X 4410   1.227   5.429   5.241  1.9539  0.4521 -0.1384
   58SAPC  H14Y 4411   1.296   5.444   5.081  0.6019  0.7061  0.9671
   58SAPC  C315 4412   1.095   5.353   5.097  0.0264  0.3069 -0.3571
   58SAPC  H15X 4413   1.064   5.385   4.995 -2.4809  1.0660  0.5728
   58SAPC  H15Y 4414   1.013   5.354   5.171  0.8124  0.1610  0.5272
   58SAPC  C316 4415   1.146   5.211   5.105  0.1144  0.1410  0.2893
   58SAPC  H16X 4416   1.226   5.203   5.028 -0.7194 -0.4971 -0.5394
   58SAPC  H16Y 4417   1.061   5.146   5.073 -1.3199  2.3274 -0.5413
   58SAPC  C317 4418   1.198   5.171   5.241 -0.3058  0.6129 -0.3000
   58SAPC  H17X 4419   1.135   5.201   5.327 -0.8224 -1.5622  0.1598
   58SAPC  H17Y 4420   1.286   5.236   5.259 -1.0194  1.0835  1.7563
   58SAPC  C318 4421   1.248   5.027   5.270 -0.1204  0.6551 -0.2795
   58SAPC  H18X 4422   1.273   5.022   5.378 -0.4336  0.9659 -0.1910
   58SAPC  H18Y 4423   1.337   5.004   5.208  0.5612 -0.3519  1.0235
   58SAPC  H18Z 4424   1.169   4.952   5.246  1.0945  0.0115 -2.5657
   59SAPC     N 4425   5.195   2.285   6.998 -0.2969  0.4004 -0.3124
   59SAPC   C12 4426   5.340   2.304   7.026 -0.4797 -0.5548 -0.1038
   59SAPC  H12A 4427   5.375   2.401   6.995  1.1358 -0.0341  2.9548
   59SAPC  H12B 4428   5.402   2.234   6.973 -0.3121 -0.5700  0.1114
   59SAPC   C13 4429   5.166   2.280   6.851 -0.5203 -0.2601  0.2317
   59SAPC  H13A 4430   5.059   2.274   6.834 -0.2503 -1.3533 -1.2855
   59SAPC  H13B 4431   5.209   2.367   6.803  1.5301 -0.6690  1.2296
   59SAPC  H13C 4432   5.207   2.192   6.805 -0.4774 -0.0228 -0.1931
   59SAPC   C14 4433   5.142   2.156   7.049  0.9281 -0.1243  0.5708
   59SAPC  H14A 4434   5.183   2.074   6.992 -0.0041  1.0377 -1.9095
   59SAPC  H14B 4435   5.164   2.135   7.153 -0.4045 -0.7838  0.7419
   59SAPC  H14C 4436   5.035   2.149   7.035  1.2108 -0.6367 -1.7475
   59SAPC   C15 4437   5.119   2.394   7.064  0.3378  0.5262 -0.6670
   59SAPC  H15A 4438   5.027   2.427   7.019  1.3536  2.1591 -1.6344
   59SAPC  H15B 4439   5.093   2.374   7.167 -1.0010  1.6229 -0.7559
   59SAPC  H15C 4440   5.178   2.485   7.064  0.8266  0.3063  2.2603
   59SAPC   C11 4441   5.393   2.287   7.170 -0.2458  0.0546  0.3931
   59SAPC  H11A 4442   5.336   2.354   7.239  1.8684  1.6051  0.7403
   59SAPC  H11B 4443   5.494   2.329   7.188 -0.6695  1.6910 -0.8205
   59SAPC     P 4444   5.489   2.047   7.171 -0.1802  0.1840 -0.0264
   59SAPC   O13 4445   5.606   2.115   7.110  0.3038 -0.1662  0.0465
   59SAPC   O14 4446   5.520   1.947   7.273 -0.5782 -0.3235 -0.2992
   59SAPC   O12 4447   5.391   2.150   7.224  0.2267 -0.1166 -0.0979
   59SAPC   O11 4448   5.415   1.969   7.060 -0.1299  0.0074 -0.2079
   59SAPC    C1 4449   5.327   1.862   7.072 -0.2113  1.1900  0.6603
   59SAPC    HA 4450   5.391   1.773   7.088 -0.6519  0.8159  0.3746
   59SAPC    HB 4451   5.262   1.862   7.163 -1.0789  2.9632  0.0897
   59SAPC    C2 4452   5.251   1.835   6.942 -0.5196 -0.1431 -0.2466
   59SAPC    HS 4453   5.297   1.745   6.895  2.5564  1.2999 -0.2644
   59SAPC   O21 4454   5.265   1.946   6.851  0.3150  0.0019  0.4642
   59SAPC   C21 4455   5.294   1.915   6.733 -0.2651  0.0931  0.4387
   59SAPC   O22 4456   5.315   1.803   6.684  0.2564  0.2387  0.2825
   59SAPC   C22 4457   5.298   2.037   6.636  0.0735  0.4849  0.1049
   59SAPC   H2R 4458   5.190   2.054   6.620 -0.0832 -2.3264 -2.5706
   59SAPC   H2S 4459   5.338   2.128   6.687 -3.3189  3.2452 -1.7058
   59SAPC    C3 4460   5.103   1.811   6.957 -0.2912 -0.0749 -0.3723
   59SAPC    HX 4461   5.056   1.899   7.005 -0.7287 -0.4483 -0.0973
   59SAPC    HY 4462   5.083   1.717   7.013 -0.0182  0.1487  0.1069
   59SAPC   O31 4463   5.043   1.810   6.825 -0.3844 -0.0639 -0.2571
   59SAPC   C31 4464   5.013   1.692   6.767  0.3358 -0.0213 -0.2811
   59SAPC   O32 4465   5.030   1.588   6.827 -0.3616 -0.1902  0.0165
   59SAPC   C32 4466   4.965   1.707   6.624  0.2416 -0.2177  0.6444
   59SAPC   H2X 4467   5.042   1.755   6.561  0.3570 -1.1352  0.0713
   59SAPC   H2Y 4468   4.878   1.776   6.626  1.0517  0.9628 -1.4505
   59SAPC   C23 4469   5.346   2.014   6.495  0.2156 -0.4493  0.1850
   59SAPC   H3R 4470   5.452   1.980   6.493  0.9196  1.2216  3.3506
   59SAPC   H3S 4471   5.338   2.113   6.445 -1.3274 -0.1990  0.8709
   59SAPC   C24 4472   5.275   1.915   6.403 -0.6122 -0.1967 -0.1234
   59SAPC   H4R 4473   5.174   1.961   6.417 -1.0880 -1.4812  0.9277
   59SAPC   H4S 4474   5.292   1.815   6.447 -0.3018 -0.9736 -1.9364
   59SAPC   C25 4475   5.329   1.909   6.259  0.0392 -0.7881  0.2454
   59SAPC   H5R 4476   5.424   1.857   6.238 -0.0239  0.3110 -3.3332
   59SAPC   C26 4477   5.280   1.972   6.149 -0.0185 -0.3280  0.0117
   59SAPC   H6R 4478   5.339   1.948   6.060  0.9704  1.1165  0.2402
   59SAPC   C27 4479   5.157   2.062   6.126 -1.0897  0.3040 -0.4333
   59SAPC   H7R 4480   5.126   2.091   6.229  1.8478 -0.3943  0.7276
   59SAPC   H7S 4481   5.083   2.003   6.068 -0.9132 -0.1897 -0.1515
   59SAPC   C28 4482   5.180   2.189   6.048 -0.0255  0.5311 -0.5387
   59SAPC   H8R 4483   5.191   2.274   6.117 -1.7294 -0.0158  0.4541
   59SAPC   C29 4484   5.199   2.205   5.918 -0.4575  0.4748  0.1418
   59SAPC   H9R 4485   5.215   2.307   5.882  0.2972  0.0271 -0.8520
   59SAPC  C210 4486   5.190   2.088   5.819  0.0946 -0.0854  0.8488
   59SAPC  H10R 4487   5.099   2.125   5.766  1.1374  1.7554  0.2233
   59SAPC  H10S 4488   5.158   1.997   5.872  0.2714  0.6879  2.3460
   59SAPC  C211 4489   5.302   2.087   5.715  0.3532  0.5796  0.9234
   59SAPC  H11R 4490   5.394   2.049   5.762  0.4490 -0.3669  0.0067
   59SAPC  C212 4491   5.306   2.143   5.592  0.0178 -0.1393  0.0369
   59SAPC  H12R 4492   5.396   2.131   5.530 -0.1867  1.3367 -0.5967
   59SAPC  C213 4493   5.199   2.228   5.520  0.9710  0.4922 -0.4142
   59SAPC  H13R 4494   5.128   2.272   5.592 -0.1503 -0.6818 -0.7634
   59SAPC  H13S 4495   5.141   2.153   5.462  0.6076 -0.6202  1.3248
   59SAPC  C214 4496   5.253   2.337   5.428 -0.2778 -0.1612 -0.6618
   59SAPC  H14R 4497   5.235   2.442   5.455 -1.3848 -0.3654 -0.5378
   59SAPC  C215 4498   5.331   2.310   5.321 -0.2636 -0.2431  0.1564
   59SAPC  H15R 4499   5.374   2.395   5.266 -2.3550  1.1074  0.5209
   59SAPC  C216 4500   5.379   2.177   5.262  0.2077 -0.5490 -0.4610
   59SAPC  H16R 4501   5.333   2.096   5.323 -0.4295  0.1614  0.0246
   59SAPC  H16S 4502   5.489   2.181   5.281  0.5332  1.4567 -2.4242
   59SAPC  C217 4503   5.341   2.159   5.120  0.6943  0.2339  0.3375
   59SAPC  H17R 4504   5.231   2.149   5.124  0.7959 -0.7640  1.1491
   59SAPC  H17S 4505   5.382   2.065   5.075 -1.7175 -0.4549 -0.5670
   59SAPC  C218 4506   5.389   2.278   5.029  0.7056  0.5793 -0.8606
   59SAPC  H18R 4507   5.499   2.281   5.043  0.5490 -1.0953  1.1653
   59SAPC  H18S 4508   5.341   2.374   5.057  1.2217  0.3514  0.9136
   59SAPC  C219 4509   5.354   2.282   4.881  0.3095  0.0198  0.8360
   59SAPC  H19R 4510   5.410   2.202   4.828 -0.0978  0.2080  0.0909
   59SAPC  H19S 4511   5.393   2.375   4.833 -1.1153  0.5812  0.7070
   59SAPC  C220 4512   5.211   2.252   4.829  0.0216  0.5455 -0.0823
   59SAPC  H20R 4513   5.167   2.151   4.847  0.2223 -0.1346 -3.0215
   59SAPC  H20S 4514   5.201   2.270   4.720 -2.5771  1.0336  0.1494
   59SAPC  H20T 4515   5.144   2.328   4.877 -0.0179  1.1871 -1.1322
   59SAPC   C33 4516   4.914   1.576   6.557  0.0490  0.2399 -0.6109
   59SAPC   H3X 4517   4.808   1.592   6.530 -0.0576 -0.0648 -0.3778
   59SAPC   H3Y 4518   4.913   1.486   6.622  1.1721  0.8060  0.2228
   59SAPC   C34 4519   5.003   1.549   6.427  0.4720  0.1503  0.1740
   59SAPC   H4X 4520   5.109   1.549   6.462  1.3513  0.9150 -2.2628
   59SAPC   H4Y 4521   4.997   1.634   6.355  2.1222  0.2975  0.1700
   59SAPC   C35 4522   4.977   1.414   6.364 -0.0920 -0.5244  1.1581
   59SAPC   H5X 4523   4.870   1.405   6.334  0.1311  0.0338  0.1402
   59SAPC   H5Y 4524   4.998   1.341   6.445 -1.5329 -1.7904  0.4449
   59SAPC   C36 4525   5.062   1.388   6.245 -0.4048  0.2257 -0.3195
   59SAPC   H6X 4526   5.046   1.286   6.205 -1.9730 -0.0765  0.9517
   59SAPC   H6Y 4527   5.166   1.387   6.284  0.2102  0.9159 -1.8807
   59SAPC   C37 4528   5.058   1.494   6.141 -0.4012  0.0932  0.1999
   59SAPC   H7X 4529   5.101   1.591   6.174  2.6246 -0.2357 -2.2654
   59SAPC   H7Y 4530   4.953   1.506   6.106 -0.9598 -2.5963  0.7592
   59SAPC   C38 4531   5.130   1.465   6.016 -0.1996 -0.3378 -0.3909
   59SAPC   H8X 4532   5.095   1.372   5.965 -0.3632  0.1239 -1.1448
   59SAPC   H8Y 4533   5.238   1.450   6.035 -0.4047 -1.2224  0.1337
   59SAPC   C39 4534   5.113   1.577   5.913 -0.7735 -0.5572 -0.5910
   59SAPC   H9X 4535   5.143   1.674   5.956 -1.6179 -0.7176  0.3997
   59SAPC   H9Y 4536   5.008   1.600   5.886 -0.1730  0.4045 -2.2595
   59SAPC  C310 4537   5.213   1.553   5.797 -0.6811 -0.0816 -0.5399
   59SAPC  H10X 4538   5.198   1.457   5.743  2.3370  0.3096 -2.3291
   59SAPC  H10Y 4539   5.308   1.538   5.854 -2.1815 -1.3035  1.8146
   59SAPC  C311 4540   5.210   1.676   5.706 -0.3016  0.3993  0.1151
   59SAPC  H11X 4541   5.272   1.760   5.743 -0.2746  0.7654 -0.7482
   59SAPC  H11Y 4542   5.106   1.712   5.697 -0.6799 -0.8744 -0.8094
   59SAPC  C312 4543   5.271   1.658   5.563 -0.2660 -0.0575 -0.2518
   59SAPC  H12X 4544   5.213   1.582   5.506 -0.5498 -0.9165  1.1260
   59SAPC  H12Y 4545   5.370   1.608   5.563 -0.2488 -0.0471 -1.1648
   59SAPC  C313 4546   5.297   1.785   5.491  0.4110 -0.2823 -0.4313
   59SAPC  H13X 4547   5.369   1.839   5.556 -0.5186  0.2904  0.1491
   59SAPC  H13Y 4548   5.219   1.864   5.488  0.9510  0.2496 -0.8449
   59SAPC  C314 4549   5.350   1.771   5.350 -0.2345 -0.4686 -0.1838
   59SAPC  H14X 4550   5.411   1.679   5.333  0.2115  0.0195 -1.3172
   59SAPC  H14Y 4551   5.412   1.857   5.316  2.4477 -1.9878  0.5200
   59SAPC  C315 4552   5.235   1.770   5.249 -0.3394 -0.2960  0.9747
   59SAPC  H15X 4553   5.199   1.873   5.232 -0.2661 -0.7306 -2.9050
   59SAPC  H15Y 4554   5.149   1.709   5.282 -2.1760  0.6217 -1.7747
   59SAPC  C316 4555   5.273   1.719   5.103 -0.4356 -0.3830 -0.2854
   59SAPC  H16X 4556   5.273   1.608   5.092  0.2069 -0.4008 -0.1707
   59SAPC  H16Y 4557   5.381   1.743   5.091  0.0437 -1.4615  1.4294
   59SAPC  C317 4558   5.176   1.778   4.993  0.1602  0.1807  0.5298
   59SAPC  H17X 4559   5.183   1.889   4.997 -0.5535  0.3255 -1.3288
   59SAPC  H17Y 4560   5.078   1.746   5.033 -0.7038  0.5164 -1.2253
   59SAPC  C318 4561   5.204   1.737   4.846  0.1929  0.1979 -0.5240
   59SAPC  H18X 4562   5.145   1.799   4.774 -0.0145  0.5170 -0.0832
   59SAPC  H18Y 4563   5.205   1.627   4.831 -0.9888 -0.1031  1.2973
   59SAPC  H18Z 4564   5.308   1.767   4.822 -0.6856  2.8251 -1.4720
   60SAPC     N 4565   5.604   2.920   7.236 -0.4070 -0.7566  0.3668
   60SAPC   C12 4566   5.754   2.905   7.218  0.0268  0.8343  0.3159
   60SAPC  H12A 4567   5.786   2.838   7.296  0.3791 -0.5426 -0.9651
   60SAPC  H12B 4568   5.810   2.993   7.248  0.4995  0.8637 -0.5934
   60SAPC   C13 4569   5.548   2.781   7.262  1.1504 -0.4904 -0.2806
   60SAPC  H13A 4570   5.588   2.734   7.351 -0.0313 -2.3906 -0.6965
   60SAPC  H13B 4571   5.441   2.777   7.274  1.2218 -0.2705  0.5176
   60SAPC  H13C 4572   5.578   2.724   7.175  1.3363 -0.1522 -0.4403
   60SAPC   C14 4573   5.582   3.003   7.356 -0.0186 -0.1428  0.1286
   60SAPC  H14A 4574   5.624   3.099   7.332  2.4283 -1.5368 -1.6667
   60SAPC  H14B 4575   5.481   3.015   7.392 -0.8716  2.3793 -2.7553
   60SAPC  H14C 4576   5.632   2.969   7.446 -0.4302  2.1787  1.3040
   60SAPC   C15 4577   5.538   2.979   7.118  0.7029 -0.3206 -0.0880
   60SAPC  H15A 4578   5.530   2.918   7.029 -0.7899 -1.5843  0.8635
   60SAPC  H15B 4579   5.441   3.016   7.148  2.1425  2.6077  1.2923
   60SAPC  H15C 4580   5.601   3.062   7.091 -1.1029  1.3280  0.5882
   60SAPC   C11 4581   5.814   2.837   7.095 -0.0398 -0.9110  0.1152
   60SAPC  H11A 4582   5.922   2.855   7.110  0.8027 -4.9718  0.0358
   60SAPC  H11B 4583   5.790   2.896   7.004  0.0937 -1.3919 -0.2403
   60SAPC     P 4584   5.882   2.579   7.102  0.2638 -0.1366 -0.1389
   60SAPC   O13 4585   5.948   2.611   7.229  0.1776  0.0925  0.4364
   60SAPC   O14 4586   5.813   2.448   7.081 -0.0081 -0.0899 -0.5051
   60SAPC   O12 4587   5.777   2.702   7.078 -0.4721  0.5800  0.2812
   60SAPC   O11 4588   5.982   2.598   6.984 -0.1751 -0.0366  0.2874
   60SAPC    C1 4589   6.120   2.638   6.995 -0.3776  0.1278 -0.1052
   60SAPC    HA 4590   6.135   2.715   7.073 -0.8826  2.0089 -1.7794
   60SAPC    HB 4591   6.181   2.547   7.017 -1.2728  0.0062  2.0944
   60SAPC    C2 4592   6.185   2.703   6.869 -0.0764 -0.4468 -0.2612
   60SAPC    HS 4593   6.286   2.729   6.906  0.8338 -2.2094 -1.3873
   60SAPC   O21 4594   6.112   2.825   6.819  0.5167  0.1413  0.2064
   60SAPC   C21 4595   6.193   2.926   6.778  0.4163 -0.5267  0.0520
   60SAPC   O22 4596   6.314   2.933   6.783  0.4069  0.3095  0.1759
   60SAPC   C22 4597   6.108   3.028   6.704  0.0768 -0.3515 -0.3086
   60SAPC   H2R 4598   6.025   3.064   6.768 -1.1711  0.7690 -2.4321
   60SAPC   H2S 4599   6.178   3.112   6.681  0.0830 -1.0604 -3.2968
   60SAPC    C3 4600   6.204   2.602   6.752  0.5543  0.9973 -0.8964
   60SAPC    HX 4601   6.107   2.558   6.720  0.0518 -0.0066  1.7742
   60SAPC    HY 4602   6.260   2.516   6.794  0.0620  1.5592  1.0211
   60SAPC   O31 4603   6.271   2.669   6.642 -0.4061  0.3926  0.2350
   60SAPC   C31 4604   6.356   2.606   6.566  0.3520  0.0111 -0.3116
   60SAPC   O32 4605   6.415   2.499   6.586  0.4201 -0.2787 -0.0359
   60SAPC   C32 4606   6.390   2.694   6.445 -0.0150  0.0558 -0.1711
   60SAPC   H2X 4607   6.470   2.759   6.486 -0.0849  0.2858 -0.4035
   60SAPC   H2Y 4608   6.295   2.744   6.417 -0.4902 -0.8622 -0.2408
   60SAPC   C23 4609   6.069   2.963   6.571  0.3204 -0.5635  0.0055
   60SAPC   H3R 4610   6.014   2.872   6.602  2.2162 -0.6338  3.7171
   60SAPC   H3S 4611   6.160   2.944   6.509  1.0390  0.5734  0.6578
   60SAPC   C24 4612   5.971   3.048   6.487 -0.0085 -0.0918 -0.1798
   60SAPC   H4R 4613   6.012   3.152   6.487 -1.0326  0.3256 -0.2746
   60SAPC   H4S 4614   5.875   3.044   6.542  0.0146 -0.4277 -0.1656
   60SAPC   C25 4615   5.948   3.000   6.343  0.4950  0.3302 -0.2559
   60SAPC   H5R 4616   5.856   2.941   6.331  1.1019 -0.4021 -1.5638
   60SAPC   C26 4617   6.024   3.020   6.233  0.1312 -0.1954  0.5111
   60SAPC   H6R 4618   5.979   2.997   6.136 -1.8485  2.6953  0.6433
   60SAPC   C27 4619   6.149   3.108   6.231  0.7178 -0.6648  0.0813
   60SAPC   H7R 4620   6.177   3.145   6.332 -2.1627 -2.5743  1.7174
   60SAPC   H7S 4621   6.144   3.204   6.175 -1.6041  1.0056  2.8590
   60SAPC   C28 4622   6.269   3.028   6.177 -0.1561  0.4673  0.8907
   60SAPC   H8R 4623   6.337   2.991   6.255  1.3868  0.8426 -0.2304
   60SAPC   C29 4624   6.290   2.994   6.045  0.0614 -0.0307  0.4278
   60SAPC   H9R 4625   6.377   2.932   6.020 -0.1838 -0.6463  1.0753
   60SAPC  C210 4626   6.208   3.036   5.925  0.9790 -1.0597 -0.1811
   60SAPC  H10R 4627   6.287   3.082   5.862  1.2389  1.4164  1.7744
   60SAPC  H10S 4628   6.132   3.110   5.960 -1.0462 -2.8595 -0.5369
   60SAPC  C211 4629   6.139   2.924   5.853  0.2424 -0.0286  0.1713
   60SAPC  H11R 4630   6.138   2.823   5.897  0.5766  0.5985  1.6834
   60SAPC  C212 4631   6.082   2.935   5.732 -0.1670  1.0815 -0.3645
   60SAPC  H12R 4632   6.044   2.843   5.684 -0.3749 -0.6861  2.8640
   60SAPC  C213 4633   6.054   3.062   5.660 -0.0871  0.4661  0.5408
   60SAPC  H13R 4634   6.050   3.151   5.726 -0.8869 -0.1643  1.3889
   60SAPC  H13S 4635   5.953   3.056   5.613  0.8581 -2.1741 -1.4099
   60SAPC  C214 4636   6.165   3.072   5.548  0.5843  0.2280 -0.8287
   60SAPC  H14R 4637   6.244   3.144   5.575 -0.7372  1.0733  1.0811
   60SAPC  C215 4638   6.153   3.027   5.423 -0.7355  0.6279 -0.0522
   60SAPC  H15R 4639   6.242   3.044   5.361 -0.3124  0.2460  0.4514
   60SAPC  C216 4640   6.048   2.940   5.366 -0.3781 -0.6992 -0.3368
   60SAPC  H16R 4641   5.954   2.932   5.424 -3.3937  1.0986 -4.4603
   60SAPC  H16S 4642   6.088   2.836   5.362  1.8270  0.0885 -0.2072
   60SAPC  C217 4643   5.989   2.989   5.231 -0.3235 -0.4453 -0.7271
   60SAPC  H17R 4644   5.949   3.091   5.249  0.3848 -0.0234 -1.4430
   60SAPC  H17S 4645   5.901   2.932   5.193 -1.3809  0.3867  0.4056
   60SAPC  C218 4646   6.103   2.992   5.130  0.2684  0.3107 -0.2051
   60SAPC  H18R 4647   6.155   2.894   5.121 -1.2027 -0.4075 -1.3319
   60SAPC  H18S 4648   6.179   3.067   5.160  0.4597 -0.1943  0.5974
   60SAPC  C219 4649   6.044   3.019   4.992 -0.2636 -0.2775  0.3696
   60SAPC  H19R 4650   6.023   3.126   4.974 -0.9376 -0.4839 -0.1073
   60SAPC  H19S 4651   5.951   2.959   4.984 -1.0247  1.0437 -1.7083
   60SAPC  C220 4652   6.152   2.976   4.887 -0.4299 -0.4308  0.0915
   60SAPC  H20R 4653   6.122   3.002   4.783  3.2929 -0.9541 -1.2788
   60SAPC  H20S 4654   6.170   2.867   4.894 -1.0676 -0.4259  3.2128
   60SAPC  H20T 4655   6.248   3.029   4.907 -0.6140 -0.8264  2.3234
   60SAPC   C33 4656   6.452   2.625   6.324 -0.1754  0.4777  0.4049
   60SAPC   H3X 4657   6.404   2.529   6.294  3.4014 -0.8928 -1.4746
   60SAPC   H3Y 4658   6.555   2.596   6.352 -0.6724 -0.0193  1.8249
   60SAPC   C34 4659   6.457   2.714   6.201 -0.1124 -0.2712 -0.1063
   60SAPC   H4X 4660   6.517   2.805   6.219 -0.7006 -0.0189  0.6657
   60SAPC   H4Y 4661   6.353   2.748   6.181 -0.7730 -1.8216  0.4837
   60SAPC   C35 4662   6.506   2.651   6.066  0.0029  0.4963  0.0647
   60SAPC   H5X 4663   6.487   2.726   5.986  0.5749  0.1999 -0.3509
   60SAPC   H5Y 4664   6.447   2.561   6.036  0.2781 -0.6302  2.5931
   60SAPC   C36 4665   6.653   2.608   6.063 -0.5221 -0.2146  0.0367
   60SAPC   H6X 4666   6.684   2.532   6.138  0.0486 -0.0285 -0.0006
   60SAPC   H6Y 4667   6.715   2.699   6.082  0.2919 -0.8038  0.2828
   60SAPC   C37 4668   6.696   2.555   5.931  0.3960 -0.3065 -0.3425
   60SAPC   H7X 4669   6.714   2.636   5.858  0.9623 -1.1985 -1.2172
   60SAPC   H7Y 4670   6.611   2.502   5.883 -0.1535 -0.2917  0.5937
   60SAPC   C38 4671   6.819   2.462   5.936 -0.5506  0.5540  0.2527
   60SAPC   H8X 4672   6.788   2.381   6.005  0.2088 -1.4545 -1.6188
   60SAPC   H8Y 4673   6.908   2.517   5.973  0.4769  0.3863 -1.8176
   60SAPC   C39 4674   6.863   2.390   5.803  0.0180  0.2710  0.0622
   60SAPC   H9X 4675   6.780   2.330   5.761  0.4613 -0.5537  0.3451
   60SAPC   H9Y 4676   6.947   2.328   5.842 -1.2026 -0.5177  1.5347
   60SAPC  C310 4677   6.914   2.492   5.703  0.2462 -0.2707 -0.1685
   60SAPC  H10X 4678   6.993   2.551   5.755 -0.3784 -1.6863  2.5639
   60SAPC  H10Y 4679   6.834   2.563   5.672 -1.7234 -2.7551 -1.0605
   60SAPC  C311 4680   6.977   2.424   5.581 -0.0659 -0.3331 -0.2064
   60SAPC  H11X 4681   6.905   2.348   5.545 -0.7864 -0.1856  0.8649
   60SAPC  H11Y 4682   7.072   2.370   5.603  0.4676  0.5213 -0.3526
   60SAPC  C312 4683   6.995   2.522   5.464  0.1078  1.0661  0.1630
   60SAPC  H12X 4684   7.056   2.604   5.507  0.1521 -0.4301  3.1816
   60SAPC  H12Y 4685   6.903   2.570   5.424  0.2395  1.3493  0.1932
   60SAPC  C313 4686   7.069   2.447   5.350 -0.0283 -0.1778 -0.1521
   60SAPC  H13X 4687   7.036   2.342   5.336 -0.5611  0.1231 -1.2498
   60SAPC  H13Y 4688   7.177   2.448   5.378  0.1333  0.0427 -0.7676
   60SAPC  C314 4689   7.066   2.521   5.215 -0.0736  0.7054 -0.6730
   60SAPC  H14X 4690   7.112   2.622   5.216 -0.0798  0.7374  1.7229
   60SAPC  H14Y 4691   6.962   2.552   5.191  0.2681  2.7837  0.3244
   60SAPC  C315 4692   7.129   2.443   5.104 -0.2056  0.4544  0.7147
   60SAPC  H15X 4693   7.051   2.368   5.079 -0.7442  1.3990 -0.5335
   60SAPC  H15Y 4694   7.209   2.377   5.144  0.6222  0.6946 -0.4789
   60SAPC  C316 4695   7.168   2.519   4.978  0.3052 -0.5415 -0.2305
   60SAPC  H16X 4696   7.077   2.574   4.945 -0.1410 -0.1947  1.4756
   60SAPC  H16Y 4697   7.209   2.462   4.892  0.9917 -4.4604  2.4274
   60SAPC  C317 4698   7.283   2.615   4.995 -0.3971  0.6616 -0.4358
   60SAPC  H17X 4699   7.367   2.546   5.017 -3.2924 -2.8769  0.3772
   60SAPC  H17Y 4700   7.283   2.685   5.081  0.9739  2.4418 -1.7731
   60SAPC  C318 4701   7.312   2.701   4.881  0.5910 -0.6685  0.6719
   60SAPC  H18X 4702   7.327   2.649   4.784 -2.1127  2.8406 -1.9170
   60SAPC  H18Y 4703   7.399   2.768   4.900  0.1066 -0.3040  1.6774
   60SAPC  H18Z 4704   7.223   2.766   4.867  0.1805 -0.5478  3.3901
   61SAPC     N 4705   3.249   0.147   6.913 -0.2400 -0.1581  0.6253
   61SAPC   C12 4706   3.097   0.154   6.910  0.7971 -0.3254  0.6400
   61SAPC  H12A 4707   3.064   0.230   6.978 -0.1595 -0.5157  0.4051
   61SAPC  H12B 4708   3.040   0.075   6.957 -2.0569  1.6169  0.7049
   61SAPC   C13 4709   3.293   0.029   6.837 -0.0072 -0.0115 -0.2874
   61SAPC  H13A 4710   3.273  -0.059   6.897  0.2134 -0.7268 -1.2530
   61SAPC  H13B 4711   3.242   0.025   6.743 -1.4890  0.6181  0.4627
   61SAPC  H13C 4712   3.399   0.032   6.818 -0.3091 -0.8308 -2.3008
   61SAPC   C14 4713   3.313   0.273   6.865  0.3574 -0.4000 -0.4717
   61SAPC  H14A 4714   3.307   0.345   6.945  1.5835 -0.0975 -0.6310
   61SAPC  H14B 4715   3.417   0.268   6.837  0.6562  1.7744  0.0615
   61SAPC  H14C 4716   3.264   0.315   6.779 -0.9977 -0.1487  0.3947
   61SAPC   C15 4717   3.290   0.128   7.051 -0.1194 -0.1175 -0.3859
   61SAPC  H15A 4718   3.250   0.207   7.113 -0.5168 -0.7346  0.1563
   61SAPC  H15B 4719   3.241   0.034   7.072 -2.8011  0.6935 -2.2994
   61SAPC  H15C 4720   3.398   0.129   7.052 -0.0721  1.8680 -1.6807
   61SAPC   C11 4721   3.025   0.194   6.776  0.4122  0.4297 -0.0264
   61SAPC  H11A 4722   2.916   0.175   6.790  0.4213  1.8350  2.5128
   61SAPC  H11B 4723   3.048   0.118   6.697 -0.2673 -0.4434  0.5952
   61SAPC     P 4724   2.985   0.447   6.774 -0.3403  0.1421  0.4132
   61SAPC   O13 4725   2.967   0.447   6.921 -0.1862 -0.1275  0.2541
   61SAPC   O14 4726   3.063   0.563   6.721  0.5576 -0.4474 -0.1125
   61SAPC   O12 4727   3.066   0.321   6.730 -0.7041  0.5158 -0.2475
   61SAPC   O11 4728   2.843   0.429   6.707  0.2217 -0.4435  0.1220
   61SAPC    C1 4729   2.817   0.386   6.580 -0.8072 -0.1036  0.5828
   61SAPC    HA 4730   2.822   0.276   6.573 -0.4500 -0.0725  0.3156
   61SAPC    HB 4731   2.714   0.423   6.564 -0.7337 -0.7894 -1.9728
   61SAPC    C2 4732   2.902   0.450   6.467 -0.5032 -0.2638  0.1343
   61SAPC    HS 4733   2.933   0.553   6.496  2.8632 -1.3006  0.5852
   61SAPC   O21 4734   2.811   0.459   6.357  0.3301  0.1184 -0.3712
   61SAPC   C21 4735   2.829   0.562   6.277  0.2697 -0.0263 -0.2096
   61SAPC   O22 4736   2.906   0.652   6.299 -0.0081  0.2661 -0.0506
   61SAPC   C22 4737   2.741   0.555   6.162 -0.3756  0.0583 -0.0671
   61SAPC   H2R 4738   2.802   0.541   6.070  2.1201 -2.2349  1.7623
   61SAPC   H2S 4739   2.674   0.466   6.173  0.9915 -1.0584 -0.4262
   61SAPC    C3 4740   3.024   0.358   6.432 -0.1115 -0.3291  0.5847
   61SAPC    HX 4741   2.990   0.254   6.449 -1.2285 -0.0477  0.1809
   61SAPC    HY 4742   3.100   0.387   6.507  0.7746 -0.4363 -0.2469
   61SAPC   O31 4743   3.073   0.370   6.299  0.6305 -0.8204 -0.1662
   61SAPC   C31 4744   3.199   0.417   6.284 -0.3778 -0.0404 -0.0213
   61SAPC   O32 4745   3.282   0.430   6.375  0.4709 -0.4875 -0.4777
   61SAPC   C32 4746   3.239   0.438   6.138 -0.3190 -0.3805  0.3070
   61SAPC   H2X 4747   3.339   0.392   6.124 -0.0008 -0.2992  2.1419
   61SAPC   H2Y 4748   3.255   0.546   6.119 -3.3142  0.3524  1.4180
   61SAPC   C23 4749   2.661   0.691   6.163  0.0548 -0.0359  0.2062
   61SAPC   H3R 4750   2.741   0.768   6.158  0.8973 -0.9431 -1.2982
   61SAPC   H3S 4751   2.602   0.700   6.256 -0.9646  0.4603 -0.4668
   61SAPC   C24 4752   2.567   0.705   6.038 -0.9893 -0.0937  0.1799
   61SAPC   H4R 4753   2.471   0.741   6.079 -0.8960 -0.5891  0.8470
   61SAPC   H4S 4754   2.558   0.603   5.994  0.9459  0.4784 -1.6999
   61SAPC   C25 4755   2.624   0.795   5.927  0.1498 -0.3759 -0.2268
   61SAPC   H5R 4756   2.701   0.747   5.865  1.9327  0.5496  1.1743
   61SAPC   C26 4757   2.595   0.925   5.898 -0.1182  0.0254 -0.5755
   61SAPC   H6R 4758   2.659   0.967   5.819  1.2749  0.4421  0.7411
   61SAPC   C27 4759   2.491   1.004   5.966  0.3724 -0.8049  0.6378
   61SAPC   H7R 4760   2.445   0.949   6.051  0.6253 -2.7340 -0.4058
   61SAPC   H7S 4761   2.401   1.024   5.905 -0.7238 -3.9650  1.0081
   61SAPC   C28 4762   2.539   1.149   6.016  0.5517  0.0251  0.0860
   61SAPC   H8R 4763   2.648   1.155   6.023  0.4942 -1.0074  2.9023
   61SAPC   C29 4764   2.470   1.263   6.039  0.2649 -0.5788  0.5563
   61SAPC   H9R 4765   2.507   1.358   6.080  0.1425 -0.7323  1.0271
   61SAPC  C210 4766   2.316   1.268   6.025 -0.2441 -0.3962 -0.2347
   61SAPC  H10R 4767   2.281   1.196   6.102  0.7504 -0.6623 -0.0256
   61SAPC  H10S 4768   2.292   1.217   5.930  1.3591 -0.2242 -0.7631
   61SAPC  C211 4769   2.239   1.396   6.025 -0.5598  0.1857  0.0397
   61SAPC  H11R 4770   2.212   1.425   6.127 -0.8707 -3.5848  1.1672
   61SAPC  C212 4771   2.219   1.477   5.922 -0.1864 -0.2629  1.4059
   61SAPC  H12R 4772   2.168   1.572   5.943 -2.2973 -1.5088  2.1846
   61SAPC  C213 4773   2.262   1.463   5.776  0.0986  0.6813 -0.0335
   61SAPC  H13R 4774   2.320   1.369   5.766  0.3837  0.9407 -0.8907
   61SAPC  H13S 4775   2.335   1.543   5.752  1.4109 -0.4899 -0.0840
   61SAPC  C214 4776   2.148   1.446   5.682  0.6856  0.1351  0.4769
   61SAPC  H14R 4777   2.048   1.420   5.722  1.7698  0.4490  3.6531
   61SAPC  C215 4778   2.147   1.466   5.548 -0.5302  0.5536 -0.3120
   61SAPC  H15R 4779   2.056   1.458   5.487  0.1295  0.2460 -1.2927
   61SAPC  C216 4780   2.276   1.506   5.480  0.0110  0.0174 -0.0192
   61SAPC  H16R 4781   2.292   1.448   5.386  0.1960 -1.7681  1.0757
   61SAPC  H16S 4782   2.369   1.492   5.539  0.0620 -0.7777 -0.2635
   61SAPC  C217 4783   2.273   1.663   5.447  0.3743  0.5489 -0.1482
   61SAPC  H17R 4784   2.261   1.711   5.546 -0.9942 -1.5729  0.7977
   61SAPC  H17S 4785   2.181   1.673   5.386 -2.3387 -2.9907  2.9183
   61SAPC  C218 4786   2.383   1.711   5.359 -0.5633  0.4681  1.2636
   61SAPC  H18R 4787   2.401   1.642   5.274  0.4468  2.5110 -0.2694
   61SAPC  H18S 4788   2.476   1.717   5.420 -0.1690 -2.5569  1.1316
   61SAPC  C219 4789   2.352   1.849   5.294  0.3873 -0.6956 -0.7835
   61SAPC  H19R 4790   2.338   1.922   5.377 -2.3299 -0.5780 -1.2577
   61SAPC  H19S 4791   2.261   1.841   5.231  0.4320  1.6710 -1.2383
   61SAPC  C220 4792   2.459   1.895   5.190  0.0572  0.6746  0.0003
   61SAPC  H20R 4793   2.444   1.999   5.153 -0.0624  1.1997  1.4377
   61SAPC  H20S 4794   2.459   1.829   5.101  1.5010 -1.4286  1.4813
   61SAPC  H20T 4795   2.561   1.898   5.234 -1.2970  2.0264  3.4121
   61SAPC   C33 4796   3.137   0.372   6.046  0.0648  0.0061  0.4471
   61SAPC   H3X 4797   3.034   0.406   6.068  0.1595  1.1550 -0.7920
   61SAPC   H3Y 4798   3.148   0.261   6.051 -2.0963 -0.2179  4.2768
   61SAPC   C34 4799   3.171   0.408   5.900  0.3561  0.3268  0.4412
   61SAPC   H4X 4800   3.159   0.516   5.876 -2.4207  0.2258  0.9741
   61SAPC   H4Y 4801   3.096   0.365   5.830  1.2370  0.9664 -0.9245
   61SAPC   C35 4802   3.317   0.362   5.859 -0.1250  0.6023  0.5203
   61SAPC   H5X 4803   3.336   0.257   5.889  0.3876  0.6866  0.4886
   61SAPC   H5Y 4804   3.408   0.414   5.895  0.9459 -0.7484 -0.1947
   61SAPC   C36 4805   3.333   0.367   5.707 -0.2745 -0.2108  0.6212
   61SAPC   H6X 4806   3.231   0.354   5.664  0.8156 -1.7377 -1.6853
   61SAPC   H6Y 4807   3.394   0.282   5.670 -1.3276 -0.0121 -1.6948
   61SAPC   C37 4808   3.407   0.488   5.655 -0.1639 -0.1470  0.2791
   61SAPC   H7X 4809   3.515   0.486   5.679  0.1011 -0.6502 -0.9019
   61SAPC   H7Y 4810   3.358   0.583   5.684 -0.9046 -0.5064  0.2238
   61SAPC   C38 4811   3.402   0.490   5.497 -0.3140  0.1540  0.7061
   61SAPC   H8X 4812   3.303   0.523   5.459  0.7173  1.7051 -0.7624
   61SAPC   H8Y 4813   3.422   0.385   5.467 -0.0666  0.5060 -0.3979
   61SAPC   C39 4814   3.513   0.583   5.425 -0.3911  0.1554 -0.2464
   61SAPC   H9X 4815   3.601   0.572   5.493  1.2181 -0.0028 -2.2382
   61SAPC   H9Y 4816   3.491   0.691   5.433  0.3181  0.3836 -1.2702
   61SAPC  C310 4817   3.559   0.536   5.291  0.2129 -0.2592 -0.2208
   61SAPC  H10X 4818   3.575   0.426   5.287  0.8308 -0.1473 -1.7081
   61SAPC  H10Y 4819   3.657   0.583   5.270 -0.3501  0.5070 -1.2641
   61SAPC  C311 4820   3.455   0.578   5.182 -0.0621  0.3758 -0.4684
   61SAPC  H11X 4821   3.483   0.672   5.129  0.0811  0.2335 -0.6474
   61SAPC  H11Y 4822   3.356   0.585   5.232 -0.4644 -0.8065 -1.0658
   61SAPC  C312 4823   3.447   0.473   5.072  0.6395  0.6193  0.2049
   61SAPC  H12X 4824   3.434   0.374   5.121  0.9008  0.6446  0.3292
   61SAPC  H12Y 4825   3.539   0.464   5.012  0.7298 -2.0053  0.6207
   61SAPC  C313 4826   3.337   0.506   4.964 -0.3489  0.0360  0.9829
   61SAPC  H13X 4827   3.363   0.591   4.897 -1.3389  0.1629  0.7428
   61SAPC  H13Y 4828   3.240   0.537   5.006 -1.9367  0.6632 -2.7480
   61SAPC  C314 4829   3.313   0.390   4.870 -0.7716  0.2831 -0.2386
   61SAPC  H14X 4830   3.279   0.300   4.925  0.7145 -1.0520 -1.4019
   61SAPC  H14Y 4831   3.409   0.366   4.818 -0.4296  0.2198  0.4053
   61SAPC  C315 4832   3.208   0.405   4.766 -0.6303 -0.4299  0.1321
   61SAPC  H15X 4833   3.255   0.458   4.680  0.5200 -0.2228  0.8597
   61SAPC  H15Y 4834   3.131   0.470   4.811  0.2921  0.2788  0.7411
   61SAPC  C316 4835   3.159   0.267   4.715 -0.3723  0.8423  0.5469
   61SAPC  H16X 4836   3.122   0.188   4.785 -1.4854 -1.2791 -2.2511
   61SAPC  H16Y 4837   3.246   0.207   4.679 -1.4150 -0.5170  0.2023
   61SAPC  C317 4838   3.049   0.282   4.601 -0.1427  0.1104  0.7232
   61SAPC  H17X 4839   3.080   0.371   4.542  1.6254 -0.7330  0.3245
   61SAPC  H17Y 4840   2.952   0.297   4.653  0.9602  1.2459  2.5483
   61SAPC  C318 4841   3.052   0.168   4.506  0.4516  0.5223 -0.2321
   61SAPC  H18X 4842   3.040   0.070   4.556  0.9923 -0.8062 -2.5929
   61SAPC  H18Y 4843   3.153   0.152   4.464  1.6630  0.7035  2.3706
   61SAPC  H18Z 4844   2.975   0.187   4.429 -0.4920  0.1354  0.5951
   62SAPC     N 4845   4.865   1.462   7.183 -0.2638 -0.3874  0.1488
   62SAPC   C12 4846   4.780   1.361   7.098  0.0637 -0.1849 -0.0616
   62SAPC  H12A 4847   4.674   1.380   7.112 -0.2286 -1.8095  0.1674
   62SAPC  H12B 4848   4.779   1.265   7.147 -0.8291 -0.1341  0.0447
   62SAPC   C13 4849   5.010   1.422   7.171  1.1201  0.1977  0.0328
   62SAPC  H13A 4850   5.020   1.378   7.072 -1.9489 -0.0745 -0.2422
   62SAPC  H13B 4851   5.078   1.506   7.177  1.0037  0.4240 -1.3774
   62SAPC  H13C 4852   5.041   1.343   7.237  0.1702 -0.2247 -0.0129
   62SAPC   C14 4853   4.837   1.605   7.143  0.1454  0.4922 -0.2826
   62SAPC  H14A 4854   4.863   1.617   7.039 -1.6895  0.0094 -0.8282
   62SAPC  H14B 4855   4.736   1.635   7.168 -0.2457 -0.0676 -1.1563
   62SAPC  H14C 4856   4.898   1.661   7.213 -0.4321 -0.3082  0.9002
   62SAPC   C15 4857   4.839   1.445   7.332 -0.1932 -0.1513  0.1059
   62SAPC  H15A 4858   4.855   1.341   7.356  0.9700  0.1165  0.5295
   62SAPC  H15B 4859   4.911   1.506   7.384 -0.3656  0.3512 -0.2275
   62SAPC  H15C 4860   4.742   1.479   7.367 -0.3110 -0.8353  0.4580
   62SAPC   C11 4861   4.810   1.341   6.944  0.0694 -0.3375 -0.0133
   62SAPC  H11A 4862   4.807   1.437   6.889 -0.1235 -0.3703 -0.0609
   62SAPC  H11B 4863   4.727   1.288   6.892 -2.4302  1.3118  2.0092
   62SAPC     P 4864   4.938   1.121   6.938 -0.0881 -0.1569 -0.1097
   62SAPC   O13 4865   5.076   1.071   6.932 -0.0781  0.2300  0.3200
   62SAPC   O14 4866   4.847   1.076   7.048  0.0732 -0.1971  0.2929
   62SAPC   O12 4867   4.937   1.275   6.932 -0.5169 -0.2256  0.1750
   62SAPC   O11 4868   4.861   1.087   6.807  0.5443  0.1247  0.1326
   62SAPC    C1 4869   4.896   1.107   6.670  0.3990 -0.1569 -0.9246
   62SAPC    HA 4870   4.805   1.133   6.612  1.0456 -1.9869 -2.8653
   62SAPC    HB 4871   4.963   1.196   6.663 -0.1983  0.3422 -0.4840
   62SAPC    C2 4872   4.948   0.976   6.607  0.5766 -0.7457  0.0296
   62SAPC    HS 4873   5.046   0.963   6.658  0.3922  0.3686  0.7048
   62SAPC   O21 4874   4.964   1.007   6.469 -0.9395  0.0530  0.3131
   62SAPC   C21 4875   5.061   0.941   6.416  0.2347 -0.3134  0.5538
   62SAPC   O22 4876   5.128   0.861   6.476 -0.4076 -0.3495  0.6030
   62SAPC   C22 4877   5.072   0.971   6.267  0.5880 -0.1703 -0.3478
   62SAPC   H2R 4878   5.003   0.900   6.215  1.3689 -0.7978 -0.5438
   62SAPC   H2S 4879   5.036   1.074   6.245  1.6202  0.1806 -0.4482
   62SAPC    C3 4880   4.851   0.861   6.637  0.5023  0.8094  0.2420
   62SAPC    HX 4881   4.834   0.841   6.745  0.0125 -1.7544 -0.2469
   62SAPC    HY 4882   4.909   0.773   6.602 -0.2857  0.6178 -0.6133
   62SAPC   O31 4883   4.724   0.874   6.575  0.0170  0.1769  0.6923
   62SAPC   C31 4884   4.715   0.808   6.448  0.1711  0.0454  0.1744
   62SAPC   O32 4885   4.792   0.718   6.419 -0.3436 -0.4179 -0.0237
   62SAPC   C32 4886   4.588   0.852   6.368 -0.4773 -0.4375  0.5394
   62SAPC   H2X 4887   4.572   0.961   6.385 -1.2383 -0.5757  0.7342
   62SAPC   H2Y 4888   4.497   0.800   6.403 -0.0175 -0.2182  2.1427
   62SAPC   C23 4889   5.218   0.951   6.221  0.3779 -0.0643 -0.4156
   62SAPC   H3R 4890   5.256   0.847   6.237 -1.8762 -1.1533 -1.6157
   62SAPC   H3S 4891   5.284   1.028   6.265  0.7706  1.3933 -3.2905
   62SAPC   C24 4892   5.219   0.971   6.068 -0.4454 -0.2026  0.3189
   62SAPC   H4R 4893   5.116   0.945   6.035 -0.3228 -1.1178  0.6075
   62SAPC   H4S 4894   5.290   0.895   6.031 -0.1595  0.5511 -0.7042
   62SAPC   C25 4895   5.258   1.108   6.030 -0.0710 -0.0268  0.3101
   62SAPC   H5R 4896   5.256   1.183   6.110 -0.4564  0.6465 -0.3180
   62SAPC   C26 4897   5.301   1.141   5.905 -0.3967 -0.1893 -0.4876
   62SAPC   H6R 4898   5.341   1.242   5.887  0.0635 -0.3310 -0.2707
   62SAPC   C27 4899   5.313   1.061   5.775 -0.0180  0.5550  0.0141
   62SAPC   H7R 4900   5.407   1.005   5.789 -1.3040 -1.6184  0.3663
   62SAPC   H7S 4901   5.344   1.137   5.700 -2.1457  1.0030 -0.4958
   62SAPC   C28 4902   5.207   0.963   5.731 -0.1688  0.2635 -0.3105
   62SAPC   H8R 4903   5.183   0.875   5.793 -0.6180 -0.4745 -1.4955
   62SAPC   C29 4904   5.158   0.969   5.609  0.6060  1.1059  0.5348
   62SAPC   H9R 4905   5.089   0.890   5.577  0.3697  2.0472 -1.4026
   62SAPC  C210 4906   5.182   1.079   5.512 -0.0806  0.2090  0.4603
   62SAPC  H10R 4907   5.289   1.077   5.484 -0.2706  1.9002 -0.5616
   62SAPC  H10S 4908   5.170   1.176   5.564  2.6034 -0.4105  2.4211
   62SAPC  C211 4909   5.104   1.078   5.381 -0.4053 -0.0924  0.0394
   62SAPC  H11R 4910   4.999   1.044   5.386 -0.7300  0.3278 -2.4733
   62SAPC  C212 4911   5.144   1.097   5.257 -0.1974 -0.6732  0.1201
   62SAPC  H12R 4912   5.074   1.085   5.173 -0.1493  0.0937 -0.0308
   62SAPC  C213 4913   5.274   1.152   5.201 -0.2394  0.1192  0.4647
   62SAPC  H13R 4914   5.318   1.071   5.140 -1.0621  0.1504 -0.2023
   62SAPC  H13S 4915   5.345   1.163   5.285  0.6354  2.2492 -0.4753
   62SAPC  C214 4916   5.262   1.290   5.132 -0.3033  0.5189  0.4646
   62SAPC  H14R 4917   5.206   1.370   5.182 -0.3583  1.4419 -1.0024
   62SAPC  C215 4918   5.305   1.315   5.006  0.0511 -0.9764 -0.3140
   62SAPC  H15R 4919   5.291   1.415   4.963  1.5367 -0.2472  0.8143
   62SAPC  C216 4920   5.371   1.213   4.914 -0.1343 -0.4487 -0.5430
   62SAPC  H16R 4921   5.442   1.142   4.962 -2.3568 -2.3893  0.0595
   62SAPC  H16S 4922   5.439   1.272   4.849  1.1647 -1.2150  0.0600
   62SAPC  C217 4923   5.267   1.150   4.819 -0.4887 -0.9453 -0.5294
   62SAPC  H17R 4924   5.189   1.098   4.878 -0.0918 -1.1779 -0.2043
   62SAPC  H17S 4925   5.331   1.080   4.762  1.5776  1.3112 -1.1743
   62SAPC  C218 4926   5.201   1.248   4.718  0.7345 -0.1815 -0.1026
   62SAPC  H18R 4927   5.282   1.279   4.649  1.9806 -0.5743  1.1551
   62SAPC  H18S 4928   5.169   1.337   4.775  1.7347 -1.3911  2.5064
   62SAPC  C219 4929   5.082   1.182   4.644 -0.5055  0.2910  0.5804
   62SAPC  H19R 4930   5.019   1.134   4.722  1.0323 -1.6309  0.7268
   62SAPC  H19S 4931   5.113   1.092   4.587 -0.1594  0.6321  0.2294
   62SAPC  C220 4932   5.005   1.269   4.548 -0.0375  0.1248  1.1529
   62SAPC  H20R 4933   5.066   1.300   4.461 -3.7414  0.8217 -1.4511
   62SAPC  H20S 4934   4.963   1.357   4.602 -3.0802 -0.5170  0.0061
   62SAPC  H20T 4935   4.921   1.210   4.505  1.2625  1.3963 -3.6374
   62SAPC   C33 4936   4.614   0.821   6.220  1.3650  0.2612  0.1466
   62SAPC   H3X 4937   4.524   0.835   6.156  2.2998  0.5785 -1.1605
   62SAPC   H3Y 4938   4.638   0.713   6.215  0.3301 -0.0424  1.3366
   62SAPC   C34 4939   4.714   0.919   6.168 -0.3388 -0.5698  0.0459
   62SAPC   H4X 4940   4.791   0.954   6.240 -0.2267  0.9801 -0.7911
   62SAPC   H4Y 4941   4.661   1.012   6.139 -0.2769 -0.3493  0.6337
   62SAPC   C35 4942   4.774   0.856   6.041  0.0982 -0.0221 -0.0001
   62SAPC   H5X 4943   4.695   0.790   5.997  0.2701  0.9839 -1.9179
   62SAPC   H5Y 4944   4.860   0.791   6.068  1.5108  0.9399 -1.9176
   62SAPC   C36 4945   4.817   0.962   5.933  0.3972  0.7581 -0.4146
   62SAPC   H6X 4946   4.882   1.044   5.970  1.1295 -0.4579  1.1084
   62SAPC   H6Y 4947   4.723   1.011   5.900 -0.7522 -0.4757  0.9107
   62SAPC   C37 4948   4.867   0.904   5.798  0.3090 -0.2375  0.3984
   62SAPC   H7X 4949   4.951   0.834   5.819  1.5534  1.5349  1.6353
   62SAPC   H7Y 4950   4.906   0.981   5.727 -0.2908  0.9083  1.2892
   62SAPC   C38 4951   4.755   0.830   5.718  0.2979 -0.0291  0.0517
   62SAPC   H8X 4952   4.677   0.907   5.699  1.5958  1.1035 -0.9671
   62SAPC   H8Y 4953   4.706   0.748   5.774 -0.7888 -0.6198 -1.7159
   62SAPC   C39 4954   4.806   0.782   5.585 -0.4757  0.3512  1.2652
   62SAPC   H9X 4955   4.883   0.703   5.599 -0.8678  0.0192  1.5321
   62SAPC   H9Y 4956   4.865   0.862   5.534  0.2475  0.5919  2.4296
   62SAPC  C310 4957   4.703   0.755   5.481 -0.1183 -0.2759 -0.0976
   62SAPC  H10X 4958   4.661   0.858   5.476  1.4777  0.5895  2.1235
   62SAPC  H10Y 4959   4.624   0.689   5.522  0.5580 -1.0549 -0.0153
   62SAPC  C311 4960   4.762   0.690   5.353 -0.6147 -0.1352  0.1644
   62SAPC  H11X 4961   4.807   0.594   5.384 -2.1783 -1.0264 -0.2151
   62SAPC  H11Y 4962   4.835   0.761   5.308 -2.4277  0.4946 -1.9670
   62SAPC  C312 4963   4.665   0.650   5.246  0.5586  0.1071  0.1624
   62SAPC  H12X 4964   4.593   0.732   5.227 -1.2833 -1.0563  1.7655
   62SAPC  H12Y 4965   4.604   0.562   5.278  0.6641 -0.1159 -0.2467
   62SAPC  C313 4966   4.730   0.622   5.112 -0.3983  0.1023 -0.1171
   62SAPC  H13X 4967   4.796   0.533   5.116  1.3016  1.2883 -0.5666
   62SAPC  H13Y 4968   4.809   0.699   5.096  0.1573 -0.0226  1.8155
   62SAPC  C314 4969   4.631   0.627   4.992 -0.1135  0.5868 -0.1992
   62SAPC  H14X 4970   4.585   0.726   5.008 -1.3780 -0.2499  1.6469
   62SAPC  H14Y 4971   4.552   0.549   4.999  0.6144 -0.4016 -2.1127
   62SAPC  C315 4972   4.691   0.610   4.845  1.0154  0.1055 -0.2112
   62SAPC  H15X 4973   4.726   0.507   4.827 -0.0302 -0.4219  0.6748
   62SAPC  H15Y 4974   4.773   0.684   4.851  1.2081 -0.0267 -1.0159
   62SAPC  C316 4975   4.584   0.665   4.747 -0.4391 -0.3597 -0.0269
   62SAPC  H16X 4976   4.546   0.759   4.792  1.5913  0.6437 -0.3150
   62SAPC  H16Y 4977   4.490   0.605   4.744 -1.1472  0.4528  2.8482
   62SAPC  C317 4978   4.632   0.696   4.607  0.7746 -0.4517 -0.9722
   62SAPC  H17X 4979   4.544   0.728   4.547  3.2874  1.4431 -3.9537
   62SAPC  H17Y 4980   4.658   0.597   4.563  0.1754 -0.7576 -0.6421
   62SAPC  C318 4981   4.740   0.798   4.604  0.4108  0.1206  0.0410
   62SAPC  H18X 4982   4.825   0.777   4.672  0.0180 -0.0867  0.4677
   62SAPC  H18Y 4983   4.699   0.899   4.624  0.6247  0.8375 -2.7033
   62SAPC  H18Z 4984   4.776   0.799   4.499  0.8065 -2.7224  0.0898
   63SAPC     N 4985   0.220   3.494   7.402  0.3486 -0.5717 -0.6094
   63SAPC   C12 4986   0.158   3.434   7.277 -0.6361  0.0358  0.0904
   63SAPC  H12A 4987   0.237   3.370   7.242 -0.9772  0.5156 -1.6601
   63SAPC  H12B 4988   0.134   3.516   7.210  0.7607 -0.1400 -0.6714
   63SAPC   C13 4989   0.333   3.583   7.368  0.3139  0.1749 -0.3107
   63SAPC  H13A 4990   0.377   3.631   7.454 -0.9094  0.0258  0.4268
   63SAPC  H13B 4991   0.404   3.541   7.299 -0.0560  0.4175 -0.8552
   63SAPC  H13C 4992   0.292   3.670   7.318  1.4738  1.1813  0.4258
   63SAPC   C14 4993   0.108   3.558   7.483 -0.8700 -0.2028  0.0260
   63SAPC  H14A 4994   0.145   3.628   7.557 -1.7655 -0.9897  1.2599
   63SAPC  H14B 4995   0.036   3.599   7.414  1.5506 -0.1683 -2.6968
   63SAPC  H14C 4996   0.058   3.482   7.541  0.2555 -0.1809  1.0722
   63SAPC   C15 4997   0.278   3.382   7.485 -0.1981  0.2782 -0.3761
   63SAPC  H15A 4998   0.331   3.419   7.571 -0.2542 -1.7315  0.5632
   63SAPC  H15B 4999   0.201   3.321   7.530  0.2779  1.2547  1.8694
   63SAPC  H15C 5000   0.339   3.320   7.421 -0.5335  0.5530 -0.9667
   63SAPC   C11 5001   0.028   3.355   7.294  0.0253  0.0918  0.5582
   63SAPC  H11A 5002   0.037   3.289   7.382  1.8988  2.2783  2.1508
   63SAPC  H11B 5003   0.006   3.287   7.209 -2.2505  1.3476  0.0625
   63SAPC     P 5004  -0.200   3.475   7.222  0.2260 -0.3752 -0.2072
   63SAPC   O13 5005  -0.310   3.395   7.281 -0.7964 -0.2668  0.3634
   63SAPC   O14 5006  -0.223   3.620   7.210  0.2090 -0.4346  0.7114
   63SAPC   O12 5007  -0.077   3.449   7.314 -0.1623 -0.1689  0.7939
   63SAPC   O11 5008  -0.146   3.411   7.082  0.0934  0.5519 -0.1003
   63SAPC    C1 5009  -0.051   3.488   6.998 -0.3222  0.2293  0.0609
   63SAPC    HA 5010   0.021   3.557   7.048  1.3345  0.0985 -1.9995
   63SAPC    HB 5011   0.029   3.419   6.964  0.7739  0.9755  1.0426
   63SAPC    C2 5012  -0.102   3.553   6.871  0.0689  0.0888 -0.6473
   63SAPC    HS 5013  -0.129   3.655   6.905  0.3507  0.6074 -1.9239
   63SAPC   O21 5014  -0.213   3.489   6.809 -0.0446  0.1022 -0.1992
   63SAPC   C21 5015  -0.310   3.561   6.761 -0.3677 -0.4216 -0.1019
   63SAPC   O22 5016  -0.318   3.685   6.765 -0.1575  0.3010 -0.0885
   63SAPC   C22 5017  -0.411   3.472   6.696 -0.0479  0.1067  0.7025
   63SAPC   H2R 5018  -0.371   3.388   6.636 -1.3529  1.1272 -1.7693
   63SAPC   H2S 5019  -0.475   3.422   6.772 -0.6200 -1.1801 -0.5652
   63SAPC    C3 5020   0.014   3.565   6.772 -0.1654  0.3610 -0.7068
   63SAPC    HX 5021   0.062   3.466   6.757 -2.6209 -0.9963 -0.2006
   63SAPC    HY 5022   0.096   3.618   6.825  0.5534 -3.2883  2.2019
   63SAPC   O31 5023  -0.028   3.609   6.643  0.3880  0.2791 -0.2725
   63SAPC   C31 5024  -0.017   3.742   6.633 -0.8357 -0.5848  0.3219
   63SAPC   O32 5025   0.025   3.823   6.709 -0.0943  0.0227 -0.1170
   63SAPC   C32 5026  -0.061   3.780   6.492  0.3394 -0.3557  0.5982
   63SAPC   H2X 5027  -0.124   3.697   6.451  1.6308 -1.1931  0.2441
   63SAPC   H2Y 5028   0.030   3.798   6.430 -1.2212 -0.6419 -1.9388
   63SAPC   C23 5029  -0.505   3.542   6.597  0.1204  0.4837  0.3311
   63SAPC   H3R 5030  -0.503   3.652   6.611  4.5651  0.5753  0.6665
   63SAPC   H3S 5031  -0.608   3.514   6.629  0.6174  0.0896  1.6984
   63SAPC   C24 5032  -0.458   3.519   6.446  0.3427 -0.5473 -1.0947
   63SAPC   H4R 5033  -0.351   3.549   6.441  0.2347 -0.3037 -1.9453
   63SAPC   H4S 5034  -0.515   3.593   6.387 -1.4757 -1.4780 -0.5663
   63SAPC   C25 5035  -0.476   3.386   6.391 -0.0715 -0.3486 -0.4405
   63SAPC   H5R 5036  -0.484   3.303   6.463  1.7042 -0.3408 -0.1912
   63SAPC   C26 5037  -0.479   3.359   6.258  0.1184  0.6336 -0.6335
   63SAPC   H6R 5038  -0.458   3.255   6.227 -1.0012  0.5294 -1.1010
   63SAPC   C27 5039  -0.471   3.458   6.147  0.4363  0.0556  0.2530
   63SAPC   H7R 5040  -0.383   3.432   6.084 -1.1138 -1.7726 -1.3168
   63SAPC   H7S 5041  -0.444   3.561   6.178  0.1293  0.0491  0.5479
   63SAPC   C28 5042  -0.597   3.451   6.059 -0.5582 -0.2355 -1.2811
   63SAPC   H8R 5043  -0.683   3.396   6.099  1.4113 -1.5849  1.4369
   63SAPC   C29 5044  -0.614   3.521   5.947  0.2544  0.4583  0.0824
   63SAPC   H9R 5045  -0.696   3.491   5.881  2.0007 -2.2310 -1.0323
   63SAPC  C210 5046  -0.498   3.599   5.878  0.1249  0.2231  0.4408
   63SAPC  H10R 5047  -0.431   3.639   5.957  2.1672 -1.1392 -0.5147
   63SAPC  H10S 5048  -0.534   3.686   5.819 -1.9696 -1.3927 -0.8014
   63SAPC  C211 5049  -0.431   3.506   5.778  0.0769  0.4827  0.0583
   63SAPC  H11R 5050  -0.345   3.449   5.814  0.7713  0.1156 -2.0148
   63SAPC  C212 5051  -0.472   3.481   5.650  0.3642  0.3142 -0.3997
   63SAPC  H12R 5052  -0.414   3.402   5.600 -2.2994 -2.9597  1.2882
   63SAPC  C213 5053  -0.586   3.543   5.578  0.1701  0.6857  0.5012
   63SAPC  H13R 5054  -0.563   3.610   5.493 -0.9568  1.6999  0.9584
   63SAPC  H13S 5055  -0.645   3.611   5.643  1.0629  2.0651 -0.0810
   63SAPC  C214 5056  -0.676   3.429   5.525  0.4311 -0.4764 -0.2482
   63SAPC  H14R 5057  -0.749   3.394   5.599  0.5492  1.5332  0.9163
   63SAPC  C215 5058  -0.674   3.375   5.396  0.3099  0.0842  0.0015
   63SAPC  H15R 5059  -0.762   3.313   5.372 -0.9395  0.9470  2.1043
   63SAPC  C216 5060  -0.587   3.426   5.285  0.5788  0.2285  0.1041
   63SAPC  H16R 5061  -0.509   3.356   5.248  1.4747  2.1796 -1.9623
   63SAPC  H16S 5062  -0.526   3.517   5.306 -0.9953  1.3121  0.1679
   63SAPC  C217 5063  -0.682   3.475   5.171  0.0516  0.9380 -0.8376
   63SAPC  H17R 5064  -0.730   3.568   5.207  1.0603  1.5751 -1.0892
   63SAPC  H17S 5065  -0.755   3.393   5.156 -1.4373  2.4003 -1.8825
   63SAPC  C218 5066  -0.609   3.507   5.039 -0.9221  0.0888 -0.4764
   63SAPC  H18R 5067  -0.676   3.556   4.966 -0.7588 -2.6378 -2.5978
   63SAPC  H18S 5068  -0.568   3.411   4.999 -1.3191  0.2995 -1.4142
   63SAPC  C219 5069  -0.497   3.611   5.062  0.6307  0.9885  0.0771
   63SAPC  H19R 5070  -0.408   3.561   5.104  0.6611  0.8915 -0.1072
   63SAPC  H19S 5071  -0.519   3.697   5.130 -1.0649 -1.1806  2.4990
   63SAPC  C220 5072  -0.462   3.680   4.932 -0.3455  0.3562  0.8490
   63SAPC  H20R 5073  -0.451   3.601   4.855  1.5338 -1.8511  3.2221
   63SAPC  H20S 5074  -0.372   3.745   4.941 -0.7399  1.1928 -0.8407
   63SAPC  H20T 5075  -0.548   3.742   4.898  1.2177  2.3717  0.3932
   63SAPC   C33 5076  -0.151   3.908   6.487  0.2767  0.9543  0.0019
   63SAPC   H3X 5077  -0.108   4.001   6.530 -0.0500  0.3031  1.8346
   63SAPC   H3Y 5078  -0.239   3.898   6.555 -0.3845  1.9244 -0.6814
   63SAPC   C34 5079  -0.184   3.931   6.344  0.0306 -0.2926 -0.2492
   63SAPC   H4X 5080  -0.089   3.919   6.287  0.8621 -0.0882  1.0588
   63SAPC   H4Y 5081  -0.216   4.037   6.335 -1.6933 -0.7949 -0.4421
   63SAPC   C35 5082  -0.312   3.854   6.297  0.3891  0.0441 -0.4230
   63SAPC   H5X 5083  -0.390   3.848   6.377  0.5250 -1.5256 -0.3753
   63SAPC   H5Y 5084  -0.282   3.748   6.282 -0.3466 -0.5739  1.9861
   63SAPC   C36 5085  -0.369   3.904   6.152  0.9969  0.1849 -1.1718
   63SAPC   H6X 5086  -0.390   4.013   6.161  0.4972 -0.0399  0.7187
   63SAPC   H6Y 5087  -0.466   3.857   6.123  2.0666 -2.6424 -0.4567
   63SAPC   C37 5088  -0.260   3.883   6.049 -0.2200 -0.6098  0.3061
   63SAPC   H7X 5089  -0.229   3.776   6.049 -0.0028 -0.5489  0.6038
   63SAPC   H7Y 5090  -0.169   3.945   6.064  0.3301 -1.6545  1.5314
   63SAPC   C38 5091  -0.314   3.914   5.907 -0.5781 -0.1631  0.4151
   63SAPC   H8X 5092  -0.361   4.015   5.902  1.4816  0.9405  1.8414
   63SAPC   H8Y 5093  -0.410   3.860   5.893  0.2478 -1.6786  0.3772
   63SAPC   C39 5094  -0.221   3.896   5.789  0.1762 -0.3381  1.0101
   63SAPC   H9X 5095  -0.172   3.797   5.807  0.5435 -0.0867  1.4259
   63SAPC   H9Y 5096  -0.139   3.971   5.783 -0.7522  0.5958 -0.2201
   63SAPC  C310 5097  -0.295   3.882   5.648  0.6791  0.1658 -1.1936
   63SAPC  H10X 5098  -0.353   3.975   5.629  1.3663  0.5449 -1.4988
   63SAPC  H10Y 5099  -0.357   3.791   5.660 -0.5041  1.2490  2.4064
   63SAPC  C311 5100  -0.199   3.849   5.532  0.1591  0.5963  0.1089
   63SAPC  H11X 5101  -0.156   3.748   5.544  0.5609  0.8421  0.8328
   63SAPC  H11Y 5102  -0.116   3.923   5.539  0.6047  0.0184  1.3258
   63SAPC  C312 5103  -0.280   3.862   5.400  1.4190 -0.2915  0.3995
   63SAPC  H12X 5104  -0.371   3.799   5.400  1.1152  0.0422 -2.5992
   63SAPC  H12Y 5105  -0.220   3.830   5.313  0.4977  1.2012 -0.8352
   63SAPC  C313 5106  -0.310   4.009   5.359 -0.5773  0.2987 -0.0398
   63SAPC  H13X 5107  -0.209   4.054   5.346 -0.7474  0.5140 -0.6063
   63SAPC  H13Y 5108  -0.359   4.074   5.435 -0.4383  0.5918 -0.1992
   63SAPC  C314 5109  -0.385   4.006   5.226 -0.3500  0.1334  0.6475
   63SAPC  H14X 5110  -0.493   3.988   5.241 -0.4907  0.7121  0.3736
   63SAPC  H14Y 5111  -0.334   3.932   5.161  3.5223  1.7158  1.5789
   63SAPC  C315 5112  -0.367   4.138   5.160  0.7320 -0.7118  0.0308
   63SAPC  H15X 5113  -0.260   4.165   5.150  0.0967  2.1384  0.2900
   63SAPC  H15Y 5114  -0.409   4.202   5.240 -0.8476 -3.4090  1.5350
   63SAPC  C316 5115  -0.448   4.163   5.038  0.3872  0.7724  0.3528
   63SAPC  H16X 5116  -0.548   4.120   5.061  1.1567 -1.2447  0.1784
   63SAPC  H16Y 5117  -0.409   4.103   4.952  1.3679  1.0427  0.5933
   63SAPC  C317 5118  -0.429   4.307   4.991  0.1624 -0.0972  0.2176
   63SAPC  H17X 5119  -0.320   4.322   5.005 -0.3120  2.3464  1.9971
   63SAPC  H17Y 5120  -0.487   4.371   5.061  0.2234  0.1902  0.0066
   63SAPC  C318 5121  -0.486   4.338   4.852  0.2372  0.2271 -0.0057
   63SAPC  H18X 5122  -0.441   4.265   4.782 -2.8743 -1.9495  0.0353
   63SAPC  H18Y 5123  -0.474   4.444   4.819  0.3193  0.3308  0.3583
   63SAPC  H18Z 5124  -0.592   4.303   4.849  0.1736  0.2369  1.4655
   64SAPC     N 5125   5.430   5.725   7.125 -0.1868  0.1184  0.9641
   64SAPC   C12 5126   5.502   5.737   6.986 -0.7670 -0.5645 -0.0980
   64SAPC  H12A 5127   5.559   5.829   6.983 -1.0029 -0.3602 -3.9808
   64SAPC  H12B 5128   5.428   5.738   6.907  1.4254  0.3418 -2.2828
   64SAPC   C13 5129   5.340   5.840   7.158 -0.0034  0.1171 -0.7534
   64SAPC  H13A 5130   5.281   5.821   7.246 -0.1123  3.1227 -0.0973
   64SAPC  H13B 5131   5.383   5.939   7.160 -0.9467  0.5225  0.3734
   64SAPC  H13C 5132   5.270   5.845   7.075  1.4312  0.8023 -1.9685
   64SAPC   C14 5133   5.338   5.605   7.124  0.0327  0.3797 -0.5622
   64SAPC  H14A 5134   5.249   5.625   7.065  0.6260  1.9816 -0.9553
   64SAPC  H14B 5135   5.391   5.513   7.103 -0.1466  0.1523 -0.0592
   64SAPC  H14C 5136   5.308   5.578   7.224  1.0610  1.6216  0.1055
   64SAPC   C15 5137   5.525   5.701   7.234  0.4872  0.4516 -0.1651
   64SAPC  H15A 5138   5.575   5.606   7.217 -0.1304  0.0811  0.0519
   64SAPC  H15B 5139   5.604   5.774   7.230 -0.0672  1.0191 -0.9410
   64SAPC  H15C 5140   5.496   5.693   7.338  1.9049  0.1976  0.2385
   64SAPC   C11 5141   5.614   5.632   6.945  0.8117  0.3260  0.3306
   64SAPC  H11A 5142   5.687   5.627   7.029  0.8606 -2.0915  0.2063
   64SAPC  H11B 5143   5.670   5.659   6.853  1.6709 -2.6554 -0.1157
   64SAPC     P 5144   5.466   5.456   6.805  0.4675  0.1070  0.4774
   64SAPC   O13 5145   5.378   5.344   6.851  0.1248 -0.1676 -0.0645
   64SAPC   O14 5146   5.390   5.572   6.757 -0.4971 -0.1111 -0.2959
   64SAPC   O12 5147   5.569   5.495   6.919 -0.4060  0.2200 -0.1772
   64SAPC   O11 5148   5.557   5.406   6.680 -0.1319  0.5229 -0.0741
   64SAPC    C1 5149   5.659   5.300   6.695  0.2669 -0.2276  0.5801
   64SAPC    HA 5150   5.668   5.276   6.803  0.9386  0.7542  0.7568
   64SAPC    HB 5151   5.618   5.214   6.638 -1.5138  1.9806 -1.6793
   64SAPC    C2 5152   5.781   5.351   6.616 -0.4744 -0.2201  0.4257
   64SAPC    HS 5153   5.816   5.447   6.659 -0.8365 -0.2179  0.7213
   64SAPC   O21 5154   5.763   5.361   6.472 -0.5637 -0.0825  0.1603
   64SAPC   C21 5155   5.758   5.484   6.425 -0.0890  0.3078  0.6153
   64SAPC   O22 5156   5.738   5.582   6.496 -0.2635 -0.0076  0.2629
   64SAPC   C22 5157   5.776   5.497   6.272  0.2582  0.5425 -0.5831
   64SAPC   H2R 5158   5.841   5.412   6.242  0.6569  0.0873  1.4585
   64SAPC   H2S 5159   5.681   5.479   6.217  0.2464 -1.5781  0.0467
   64SAPC    C3 5160   5.900   5.251   6.632  0.6624  0.1031 -0.7798
   64SAPC    HX 5161   5.863   5.148   6.610  0.2994  0.5171 -2.1470
   64SAPC    HY 5162   5.922   5.253   6.741  0.0863 -0.3405 -0.6455
   64SAPC   O31 5163   6.012   5.281   6.546 -0.2230 -0.0941 -0.6375
   64SAPC   C31 5164   6.127   5.316   6.602  0.6463 -0.1488  0.1875
   64SAPC   O32 5165   6.147   5.346   6.716  0.5975  0.5471 -0.0001
   64SAPC   C32 5166   6.231   5.320   6.488  0.2527  0.1530 -0.2868
   64SAPC   H2X 5167   6.226   5.217   6.449 -0.4160  0.0365  0.0828
   64SAPC   H2Y 5168   6.338   5.331   6.514 -0.0321 -2.5941  2.5544
   64SAPC   C23 5169   5.837   5.632   6.234 -0.7349 -0.0454  0.3679
   64SAPC   H3R 5170   5.939   5.631   6.278 -0.1188  1.0730 -0.9612
   64SAPC   H3S 5171   5.771   5.717   6.262  0.2470  1.0471 -0.5409
   64SAPC   C24 5172   5.866   5.647   6.080 -0.1845  0.4777  0.1671
   64SAPC   H4R 5173   5.926   5.561   6.045 -1.6914  0.5444 -2.9325
   64SAPC   H4S 5174   5.932   5.735   6.067 -0.6521  0.8672  0.3899
   64SAPC   C25 5175   5.746   5.660   5.989  0.0891 -0.2326  0.5828
   64SAPC   H5R 5176   5.661   5.706   6.043  0.9725  0.6211  1.2779
   64SAPC   C26 5177   5.734   5.634   5.854  0.3777 -0.8746  0.4255
   64SAPC   H6R 5178   5.642   5.673   5.808  0.9413 -0.8069 -0.7021
   64SAPC   C27 5179   5.838   5.592   5.755  0.6236 -0.3572 -0.6067
   64SAPC   H7R 5180   5.775   5.566   5.667 -0.1569 -0.6206  0.0176
   64SAPC   H7S 5181   5.876   5.493   5.787  3.9264  0.8074 -0.5502
   64SAPC   C28 5182   5.947   5.691   5.731 -0.4276  0.8392  0.4343
   64SAPC   H8R 5183   5.995   5.730   5.823  0.8713 -1.7979  0.9771
   64SAPC   C29 5184   5.979   5.741   5.613  0.1269 -0.3634  0.0348
   64SAPC   H9R 5185   6.062   5.814   5.617  0.9024 -1.2591  0.7125
   64SAPC  C210 5186   5.908   5.707   5.487 -0.7535  0.0968  0.1174
   64SAPC  H10R 5187   5.906   5.792   5.414  2.4617  0.0832 -0.1361
   64SAPC  H10S 5188   5.802   5.679   5.502 -0.6217 -0.1307  0.6241
   64SAPC  C211 5189   5.971   5.590   5.424 -0.1262  0.1850 -0.2802
   64SAPC  H11R 5190   5.954   5.493   5.473  1.0387 -0.2655 -0.7154
   64SAPC  C212 5191   6.038   5.583   5.311 -0.1576 -0.0808  0.6435
   64SAPC  H12R 5192   6.079   5.489   5.272 -1.6873  0.0103 -1.3618
   64SAPC  C213 5193   6.095   5.702   5.239 -0.5553  0.3809 -0.1289
   64SAPC  H13R 5194   6.189   5.670   5.189 -0.5497  0.5345 -0.2162
   64SAPC  H13S 5195   6.122   5.788   5.304  0.0567  0.8115 -0.9355
   64SAPC  C214 5196   6.006   5.765   5.137 -0.7427 -0.0712 -0.0948
   64SAPC  H14R 5197   5.904   5.722   5.138 -2.3848  3.4010 -1.7006
   64SAPC  C215 5198   6.038   5.856   5.042 -0.4330 -0.1241  0.1442
   64SAPC  H15R 5199   5.967   5.883   4.963 -1.4586 -2.6323  0.1080
   64SAPC  C216 5200   6.180   5.918   5.019  1.1997 -0.6051 -0.5763
   64SAPC  H16R 5201   6.245   5.865   4.946  1.7859 -1.5021  0.5642
   64SAPC  H16S 5202   6.237   5.920   5.115 -2.9942  1.8750  2.1605
   64SAPC  C217 5203   6.164   6.068   4.973  0.2833  0.0469 -0.3426
   64SAPC  H17R 5204   6.107   6.121   5.052  0.3002 -0.5333  0.0710
   64SAPC  H17S 5205   6.103   6.079   4.881  0.4795  1.6683 -0.3051
   64SAPC  C218 5206   6.301   6.131   4.953  0.3428 -0.3836  0.3608
   64SAPC  H18R 5207   6.356   6.071   4.878 -2.2375 -0.1017 -1.9258
   64SAPC  H18S 5208   6.356   6.133   5.049  3.4793 -0.3584 -1.3118
   64SAPC  C219 5209   6.286   6.267   4.877 -0.2320 -0.2985 -0.3468
   64SAPC  H19R 5210   6.389   6.301   4.853 -0.5196  1.1773  0.3787
   64SAPC  H19S 5211   6.231   6.341   4.940  2.7571  0.2308  1.8304
   64SAPC  C220 5212   6.207   6.256   4.736 -0.0578 -1.1166 -0.8481
   64SAPC  H20R 5213   6.236   6.340   4.669  1.4800 -1.4664 -0.6539
   64SAPC  H20S 5214   6.101   6.266   4.770  0.0742  1.9272 -1.0416
   64SAPC  H20T 5215   6.219   6.167   4.672  0.5963 -0.3926 -1.7561
   64SAPC   C33 5216   6.176   5.410   6.378 -0.8668  0.5012  0.5412
   64SAPC   H3X 5217   6.172   5.518   6.402 -1.7946  0.9396 -1.3353
   64SAPC   H3Y 5218   6.077   5.376   6.339 -1.4336  0.3894  2.0330
   64SAPC   C34 5219   6.263   5.400   6.248 -0.2303 -0.0995  0.0444
   64SAPC   H4X 5220   6.272   5.292   6.225  2.0352 -0.0365  0.3759
   64SAPC   H4Y 5221   6.361   5.446   6.273 -1.2801  2.5881 -0.5232
   64SAPC   C35 5222   6.210   5.463   6.125  0.3757  0.0520 -0.4183
   64SAPC   H5X 5223   6.174   5.566   6.144 -1.9908 -0.1496 -3.0784
   64SAPC   H5Y 5224   6.120   5.405   6.097  0.9089 -1.3314  0.6059
   64SAPC   C36 5225   6.304   5.460   6.001 -0.0369 -0.4848  0.1981
   64SAPC   H6X 5226   6.352   5.361   5.988  1.0281  0.0881 -0.3728
   64SAPC   H6Y 5227   6.385   5.531   6.030  0.5229 -0.4313 -1.4327
   64SAPC   C37 5228   6.247   5.480   5.859  0.7410 -0.7216  0.6602
   64SAPC   H7X 5229   6.173   5.562   5.851  0.4177 -1.1597 -1.3038
   64SAPC   H7Y 5230   6.193   5.384   5.843  1.7858 -1.0986 -0.7687
   64SAPC   C38 5231   6.350   5.504   5.751 -0.3138 -0.1811  0.0174
   64SAPC   H8X 5232   6.424   5.422   5.756 -1.0032 -0.7638  0.8111
   64SAPC   H8Y 5233   6.413   5.595   5.760  0.2455 -0.2641 -2.3141
   64SAPC   C39 5234   6.277   5.529   5.615 -0.0039 -0.0059 -0.1012
   64SAPC   H9X 5235   6.236   5.632   5.618 -1.5723 -0.6262  1.2713
   64SAPC   H9Y 5236   6.196   5.454   5.599 -0.1335  0.3460 -1.1881
   64SAPC  C310 5237   6.370   5.505   5.500 -0.6177 -0.0842  0.0450
   64SAPC  H10X 5238   6.299   5.480   5.418  1.0889 -0.7602 -1.2994
   64SAPC  H10Y 5239   6.427   5.410   5.500 -1.1132 -0.3966 -0.6176
   64SAPC  C311 5240   6.477   5.611   5.468  0.9414  0.0365 -0.3889
   64SAPC  H11X 5241   6.542   5.633   5.555  0.0295 -1.1647  0.6318
   64SAPC  H11Y 5242   6.437   5.714   5.454  1.7373  0.4379  0.1800
   64SAPC  C312 5243   6.562   5.587   5.348  0.5134  0.2981  0.2855
   64SAPC  H12X 5244   6.613   5.490   5.371 -1.7994 -0.7811  1.1427
   64SAPC  H12Y 5245   6.644   5.660   5.332  0.1582  1.2661  2.6023
   64SAPC  C313 5246   6.473   5.579   5.223 -0.3300  0.0177  0.3352
   64SAPC  H13X 5247   6.425   5.678   5.205 -1.2496 -0.6705 -1.2475
   64SAPC  H13Y 5248   6.384   5.513   5.232 -0.3971 -0.0429 -0.5958
   64SAPC  C314 5249   6.544   5.540   5.091  0.5316  0.4371 -0.7176
   64SAPC  H14X 5250   6.602   5.448   5.114 -0.2573 -0.1820 -1.1385
   64SAPC  H14Y 5251   6.616   5.618   5.058  0.7584  0.3767 -0.3685
   64SAPC  C315 5252   6.440   5.536   4.974 -0.0145  0.8655  0.2660
   64SAPC  H15X 5253   6.501   5.525   4.882 -1.2180 -0.7413 -0.3769
   64SAPC  H15Y 5254   6.400   5.639   4.974 -1.0871  0.4663  0.7297
   64SAPC  C316 5255   6.338   5.424   4.995  0.1623  0.1653 -0.0612
   64SAPC  H16X 5256   6.250   5.467   5.048 -1.5481 -1.4435 -1.4150
   64SAPC  H16Y 5257   6.384   5.338   5.047  0.6414 -1.0909 -2.4053
   64SAPC  C317 5258   6.278   5.367   4.865 -0.4013  0.1777  0.4318
   64SAPC  H17X 5259   6.357   5.349   4.789 -0.4642 -2.1547  0.8625
   64SAPC  H17Y 5260   6.218   5.446   4.814 -0.5221  0.2093  0.6213
   64SAPC  C318 5261   6.206   5.240   4.873 -0.1944  0.0592  0.3535
   64SAPC  H18X 5262   6.270   5.149   4.878  0.4852  0.5073 -0.1329
   64SAPC  H18Y 5263   6.136   5.219   4.789 -0.2414 -1.4244  0.7256
   64SAPC  H18Z 5264   6.131   5.241   4.955 -2.1183  0.8212 -1.3129
   65SAPC     N 5265   3.608   4.545   2.484  0.0598  0.1655 -0.1802
   65SAPC   C12 5266   3.612   4.397   2.474  0.8502 -0.6199  0.7338
   65SAPC  H12A 5267   3.608   4.374   2.369 -0.7628  1.9546  0.1256
   65SAPC  H12B 5268   3.529   4.334   2.506  1.0797 -2.2411 -1.6257
   65SAPC   C13 5269   3.577   4.593   2.630 -0.0923 -0.8634  0.0257
   65SAPC  H13A 5270   3.473   4.577   2.655 -0.0469  1.1295  1.9008
   65SAPC  H13B 5271   3.642   4.546   2.703  0.3389 -1.0363 -0.4678
   65SAPC  H13C 5272   3.578   4.700   2.646 -0.6507 -0.8691  0.1358
   65SAPC   C14 5273   3.739   4.610   2.451  0.0555 -0.7193  0.1626
   65SAPC  H14A 5274   3.811   4.585   2.527 -0.1288  0.3792  0.7163
   65SAPC  H14B 5275   3.771   4.575   2.354 -0.7384 -1.4447  0.1490
   65SAPC  H14C 5276   3.733   4.718   2.440 -0.9786 -0.7964 -0.1251
   65SAPC   C15 5277   3.496   4.615   2.397 -1.3128 -0.1292 -0.2777
   65SAPC  H15A 5278   3.500   4.723   2.408  0.4055 -0.2259  0.4244
   65SAPC  H15B 5279   3.541   4.605   2.299  2.2756 -0.8849  1.2702
   65SAPC  H15C 5280   3.397   4.573   2.411 -1.6642  0.8470  0.2594
   65SAPC   C11 5281   3.735   4.323   2.531  0.2435  0.0393 -0.8486
   65SAPC  H11A 5282   3.834   4.363   2.501  0.1996 -0.4952 -1.7378
   65SAPC  H11B 5283   3.734   4.224   2.482 -1.9644  0.3286 -1.4749
   65SAPC     P 5284   3.613   4.209   2.732  0.1234  0.3539  0.3621
   65SAPC   O13 5285   3.606   4.219   2.873  0.4739  0.3378 -0.2435
   65SAPC   O14 5286   3.485   4.227   2.664 -0.5011  0.1228 -0.5538
   65SAPC   O12 5287   3.724   4.314   2.676  0.4143 -0.0561 -0.2053
   65SAPC   O11 5288   3.670   4.072   2.700  0.1678  0.1030 -0.1264
   65SAPC    C1 5289   3.739   3.999   2.807  0.3859  0.3078  0.1289
   65SAPC    HA 5290   3.814   4.064   2.858  1.2511 -0.0287 -0.6770
   65SAPC    HB 5291   3.667   3.961   2.882 -0.9882  0.0204 -1.2984
   65SAPC    C2 5292   3.814   3.873   2.753  0.0413 -0.6799  0.5402
   65SAPC    HS 5293   3.878   3.907   2.670 -0.8473  1.8438  0.8168
   65SAPC   O21 5294   3.715   3.785   2.701  0.0407 -0.0642  0.2859
   65SAPC   C21 5295   3.756   3.690   2.624 -0.5986 -0.3406 -0.2514
   65SAPC   O22 5296   3.870   3.669   2.586  0.0646  0.1559  0.2282
   65SAPC   C22 5297   3.640   3.615   2.572 -0.7256  0.3156 -0.6736
   65SAPC   H2R 5298   3.547   3.675   2.577 -1.7734 -1.2588  4.0786
   65SAPC   H2S 5299   3.650   3.583   2.466  0.5774 -0.6109 -0.2888
   65SAPC    C3 5300   3.909   3.806   2.853 -0.0382 -0.2030  0.2645
   65SAPC    HX 5301   3.986   3.881   2.881  1.7660 -0.6955 -2.9449
   65SAPC    HY 5302   3.966   3.729   2.797  2.4553  0.0707  2.2183
   65SAPC   O31 5303   3.836   3.771   2.976 -0.8973 -0.2585 -0.0109
   65SAPC   C31 5304   3.862   3.634   3.004 -0.7762 -0.0383  0.2339
   65SAPC   O32 5305   3.926   3.559   2.935  0.2193  0.1802 -0.0230
   65SAPC   C32 5306   3.799   3.615   3.144  0.2967  0.1349 -0.3451
   65SAPC   H2X 5307   3.795   3.511   3.181 -0.6193 -0.2233 -1.3803
   65SAPC   H2Y 5308   3.690   3.639   3.138 -0.2456 -1.8505  0.8044
   65SAPC   C23 5309   3.616   3.486   2.655  0.2219  0.3602  0.3208
   65SAPC   H3R 5310   3.542   3.426   2.598 -0.7211  0.8688  0.9692
   65SAPC   H3S 5311   3.572   3.509   2.755 -2.5307 -2.9644  0.0471
   65SAPC   C24 5312   3.737   3.395   2.668  0.1353  0.6587 -0.2794
   65SAPC   H4R 5313   3.803   3.448   2.739 -1.5229  1.3095  0.8416
   65SAPC   H4S 5314   3.799   3.387   2.576  1.3977 -0.5700  0.6263
   65SAPC   C25 5315   3.696   3.252   2.707  0.1486  0.4558 -0.1396
   65SAPC   H5R 5316   3.689   3.179   2.625  2.4886  0.7633 -0.6850
   65SAPC   C26 5317   3.684   3.204   2.832  0.2331  0.1999 -0.4212
   65SAPC   H6R 5318   3.665   3.096   2.838 -1.1497  0.3985 -0.8508
   65SAPC   C27 5319   3.695   3.284   2.962 -0.1316  0.1387 -0.8760
   65SAPC   H7R 5320   3.611   3.241   3.020  0.4296 -2.1515 -1.6181
   65SAPC   H7S 5321   3.685   3.393   2.944  2.4428  1.0161  2.0608
   65SAPC   C28 5322   3.830   3.271   3.030 -0.2700  0.0642 -0.4854
   65SAPC   H8R 5323   3.913   3.283   2.959 -0.7361  0.4042 -0.9791
   65SAPC   C29 5324   3.862   3.242   3.160  0.1313 -0.7456  0.9536
   65SAPC   H9R 5325   3.970   3.243   3.183  0.4782 -2.1954 -0.3909
   65SAPC  C210 5326   3.776   3.210   3.277  0.6654  0.4757  0.6335
   65SAPC  H10R 5327   3.678   3.257   3.253 -0.0856 -1.6317 -0.7096
   65SAPC  H10S 5328   3.804   3.275   3.363  0.2663  1.0495  0.3422
   65SAPC  C211 5329   3.743   3.063   3.298  0.7063 -0.1814  0.0445
   65SAPC  H11R 5330   3.724   3.009   3.204 -1.6658 -0.5244  0.6643
   65SAPC  C212 5331   3.738   2.996   3.416  0.0721 -0.4486 -0.1694
   65SAPC  H12R 5332   3.714   2.888   3.418  3.1649 -1.2264  0.9582
   65SAPC  C213 5333   3.752   3.044   3.562  0.1287  0.1865 -0.7056
   65SAPC  H13R 5334   3.778   3.153   3.565  0.6835  0.0361  0.7271
   65SAPC  H13S 5335   3.834   2.987   3.611  0.5615  1.3204 -0.0582
   65SAPC  C214 5336   3.633   3.013   3.651 -0.0447 -0.0073 -0.1619
   65SAPC  H14R 5337   3.557   2.940   3.620 -1.7287  1.7162 -0.2958
   65SAPC  C215 5338   3.619   3.074   3.772  0.4661  0.0054 -0.0545
   65SAPC  H15R 5339   3.530   3.050   3.830  0.0745  2.7066  0.6079
   65SAPC  C216 5340   3.695   3.183   3.840 -0.0195 -0.1613  0.1717
   65SAPC  H16R 5341   3.614   3.259   3.847 -0.8708 -1.1987  2.3554
   65SAPC  H16S 5342   3.782   3.226   3.786 -1.4362  1.5188 -0.8915
   65SAPC  C217 5343   3.725   3.120   3.973  0.5564 -0.4896 -0.2079
   65SAPC  H17R 5344   3.788   3.029   3.969 -0.5357 -1.2333 -1.8588
   65SAPC  H17S 5345   3.633   3.101   4.032  0.6017 -0.0557  0.0077
   65SAPC  C218 5346   3.800   3.222   4.061  0.0680  0.7152  0.0152
   65SAPC  H18R 5347   3.750   3.321   4.071 -2.4669 -0.4715 -0.1998
   65SAPC  H18S 5348   3.895   3.229   4.005 -1.7987 -0.4459 -3.6068
   65SAPC  C219 5349   3.830   3.172   4.198  0.0959  0.9317  0.2463
   65SAPC  H19R 5350   3.898   3.084   4.200 -0.9548  0.1122  1.1080
   65SAPC  H19S 5351   3.735   3.133   4.240 -0.0145 -1.3603 -1.9014
   65SAPC  C220 5352   3.879   3.286   4.292  0.4788  0.2034  0.2522
   65SAPC  H20R 5353   3.792   3.350   4.317 -1.4857 -1.3724 -2.0235
   65SAPC  H20S 5354   3.949   3.351   4.235 -0.3318 -0.9354 -2.1817
   65SAPC  H20T 5355   3.921   3.243   4.386  0.0081  0.1323  0.4309
   65SAPC   C33 5356   3.856   3.715   3.248  0.8873 -0.6098  1.3410
   65SAPC   H3X 5357   3.796   3.707   3.341  0.3978  0.6014  1.1475
   65SAPC   H3Y 5358   3.854   3.818   3.205  1.8401 -0.8235  0.7634
   65SAPC   C34 5359   4.003   3.677   3.292 -0.1186  0.2043  0.2971
   65SAPC   H4X 5360   4.048   3.766   3.340 -0.4882  0.6278 -0.1444
   65SAPC   H4Y 5361   4.070   3.651   3.207 -2.4768  1.3830 -2.0618
   65SAPC   C35 5362   4.020   3.569   3.397  0.2016  0.8374  0.1388
   65SAPC   H5X 5363   4.128   3.555   3.418  0.2925 -0.4609 -1.0505
   65SAPC   H5Y 5364   3.985   3.471   3.358 -0.0994  1.8417 -2.2765
   65SAPC   C36 5365   3.952   3.604   3.528 -0.2490 -0.1852  0.0218
   65SAPC   H6X 5366   3.844   3.622   3.506  0.3304  1.3854 -1.7992
   65SAPC   H6Y 5367   3.992   3.702   3.563 -2.1141  2.0924 -3.6073
   65SAPC   C37 5368   3.961   3.486   3.628  0.0846 -0.4481  0.2790
   65SAPC   H7X 5369   4.067   3.460   3.651  0.1536 -0.8822 -0.4909
   65SAPC   H7Y 5370   3.921   3.396   3.576  0.9343 -0.3088 -0.6293
   65SAPC   C38 5371   3.888   3.513   3.759 -0.2884 -0.5177  0.2402
   65SAPC   H8X 5372   3.891   3.419   3.818  0.0241  0.4945  1.9147
   65SAPC   H8Y 5373   3.781   3.541   3.748  0.3951  2.4863  0.2359
   65SAPC   C39 5374   3.955   3.618   3.855 -0.1466  0.2371  0.6520
   65SAPC   H9X 5375   3.955   3.708   3.790 -0.3140 -0.0919  0.1920
   65SAPC   H9Y 5376   4.056   3.576   3.871  0.3295 -0.3897 -3.0355
   65SAPC  C310 5377   3.894   3.656   3.982 -0.1999  0.5688  0.6394
   65SAPC  H10X 5378   3.860   3.560   4.028 -1.0143  0.8624  0.6644
   65SAPC  H10Y 5379   3.797   3.708   3.971 -0.3698  0.3339  1.0175
   65SAPC  C311 5380   3.990   3.727   4.080  0.8456 -0.5700  0.1320
   65SAPC  H11X 5381   4.011   3.823   4.027  1.4090 -0.2896  0.8445
   65SAPC  H11Y 5382   4.087   3.672   4.076  1.2117  0.1089 -0.6426
   65SAPC  C312 5383   3.930   3.732   4.217 -0.4195 -0.4498  0.0864
   65SAPC  H12X 5384   3.924   3.624   4.245 -2.1645 -1.1921 -2.6824
   65SAPC  H12Y 5385   3.833   3.786   4.220 -0.4595 -0.3818 -1.6964
   65SAPC  C313 5386   4.021   3.804   4.318 -0.2314  0.0179 -0.0222
   65SAPC  H13X 5387   4.123   3.771   4.291 -0.2958  0.0374 -0.2952
   65SAPC  H13Y 5388   4.003   3.759   4.418  1.4725  0.7885  0.6656
   65SAPC  C314 5389   4.008   3.960   4.311 -0.3194  0.4202  0.1796
   65SAPC  H14X 5390   3.901   3.990   4.311 -1.0560 -1.9887 -0.6389
   65SAPC  H14Y 5391   4.046   3.996   4.214  1.4895  1.4421  1.2098
   65SAPC  C315 5392   4.092   4.018   4.430  0.1987 -0.1348  0.8829
   65SAPC  H15X 5393   4.188   3.962   4.434 -0.3116 -0.9678  1.6368
   65SAPC  H15Y 5394   4.036   4.010   4.525  0.1430 -2.0416  0.7290
   65SAPC  C316 5395   4.105   4.170   4.399 -0.9604 -0.7550  0.1087
   65SAPC  H16X 5396   4.093   4.190   4.290 -1.9660  0.7984  0.4762
   65SAPC  H16Y 5397   4.208   4.195   4.433 -0.5626 -1.3994 -0.5916
   65SAPC  C317 5398   4.012   4.263   4.480  0.1656  0.5251 -0.1931
   65SAPC  H17X 5399   4.055   4.264   4.582 -0.0999 -0.6899 -0.0610
   65SAPC  H17Y 5400   3.910   4.219   4.479 -0.0326  0.9719  0.1148
   65SAPC  C318 5401   4.013   4.408   4.428 -0.3668 -0.5009  0.2200
   65SAPC  H18X 5402   4.113   4.448   4.402 -0.1052 -1.0152  0.4315
   65SAPC  H18Y 5403   3.969   4.477   4.503  0.0477  0.5073 -0.4343
   65SAPC  H18Z 5404   3.949   4.420   4.338 -0.1227  0.9511  0.2142
   66SAPC     N 5405   6.420   4.082   2.770  0.2237 -0.1357 -0.1414
   66SAPC   C12 5406   6.415   4.214   2.691 -0.1655 -0.6045 -0.0031
   66SAPC  H12A 5407   6.365   4.188   2.599  1.3451 -2.4418 -0.3739
   66SAPC  H12B 5408   6.517   4.242   2.668 -0.3814 -0.1507 -0.4500
   66SAPC   C13 5409   6.467   4.118   2.908  0.2409 -0.5199  0.1499
   66SAPC  H13A 5410   6.408   4.198   2.949 -1.4765 -1.6261 -0.0947
   66SAPC  H13B 5411   6.450   4.037   2.977 -2.3936 -0.4569 -0.3534
   66SAPC  H13C 5412   6.572   4.144   2.906  1.1490 -3.6729  0.6418
   66SAPC   C14 5413   6.286   4.024   2.789  0.1532 -0.5438 -0.4624
   66SAPC  H14A 5414   6.292   3.936   2.850 -0.5743 -0.7739 -0.7119
   66SAPC  H14B 5415   6.219   4.102   2.823  2.5959  1.5510 -0.0960
   66SAPC  H14C 5416   6.244   3.987   2.697 -2.2779 -0.3211  0.4943
   66SAPC   C15 5417   6.513   3.987   2.704 -0.9725  0.3665 -0.1324
   66SAPC  H15A 5418   6.605   4.042   2.696 -1.8055  1.7393 -0.6909
   66SAPC  H15B 5419   6.533   3.897   2.760  1.7623  0.9949  0.0322
   66SAPC  H15C 5420   6.479   3.957   2.606  2.1230  0.3663 -1.3141
   66SAPC   C11 5421   6.334   4.332   2.748  0.5745  0.0863  0.2897
   66SAPC  H11A 5422   6.365   4.422   2.691 -1.7445  0.7763  0.0169
   66SAPC  H11B 5423   6.365   4.366   2.850  0.1070  0.1086  0.4271
   66SAPC     P 5424   6.103   4.326   2.613 -0.0685  0.3153  0.1031
   66SAPC   O13 5425   6.157   4.430   2.529 -0.1186 -0.6104  0.3924
   66SAPC   O14 5426   6.095   4.195   2.541  0.5264 -0.4750 -0.1819
   66SAPC   O12 5427   6.191   4.303   2.743 -0.3650  0.9428 -1.0987
   66SAPC   O11 5428   5.957   4.361   2.673 -0.1404 -0.0125  0.1452
   66SAPC    C1 5429   5.900   4.275   2.774 -0.1526  0.0357  0.4914
   66SAPC    HA 5430   5.791   4.266   2.756 -0.8302  0.1021  3.9502
   66SAPC    HB 5431   5.936   4.170   2.772 -0.5235 -0.0836 -0.8604
   66SAPC    C2 5432   5.912   4.343   2.914 -0.5105 -0.0026  0.1223
   66SAPC    HS 5433   6.015   4.376   2.938 -0.3480  0.7275 -1.4783
   66SAPC   O21 5434   5.854   4.257   3.013  0.0119 -0.2993 -0.1169
   66SAPC   C21 5435   5.935   4.179   3.079 -0.2001  0.1662  0.1957
   66SAPC   O22 5436   6.052   4.161   3.057  0.3631  0.3835  0.1648
   66SAPC   C22 5437   5.862   4.114   3.187  0.1995 -0.5422  0.4500
   66SAPC   H2R 5438   5.763   4.076   3.155 -0.0074  0.4727 -0.1793
   66SAPC   H2S 5439   5.917   4.025   3.224 -0.3064 -1.6036 -1.2210
   66SAPC    C3 5440   5.824   4.484   2.909 -0.2945  0.5383  0.5775
   66SAPC    HX 5441   5.722   4.460   2.872  0.1098  0.0318 -0.2468
   66SAPC    HY 5442   5.876   4.541   2.829 -0.8547 -0.6464 -0.6714
   66SAPC   O31 5443   5.831   4.558   3.039 -0.1583  0.3078  0.3528
   66SAPC   C31 5444   5.736   4.512   3.125 -0.7690  0.3415  0.1209
   66SAPC   O32 5445   5.642   4.449   3.091  0.0140  0.1001 -0.1076
   66SAPC   C32 5446   5.766   4.554   3.274  0.5213 -0.2255  0.7742
   66SAPC   H2X 5447   5.832   4.643   3.285  0.2498  0.7585 -3.7050
   66SAPC   H2Y 5448   5.822   4.468   3.317 -1.3942 -1.1196  1.6018
   66SAPC   C23 5449   5.825   4.202   3.306  0.3833  0.6338 -0.5528
   66SAPC   H3R 5450   5.751   4.279   3.275  1.9007  2.1123 -0.6082
   66SAPC   H3S 5451   5.909   4.269   3.334 -1.1560  3.0918 -1.5062
   66SAPC   C24 5452   5.771   4.117   3.425  0.1659  0.0826 -0.2970
   66SAPC   H4R 5453   5.854   4.051   3.459 -1.0606 -1.0593  0.5736
   66SAPC   H4S 5454   5.694   4.052   3.377 -1.2536  0.0963  1.8402
   66SAPC   C25 5455   5.710   4.210   3.526  0.5922  0.2834 -0.4032
   66SAPC   H5R 5456   5.644   4.289   3.488 -2.4400 -2.2245 -0.7987
   66SAPC   C26 5457   5.734   4.214   3.660  0.1402 -0.0408  0.3433
   66SAPC   H6R 5458   5.696   4.296   3.722  1.4307  0.6235  0.2950
   66SAPC   C27 5459   5.804   4.107   3.739 -0.0136 -0.5482  0.4096
   66SAPC   H7R 5460   5.886   4.167   3.784 -0.0998  0.7351 -1.0427
   66SAPC   H7S 5461   5.848   4.026   3.677  1.4653 -0.0237  0.7225
   66SAPC   C28 5462   5.712   4.047   3.837  0.4430 -0.7502 -0.0402
   66SAPC   H8R 5463   5.624   3.996   3.794  0.5567  0.7284 -2.1618
   66SAPC   C29 5464   5.724   4.032   3.968  0.3386  0.9312 -0.5589
   66SAPC   H9R 5465   5.641   4.000   4.033  0.8566 -1.2266 -0.8640
   66SAPC  C210 5466   5.844   4.081   4.046 -0.0824  0.5285 -0.4828
   66SAPC  H10R 5467   5.939   4.047   4.000 -0.0309 -1.5042  0.9805
   66SAPC  H10S 5468   5.844   4.027   4.143  1.4253  2.3169  0.5665
   66SAPC  C211 5469   5.855   4.227   4.066  0.0570 -0.1408 -0.3045
   66SAPC  H11R 5470   5.839   4.290   3.977 -1.0798 -0.4798 -0.3514
   66SAPC  C212 5471   5.908   4.288   4.174 -0.0004 -0.3262  0.4472
   66SAPC  H12R 5472   5.919   4.397   4.160 -1.8686 -0.5292 -4.3272
   66SAPC  C213 5473   5.938   4.234   4.309  0.1235 -0.7730 -0.6717
   66SAPC  H13R 5474   6.048   4.232   4.298  0.2415 -0.8865  0.3667
   66SAPC  H13S 5475   5.904   4.129   4.328 -2.9725 -0.0777 -1.8380
   66SAPC  C214 5476   5.883   4.323   4.420 -0.5419  0.4808 -0.2472
   66SAPC  H14R 5477   5.778   4.309   4.449  0.2479  1.9296  3.9656
   66SAPC  C215 5478   5.957   4.410   4.502  0.5357  0.2542  0.3629
   66SAPC  H15R 5479   5.896   4.470   4.571  1.3706 -2.3010  3.5552
   66SAPC  C216 5480   6.108   4.440   4.489  0.7396  1.2683 -0.7682
   66SAPC  H16R 5481   6.151   4.368   4.416  0.0785  3.0078 -3.0037
   66SAPC  H16S 5482   6.157   4.419   4.587 -0.6197 -0.0454 -0.3380
   66SAPC  C217 5483   6.149   4.579   4.432  0.1620 -0.1776 -0.1896
   66SAPC  H17R 5484   6.096   4.588   4.335 -1.6430 -0.5343  0.7319
   66SAPC  H17S 5485   6.259   4.579   4.414  0.0379 -0.6081 -1.0057
   66SAPC  C218 5486   6.095   4.693   4.520  1.2816 -0.5207  0.1936
   66SAPC  H18R 5487   6.144   4.700   4.620 -1.0311  1.4109  1.2710
   66SAPC  H18S 5488   5.987   4.688   4.544  1.6556 -0.5537  2.0294
   66SAPC  C219 5489   6.126   4.829   4.462 -0.5324 -0.0450 -0.0316
   66SAPC  H19R 5490   6.060   4.832   4.372 -3.1342 -0.5636  1.7268
   66SAPC  H19S 5491   6.233   4.826   4.434 -0.2976 -0.1173  0.8495
   66SAPC  C220 5492   6.087   4.941   4.561 -0.0842 -0.0884  0.5605
   66SAPC  H20R 5493   6.135   5.034   4.522  2.2829 -0.9855  1.1542
   66SAPC  H20S 5494   6.114   4.912   4.665  1.4855 -0.4328  0.0904
   66SAPC  H20T 5495   5.977   4.952   4.565 -0.1904 -1.1896  1.1645
   66SAPC   C33 5496   5.635   4.572   3.356  0.0423  0.3704  0.3421
   66SAPC   H3X 5497   5.669   4.562   3.462  0.0754  0.2414  0.3192
   66SAPC   H3Y 5498   5.567   4.486   3.342  1.6978 -0.8965 -0.1949
   66SAPC   C34 5499   5.562   4.705   3.354 -0.5145  0.8280 -0.0288
   66SAPC   H4X 5500   5.514   4.705   3.254  2.3967  1.8281 -1.5278
   66SAPC   H4Y 5501   5.624   4.797   3.358  1.3189 -0.3729  0.0566
   66SAPC   C35 5502   5.444   4.714   3.453 -0.1683 -0.3043 -0.5933
   66SAPC   H5X 5503   5.393   4.615   3.444 -0.5004 -0.2771  0.8563
   66SAPC   H5Y 5504   5.390   4.800   3.409 -1.8200  0.2831  2.3815
   66SAPC   C36 5505   5.485   4.752   3.592  0.3902 -0.0037  0.0814
   66SAPC   H6X 5506   5.402   4.814   3.633  0.5337  0.8837 -0.9136
   66SAPC   H6Y 5507   5.579   4.809   3.596 -0.3240  1.1319  2.1714
   66SAPC   C37 5508   5.489   4.637   3.688 -0.0102 -0.1025  0.3801
   66SAPC   H7X 5509   5.555   4.565   3.637  1.2981  2.1110 -1.2264
   66SAPC   H7Y 5510   5.391   4.589   3.708 -0.3451 -0.4193 -1.8678
   66SAPC   C38 5511   5.544   4.652   3.834 -0.1342 -0.0799  1.0119
   66SAPC   H8X 5512   5.495   4.734   3.892 -0.1882  0.9639 -0.4593
   66SAPC   H8Y 5513   5.651   4.683   3.833  0.2720 -1.3749 -0.9471
   66SAPC   C39 5514   5.533   4.521   3.923  0.3248 -1.0222 -0.4056
   66SAPC   H9X 5515   5.564   4.439   3.855 -0.5574 -1.0475 -0.7902
   66SAPC   H9Y 5516   5.427   4.494   3.946 -0.5635  0.9993 -1.8343
   66SAPC  C310 5517   5.624   4.520   4.042  0.2298  0.6409 -0.1445
   66SAPC  H10X 5518   5.720   4.562   4.005  1.8290 -1.0373  1.7834
   66SAPC  H10Y 5519   5.655   4.418   4.074  0.4663  0.2436 -1.5555
   66SAPC  C311 5520   5.565   4.595   4.162 -0.5165 -0.3990  0.4533
   66SAPC  H11X 5521   5.483   4.537   4.207 -2.9118  1.2526 -1.5040
   66SAPC  H11Y 5522   5.503   4.677   4.118 -0.3789  0.0547  1.0892
   66SAPC  C312 5523   5.663   4.622   4.279  0.3816 -0.4349  0.4122
   66SAPC  H12X 5524   5.759   4.662   4.241  0.7486 -1.3873  0.3233
   66SAPC  H12Y 5525   5.693   4.528   4.330  0.1837  0.0286  1.4188
   66SAPC  C313 5526   5.597   4.709   4.392  0.3769 -0.4126  0.5442
   66SAPC  H13X 5527   5.508   4.656   4.431 -0.2294 -0.8792 -1.3384
   66SAPC  H13Y 5528   5.570   4.811   4.357  2.0825  1.0109  3.0367
   66SAPC  C314 5529   5.703   4.731   4.506  0.7489  0.2304 -0.5784
   66SAPC  H14X 5530   5.798   4.769   4.464  0.8895  3.1881  2.0428
   66SAPC  H14Y 5531   5.725   4.640   4.564 -0.2826  0.7048  0.6123
   66SAPC  C315 5532   5.643   4.832   4.610 -0.4734 -0.1945  0.7533
   66SAPC  H15X 5533   5.547   4.781   4.633  0.8089 -1.9880  2.3663
   66SAPC  H15Y 5534   5.619   4.932   4.565 -2.6883 -1.3053 -0.7395
   66SAPC  C316 5535   5.721   4.840   4.741  0.4439  0.0568  0.1499
   66SAPC  H16X 5536   5.829   4.859   4.728  0.2344  0.1287 -1.7850
   66SAPC  H16Y 5537   5.701   4.749   4.802 -1.7742  0.4201  0.0626
   66SAPC  C317 5538   5.668   4.960   4.825 -0.9872  0.2544 -0.2535
   66SAPC  H17X 5539   5.567   4.926   4.854 -0.8105  0.1486  0.2487
   66SAPC  H17Y 5540   5.664   5.059   4.774 -0.2884  1.3911  1.7803
   66SAPC  C318 5541   5.756   4.968   4.951 -0.1466 -0.2460 -0.3401
   66SAPC  H18X 5542   5.792   4.869   4.987  0.8809 -0.1892 -1.1796
   66SAPC  H18Y 5543   5.684   5.008   5.025 -3.1739 -3.4848 -1.2020
   66SAPC  H18Z 5544   5.845   5.030   4.928  0.2923 -0.7916 -0.1132
   67SAPC     N 5545   5.039   3.555   2.621 -0.5417  0.6251  0.1694
   67SAPC   C12 5546   5.143   3.500   2.717 -0.5205 -0.4061  0.9621
   67SAPC  H12A 5547   5.159   3.397   2.689 -2.9551 -1.1960  2.1628
   67SAPC  H12B 5548   5.099   3.509   2.816 -2.6768  2.7517 -0.1303
   67SAPC   C13 5549   5.089   3.557   2.481 -0.2350 -0.0456  0.2579
   67SAPC  H13A 5550   5.023   3.608   2.413  0.1758 -0.8414 -0.7682
   67SAPC  H13B 5551   5.186   3.604   2.469 -0.4995  0.4121 -0.0898
   67SAPC  H13C 5552   5.097   3.456   2.442 -0.1377 -0.4216  1.2196
   67SAPC   C14 5553   4.914   3.477   2.631 -0.4947 -0.0067 -0.4305
   67SAPC  H14A 5554   4.898   3.387   2.574 -1.2882 -1.6169  2.1320
   67SAPC  H14B 5555   4.894   3.442   2.731  0.0188 -1.5850 -0.8573
   67SAPC  H14C 5556   4.830   3.540   2.605  1.3393  2.6617 -0.2450
   67SAPC   C15 5557   4.995   3.695   2.661 -0.1476 -0.0996  0.0702
   67SAPC  H15A 5558   5.086   3.753   2.653 -0.5246  0.2300 -2.9580
   67SAPC  H15B 5559   4.912   3.732   2.604 -0.6554 -1.6475 -0.2417
   67SAPC  H15C 5560   4.954   3.686   2.761 -1.2152  0.4288 -0.3133
   67SAPC   C11 5561   5.281   3.573   2.729  0.0495 -0.5734 -0.6118
   67SAPC  H11A 5562   5.329   3.532   2.820 -1.3587 -0.9703 -0.0242
   67SAPC  H11B 5563   5.271   3.681   2.750  1.4455 -0.5326 -0.0202
   67SAPC     P 5564   5.408   3.399   2.584  0.5691  0.1604 -0.1952
   67SAPC   O13 5565   5.294   3.307   2.602 -0.0022 -0.0868 -0.5389
   67SAPC   O14 5566   5.475   3.407   2.457 -0.5001  0.6451  0.5447
   67SAPC   O12 5567   5.360   3.547   2.615  0.0503 -0.3032 -0.1488
   67SAPC   O11 5568   5.507   3.360   2.698  0.1605 -0.4092 -0.4720
   67SAPC    C1 5569   5.643   3.390   2.681  0.1115  0.2629 -0.2046
   67SAPC    HA 5570   5.686   3.293   2.646  0.0904 -0.1918  0.9615
   67SAPC    HB 5571   5.671   3.469   2.608  3.4847 -0.3853  0.2167
   67SAPC    C2 5572   5.707   3.434   2.816 -0.5495  0.5836 -0.6043
   67SAPC    HS 5573   5.804   3.481   2.789  0.5419 -1.4373 -0.3875
   67SAPC   O21 5574   5.726   3.313   2.895 -0.6911  0.3853 -0.5880
   67SAPC   C21 5575   5.820   3.225   2.863  0.1163 -0.1377  0.7273
   67SAPC   O22 5576   5.896   3.225   2.765  0.6914 -0.3992 -0.2771
   67SAPC   C22 5577   5.809   3.110   2.967 -0.1007  0.0711  0.9933
   67SAPC   H2R 5578   5.763   3.157   3.056  0.7830 -0.0104  1.5020
   67SAPC   H2S 5579   5.741   3.041   2.913 -0.9135  1.5121  0.1151
   67SAPC    C3 5580   5.621   3.527   2.904 -0.4166  0.2946 -0.5504
   67SAPC    HX 5581   5.534   3.478   2.952 -0.0698 -0.4690 -0.6713
   67SAPC    HY 5582   5.578   3.599   2.832 -0.2448 -0.7854 -1.7740
   67SAPC   O31 5583   5.703   3.586   3.003  0.1625  0.5433  0.1058
   67SAPC   C31 5584   5.716   3.518   3.117  0.0916  0.4576 -0.0448
   67SAPC   O32 5585   5.656   3.418   3.146 -0.1970  0.2325 -0.0460
   67SAPC   C32 5586   5.831   3.567   3.202 -0.0810 -0.2331 -0.7312
   67SAPC   H2X 5587   5.884   3.653   3.156 -0.0213  0.5579  0.7454
   67SAPC   H2Y 5588   5.913   3.494   3.218  0.6424  0.3925 -1.5446
   67SAPC   C23 5589   5.945   3.044   3.002 -0.4026  0.3421 -0.2688
   67SAPC   H3R 5590   6.028   3.115   3.023  1.4412 -1.5765 -0.8263
   67SAPC   H3S 5591   5.973   2.991   2.909 -0.2049  1.7757 -1.0480
   67SAPC   C24 5592   5.916   2.941   3.108  0.6870 -0.6953 -0.7577
   67SAPC   H4R 5593   5.998   2.868   3.096  1.8706  0.6132 -0.8660
   67SAPC   H4S 5594   5.817   2.893   3.090 -1.0961  0.9490  3.2019
   67SAPC   C25 5595   5.904   2.999   3.251 -0.4367  0.6195 -0.1812
   67SAPC   H5R 5596   5.812   3.057   3.269 -0.3840 -0.0543  2.7389
   67SAPC   C26 5597   6.006   3.002   3.348  0.2171 -0.5524  0.4066
   67SAPC   H6R 5598   5.974   3.044   3.444 -0.9980  0.8929 -0.5808
   67SAPC   C27 5599   6.147   2.947   3.332  0.2065  0.1499 -0.1859
   67SAPC   H7R 5600   6.219   2.996   3.401 -0.7728  1.7113 -0.2231
   67SAPC   H7S 5601   6.181   2.973   3.229 -0.0549 -1.6083 -0.7622
   67SAPC   C28 5602   6.153   2.798   3.351 -0.7018  0.4391 -0.1587
   67SAPC   H8R 5603   6.182   2.744   3.259  0.7486 -0.0337  0.5467
   67SAPC   C29 5604   6.142   2.716   3.458 -0.0586  0.3792 -1.0453
   67SAPC   H9R 5605   6.151   2.607   3.454  1.5838  0.2710  2.1500
   67SAPC  C210 5606   6.109   2.768   3.596 -0.4774 -0.8952  0.2237
   67SAPC  H10R 5607   6.072   2.873   3.594 -0.5573 -0.8981  1.2039
   67SAPC  H10S 5608   6.202   2.775   3.656  0.5194  2.9395 -1.4668
   67SAPC  C211 5609   6.005   2.685   3.659  0.8268 -0.5988  0.0173
   67SAPC  H11R 5610   5.916   2.669   3.596  0.3053  2.6146 -0.2428
   67SAPC  C212 5611   6.011   2.630   3.780 -0.4255 -0.3279 -0.4768
   67SAPC  H12R 5612   5.929   2.567   3.818 -0.7274 -0.2035 -0.9109
   67SAPC  C213 5613   6.130   2.643   3.876  0.0515  0.7066  0.6764
   67SAPC  H13R 5614   6.224   2.649   3.818 -1.6437  0.4085 -2.3090
   67SAPC  H13S 5615   6.134   2.556   3.946 -0.1028 -0.1515 -0.3588
   67SAPC  C214 5616   6.104   2.770   3.947 -0.8266  0.5767  0.0330
   67SAPC  H14R 5617   6.010   2.822   3.926 -0.7046  0.3701 -1.0565
   67SAPC  C215 5618   6.176   2.805   4.050 -0.0313 -0.5007 -0.5097
   67SAPC  H15R 5619   6.150   2.898   4.103  0.1924  0.0034 -1.2628
   67SAPC  C216 5620   6.297   2.733   4.100  0.0749 -0.4901 -0.3773
   67SAPC  H16R 5621   6.384   2.800   4.116 -1.9084  2.1434  0.1433
   67SAPC  H16S 5622   6.336   2.662   4.024 -1.8378 -0.3654 -1.5524
   67SAPC  C217 5623   6.258   2.667   4.231 -0.0895 -0.8136 -0.0497
   67SAPC  H17R 5624   6.224   2.745   4.302  0.4413  0.4804 -1.1950
   67SAPC  H17S 5625   6.353   2.618   4.261  0.2633 -1.1557 -1.6100
   67SAPC  C218 5626   6.143   2.560   4.224 -0.5109 -0.2026 -0.6080
   67SAPC  H18R 5627   6.163   2.490   4.140 -0.5171 -2.8642  1.4880
   67SAPC  H18S 5628   6.048   2.613   4.205 -0.8501 -0.0449  1.3110
   67SAPC  C219 5629   6.128   2.482   4.355 -0.1639  0.5784  0.0621
   67SAPC  H19R 5630   6.104   2.552   4.438 -0.1599  0.9685 -0.2623
   67SAPC  H19S 5631   6.226   2.437   4.382 -1.1176 -1.8902 -0.3730
   67SAPC  C220 5632   6.027   2.371   4.343 -0.3450  0.6846  0.1409
   67SAPC  H20R 5633   6.038   2.292   4.421  1.6664 -0.5854 -1.3269
   67SAPC  H20S 5634   6.046   2.312   4.251  1.6953  2.2237 -0.5027
   67SAPC  H20T 5635   5.922   2.406   4.349  0.1672  2.7617 -1.7909
   67SAPC   C33 5636   5.778   3.602   3.345  0.3749 -0.0461  0.0867
   67SAPC   H3X 5637   5.752   3.517   3.412  0.9592 -0.0328  0.3387
   67SAPC   H3Y 5638   5.692   3.672   3.338  0.6536  0.3685  0.6963
   67SAPC   C34 5639   5.885   3.681   3.424  0.4781 -0.2948  0.3265
   67SAPC   H4X 5640   5.900   3.775   3.367  1.8360 -0.3779  0.5330
   67SAPC   H4Y 5641   5.979   3.624   3.433  1.3841  0.7128 -1.9649
   67SAPC   C35 5642   5.833   3.718   3.562 -0.6744 -0.0709 -0.5058
   67SAPC   H5X 5643   5.739   3.775   3.542 -0.5165  0.7850  1.0647
   67SAPC   H5Y 5644   5.910   3.781   3.610 -0.2248 -0.7578 -0.3259
   67SAPC   C36 5645   5.796   3.614   3.673 -0.0408  0.1609  0.5976
   67SAPC   H6X 5646   5.873   3.536   3.695 -0.9611 -0.3788  2.1158
   67SAPC   H6Y 5647   5.714   3.554   3.628  0.4116 -1.0657  1.3601
   67SAPC   C37 5648   5.759   3.686   3.797  0.6419  0.1291  0.0604
   67SAPC   H7X 5649   5.649   3.695   3.810  0.7420  1.7463  0.0143
   67SAPC   H7Y 5650   5.796   3.790   3.786 -0.8956  1.0782  2.8171
   67SAPC   C38 5651   5.816   3.620   3.923 -1.0201  0.2350  0.0944
   67SAPC   H8X 5652   5.926   3.638   3.922 -1.3002  2.1537  0.8263
   67SAPC   H8Y 5653   5.793   3.511   3.931  0.1758  0.1123  2.4467
   67SAPC   C39 5654   5.779   3.684   4.059  0.1099 -0.0445 -0.5378
   67SAPC   H9X 5655   5.804   3.793   4.061 -1.5374  0.4085  2.3335
   67SAPC   H9Y 5656   5.843   3.642   4.140  0.2920  2.2297  0.5900
   67SAPC  C310 5657   5.637   3.671   4.106  0.4808  0.1092  0.2035
   67SAPC  H10X 5658   5.616   3.563   4.124 -2.9157  0.9991  2.5355
   67SAPC  H10Y 5659   5.565   3.708   4.029  0.6197  1.6975  0.8193
   67SAPC  C311 5660   5.600   3.743   4.234  0.2309 -0.4167  0.2826
   67SAPC  H11X 5661   5.593   3.854   4.227 -0.8514 -0.4748  0.2511
   67SAPC  H11Y 5662   5.676   3.715   4.310 -0.1398 -0.3002  0.6981
   67SAPC  C312 5663   5.468   3.697   4.282  0.0505  0.4302 -0.0225
   67SAPC  H12X 5664   5.470   3.594   4.322  1.4658 -0.2309 -1.6311
   67SAPC  H12Y 5665   5.403   3.696   4.192 -0.1408 -1.3686  0.1023
   67SAPC  C313 5666   5.418   3.796   4.387  0.4435  0.4018  0.7106
   67SAPC  H13X 5667   5.313   3.763   4.405  0.9543 -1.2538  0.7395
   67SAPC  H13Y 5668   5.410   3.901   4.349 -0.5460 -1.0819 -3.9013
   67SAPC  C314 5669   5.497   3.797   4.520  0.5324 -0.2783  0.4815
   67SAPC  H14X 5670   5.605   3.824   4.517  0.6340 -0.7087  0.0667
   67SAPC  H14Y 5671   5.497   3.700   4.575 -2.7390  0.1065  1.3530
   67SAPC  C315 5672   5.435   3.896   4.626  0.6675  0.6313  0.0055
   67SAPC  H15X 5673   5.330   3.865   4.644  0.8325  1.4558  2.8789
   67SAPC  H15Y 5674   5.433   3.999   4.585 -0.9959 -0.5059 -3.0809
   67SAPC  C316 5675   5.497   3.897   4.765 -0.5115  0.5428 -0.4322
   67SAPC  H16X 5676   5.607   3.899   4.745 -0.3453  1.7907  0.4985
   67SAPC  H16Y 5677   5.476   3.805   4.824  0.6440  1.2257  1.1208
   67SAPC  C317 5678   5.448   4.004   4.858  0.1040 -0.3331  0.5009
   67SAPC  H17X 5679   5.337   4.007   4.862  0.0267  4.7362  0.8844
   67SAPC  H17Y 5680   5.471   4.104   4.814 -0.6035 -1.2088 -2.0790
   67SAPC  C318 5681   5.517   3.985   4.998 -0.1942 -0.1108 -0.0134
   67SAPC  H18X 5682   5.489   3.886   5.041 -3.2689  0.9569  0.7478
   67SAPC  H18Y 5683   5.474   4.055   5.073  1.7986 -0.8088  1.8813
   67SAPC  H18Z 5684   5.625   4.001   4.981 -0.0965 -0.5224  0.1913
   68SAPC     N 5685   0.135   6.697   2.444  0.1406 -0.0890 -0.2210
   68SAPC   C12 5686   0.268   6.654   2.406  0.0842 -0.5952 -0.3208
   68SAPC  H12A 5687   0.261   6.549   2.381 -2.3766 -0.4202 -0.5876
   68SAPC  H12B 5688   0.320   6.643   2.500 -0.8220 -1.6096  0.0696
   68SAPC   C13 5689   0.067   6.590   2.526  0.5954  0.1842  0.8044
   68SAPC  H13A 5690   0.134   6.568   2.608  1.1779  0.3216  0.3724
   68SAPC  H13B 5691  -0.023   6.637   2.561 -0.0277  0.6652 -1.3047
   68SAPC  H13C 5692   0.043   6.503   2.466 -1.6531  0.8951  0.5989
   68SAPC   C14 5693   0.143   6.820   2.527 -0.1154 -0.3877 -0.4655
   68SAPC  H14A 5694   0.174   6.801   2.628 -1.8602 -0.0694  0.1571
   68SAPC  H14B 5695   0.209   6.890   2.476  0.7541  0.6158  1.8872
   68SAPC  H14C 5696   0.042   6.858   2.527 -0.5617 -1.3951  2.3017
   68SAPC   C15 5697   0.044   6.730   2.325  0.3152  0.2287  0.7573
   68SAPC  H15A 5698   0.073   6.667   2.243 -0.6139 -0.5103  0.9763
   68SAPC  H15B 5699  -0.060   6.707   2.348 -0.0800  0.6343 -0.5438
   68SAPC  H15C 5700   0.057   6.832   2.292 -2.0826  1.4945  3.2633
   68SAPC   C11 5701   0.342   6.736   2.297  0.8126  0.2833 -0.4605
   68SAPC  H11A 5702   0.274   6.750   2.210  1.8689 -0.1365 -1.3761
   68SAPC  H11B 5703   0.434   6.688   2.256 -0.6705 -2.2588 -1.0610
   68SAPC     P 5704   0.512   6.891   2.435  0.0820 -0.2057 -0.1144
   68SAPC   O13 5705   0.586   6.765   2.445  0.4046 -0.1229 -0.1686
   68SAPC   O14 5706   0.588   7.012   2.383  0.6773 -0.0093  0.1813
   68SAPC   O12 5707   0.380   6.868   2.339 -0.1400 -0.4152  0.1077
   68SAPC   O11 5708   0.450   6.921   2.580  0.2548  0.3243  0.2377
   68SAPC    C1 5709   0.390   7.037   2.626 -0.1098  0.1414 -0.3325
   68SAPC    HA 5710   0.345   7.086   2.537 -3.7819 -1.5592  0.4372
   68SAPC    HB 5711   0.314   7.007   2.701  1.3760 -1.8896  0.4591
   68SAPC    C2 5712   0.491   7.133   2.695  0.0666  0.0891  0.0248
   68SAPC    HS 5713   0.562   7.161   2.614 -0.9054  3.6957  0.2377
   68SAPC   O21 5714   0.539   7.057   2.805  0.0896  0.3070  0.1381
   68SAPC   C21 5715   0.646   6.984   2.799  0.0152 -0.0018  1.0300
   68SAPC   O22 5716   0.718   6.972   2.699 -0.3515 -0.7622  0.3606
   68SAPC   C22 5717   0.654   6.908   2.921  0.0831 -0.1131 -0.4053
   68SAPC   H2R 5718   0.757   6.923   2.959 -0.9421  1.1491  2.1753
   68SAPC   H2S 5719   0.576   6.949   2.989  1.2530  1.5164  0.0164
   68SAPC    C3 5720   0.432   7.267   2.743  0.3041 -0.4309 -0.7854
   68SAPC    HX 5721   0.392   7.300   2.644 -2.1105 -0.0465  0.2542
   68SAPC    HY 5722   0.503   7.350   2.762  1.1333 -1.2930 -0.0767
   68SAPC   O31 5723   0.323   7.264   2.843  0.0707 -0.6239 -0.2170
   68SAPC   C31 5724   0.362   7.265   2.972 -0.3373  0.0733 -0.2239
   68SAPC   O32 5725   0.480   7.254   3.005  0.4188  0.4792 -0.4440
   68SAPC   C32 5726   0.241   7.260   3.072 -0.7995 -0.2960  0.1877
   68SAPC   H2X 5727   0.152   7.240   3.009 -0.7805 -2.3567  0.7570
   68SAPC   H2Y 5728   0.238   7.354   3.131  0.9905  0.9331 -1.5248
   68SAPC   C23 5729   0.635   6.752   2.905 -0.1231 -0.6658  0.2609
   68SAPC   H3R 5730   0.664   6.718   3.007  1.3414  0.5143  0.2700
   68SAPC   H3S 5731   0.703   6.706   2.831 -0.2668 -0.2967 -0.1008
   68SAPC   C24 5732   0.495   6.711   2.870  0.0874 -0.1674 -0.5249
   68SAPC   H4R 5733   0.489   6.601   2.863  0.7503 -0.3503  1.2444
   68SAPC   H4S 5734   0.481   6.752   2.767  1.9372  3.5250  0.5035
   68SAPC   C25 5735   0.384   6.767   2.956 -0.1632 -0.4331 -0.1098
   68SAPC   H5R 5736   0.314   6.834   2.905  0.3959 -1.0210 -1.7178
   68SAPC   C26 5737   0.352   6.731   3.080  0.5586  0.0121 -0.3089
   68SAPC   H6R 5738   0.272   6.783   3.133 -0.5747 -2.7223  0.8211
   68SAPC   C27 5739   0.416   6.631   3.176 -0.4827  0.0817 -0.3154
   68SAPC   H7R 5740   0.447   6.690   3.264  0.0942 -0.5521 -0.0874
   68SAPC   H7S 5741   0.517   6.597   3.143 -0.4630 -2.5816  2.1071
   68SAPC   C28 5742   0.332   6.508   3.206 -0.1883 -0.4052 -0.2701
   68SAPC   H8R 5743   0.280   6.477   3.115  0.2595  1.1855 -1.1095
   68SAPC   C29 5744   0.306   6.463   3.331 -0.1292 -0.1405  0.3568
   68SAPC   H9R 5745   0.243   6.372   3.337 -1.4215  0.5585 -1.5495
   68SAPC  C210 5746   0.355   6.522   3.459  0.1660 -0.3413  0.4784
   68SAPC  H10R 5747   0.283   6.604   3.476  0.4178 -0.5285  2.7485
   68SAPC  H10S 5748   0.453   6.570   3.441  0.9998 -2.7097 -2.1740
   68SAPC  C211 5749   0.361   6.434   3.582  0.4833  0.1640 -0.8818
   68SAPC  H11R 5750   0.390   6.332   3.554 -2.3405 -0.9337 -0.1420
   68SAPC  C212 5751   0.335   6.467   3.708  0.0401  0.2447 -0.6838
   68SAPC  H12R 5752   0.331   6.392   3.788 -2.0787  1.6732  0.6586
   68SAPC  C213 5753   0.290   6.603   3.746 -0.0052 -0.5716  0.0077
   68SAPC  H13R 5754   0.190   6.596   3.795  0.5187  2.0551  1.6471
   68SAPC  H13S 5755   0.272   6.666   3.656  0.7096  1.7034  1.3824
   68SAPC  C214 5756   0.407   6.663   3.837  0.5721  0.2423 -0.4556
   68SAPC  H14R 5757   0.486   6.731   3.801  0.0045  2.2079  1.7894
   68SAPC  C215 5758   0.409   6.647   3.972  0.9221 -0.6274  0.0225
   68SAPC  H15R 5759   0.487   6.680   4.042  0.6277 -1.9918  1.0390
   68SAPC  C216 5760   0.299   6.587   4.060  0.3214 -0.2808  0.0491
   68SAPC  H16R 5761   0.334   6.489   4.099  1.8630 -0.8848 -2.6100
   68SAPC  H16S 5762   0.205   6.574   4.003  0.5084 -2.3026  0.1444
   68SAPC  C217 5763   0.260   6.696   4.167 -0.3810  0.8428  0.7801
   68SAPC  H17R 5764   0.218   6.788   4.121 -1.8679  0.2442  0.9119
   68SAPC  H17S 5765   0.347   6.718   4.233  0.6663 -1.1020  0.1290
   68SAPC  C218 5766   0.145   6.643   4.255 -0.2371 -0.2812  0.1941
   68SAPC  H18R 5767   0.045   6.631   4.207  0.0589  0.4278 -0.6154
   68SAPC  H18S 5768   0.125   6.720   4.333  1.1624  0.1357  0.1635
   68SAPC  C219 5769   0.183   6.513   4.321 -0.3552  0.3707 -0.1968
   68SAPC  H19R 5770   0.286   6.516   4.363 -0.7868  1.2322  0.8203
   68SAPC  H19S 5771   0.188   6.433   4.244 -2.6490 -0.3255  0.3031
   68SAPC  C220 5772   0.093   6.477   4.444 -0.7083  0.2089 -0.2018
   68SAPC  H20R 5773   0.124   6.552   4.520  0.3587  1.4581 -1.7802
   68SAPC  H20S 5774   0.108   6.379   4.494  3.3788  0.5486 -0.3560
   68SAPC  H20T 5775  -0.014   6.494   4.422 -0.7026 -1.4657 -1.7549
   68SAPC   C33 5776   0.267   7.144   3.174  0.0898  0.1786 -0.3129
   68SAPC   H3X 5777   0.366   7.160   3.222 -1.2725 -1.0214  3.2137
   68SAPC   H3Y 5778   0.267   7.050   3.115 -0.3740  0.2433 -0.4213
   68SAPC   C34 5779   0.165   7.138   3.284  0.6074  0.4716  0.2234
   68SAPC   H4X 5780   0.155   7.035   3.325  0.4630  0.5027  0.2681
   68SAPC   H4Y 5781   0.069   7.165   3.234  0.7506  2.4573  0.9315
   68SAPC   C35 5782   0.173   7.241   3.392 -0.1861  0.3146 -0.8740
   68SAPC   H5X 5783   0.202   7.336   3.341  2.7908  0.1375  0.2754
   68SAPC   H5Y 5784   0.249   7.203   3.463 -2.0871  0.8385  1.5924
   68SAPC   C36 5785   0.036   7.261   3.460 -0.7369  0.6243  1.2925
   68SAPC   H6X 5786  -0.004   7.165   3.500 -0.7398 -0.1618 -0.4952
   68SAPC   H6Y 5787  -0.038   7.274   3.378  0.2831 -0.7027  0.1042
   68SAPC   C37 5788   0.017   7.368   3.563 -0.3423  0.4441  0.3772
   68SAPC   H7X 5789  -0.090   7.394   3.582 -0.5708 -0.7054  0.7783
   68SAPC   H7Y 5790   0.074   7.458   3.532 -1.6328  2.5822  3.6967
   68SAPC   C38 5791   0.063   7.323   3.707  0.0411 -0.2513  0.7004
   68SAPC   H8X 5792   0.173   7.307   3.715  0.3262  0.5650 -1.0563
   68SAPC   H8Y 5793   0.021   7.221   3.720  1.8457 -1.1864 -0.3168
   68SAPC   C39 5794   0.021   7.419   3.812 -0.0478 -0.9121  0.3100
   68SAPC   H9X 5795  -0.090   7.410   3.821 -0.0666 -1.3427 -0.2465
   68SAPC   H9Y 5796   0.046   7.520   3.775 -0.8124 -0.9354 -0.2893
   68SAPC  C310 5797   0.075   7.408   3.956  0.2018 -0.2268 -0.2276
   68SAPC  H10X 5798   0.035   7.481   4.029  1.2810 -1.6957  1.9514
   68SAPC  H10Y 5799   0.185   7.422   3.960  0.2478 -0.6063 -0.0766
   68SAPC  C311 5800   0.063   7.271   4.027 -0.4219  0.1866 -1.1396
   68SAPC  H11X 5801   0.132   7.198   3.979 -0.0490 -0.4564  0.3372
   68SAPC  H11Y 5802  -0.044   7.243   4.021 -0.4060 -0.1499 -0.0159
   68SAPC  C312 5803   0.101   7.276   4.176  0.3956 -0.4654  0.6216
   68SAPC  H12X 5804   0.042   7.361   4.218  1.1348  0.9768 -1.1150
   68SAPC  H12Y 5805   0.206   7.306   4.195 -0.4049  1.4434  2.4323
   68SAPC  C313 5806   0.081   7.136   4.236 -0.5675  0.2367  0.6255
   68SAPC  H13X 5807   0.125   7.139   4.338 -1.9782 -0.8194  1.2922
   68SAPC  H13Y 5808   0.133   7.060   4.174 -0.8759  1.0841 -0.7152
   68SAPC  C314 5809  -0.064   7.098   4.265  0.6905  0.1226  0.3909
   68SAPC  H14X 5810  -0.125   7.116   4.174  0.9524  1.7798  0.5209
   68SAPC  H14Y 5811  -0.106   7.148   4.355 -0.7486  0.3450 -0.3785
   68SAPC  C315 5812  -0.069   6.943   4.286 -0.1794 -0.1249 -0.0388
   68SAPC  H15X 5813   0.011   6.917   4.360  0.9238  0.2203 -1.0818
   68SAPC  H15Y 5814  -0.047   6.900   4.186  0.3718 -0.8626  0.3789
   68SAPC  C316 5815  -0.212   6.914   4.350  0.1474 -0.1309 -0.5692
   68SAPC  H16X 5816  -0.274   6.993   4.303 -0.3263  0.2914  0.7232
   68SAPC  H16Y 5817  -0.196   6.939   4.457  1.9400 -0.1466 -0.7987
   68SAPC  C317 5818  -0.266   6.770   4.339  0.2587  0.4957 -0.4718
   68SAPC  H17X 5819  -0.374   6.767   4.365  0.0922 -1.3006 -1.2460
   68SAPC  H17Y 5820  -0.212   6.705   4.410 -2.4700 -0.2301  1.1006
   68SAPC  C318 5821  -0.260   6.730   4.199 -0.1442  0.8032  0.1744
   68SAPC  H18X 5822  -0.161   6.689   4.172 -1.6984 -1.1973 -3.3313
   68SAPC  H18Y 5823  -0.287   6.820   4.139  0.7598 -0.1395 -1.7395
   68SAPC  H18Z 5824  -0.338   6.660   4.161  0.7852 -0.6669  0.9043
   69SAPC     N 5825   5.406   0.132   2.463 -0.2314 -0.3807  0.3832
   69SAPC   C12 5826   5.263   0.108   2.455  0.9498  0.3170 -0.3192
   69SAPC  H12A 5827   5.211   0.142   2.543 -2.5188 -1.7376 -1.3883
   69SAPC  H12B 5828   5.240   0.003   2.447  0.7685  0.3723 -0.5336
   69SAPC   C13 5829   5.464   0.038   2.557  0.1736 -0.2060 -0.2116
   69SAPC  H13A 5830   5.570   0.054   2.574  0.9789 -4.2530 -0.4112
   69SAPC  H13B 5831   5.415   0.040   2.653  1.0281  2.4361  0.2584
   69SAPC  H13C 5832   5.464  -0.061   2.513  1.1248  0.7583 -2.5476
   69SAPC   C14 5833   5.471   0.112   2.325  0.5280  0.3502 -0.3112
   69SAPC  H14A 5834   5.427   0.028   2.274 -1.1175  1.0679 -0.1213
   69SAPC  H14B 5835   5.463   0.202   2.267  0.7781  0.5534 -0.0323
   69SAPC  H14C 5836   5.578   0.099   2.335  0.3346 -0.7762  0.4999
   69SAPC   C15 5837   5.451   0.267   2.520  0.3154 -0.1783 -0.1243
   69SAPC  H15A 5838   5.432   0.270   2.626 -1.1685  0.9023 -0.3974
   69SAPC  H15B 5839   5.556   0.289   2.510  0.2713  0.3635  0.5784
   69SAPC  H15C 5840   5.399   0.353   2.482  1.8278  0.6969 -0.2993
   69SAPC   C11 5841   5.172   0.166   2.343 -0.1025  0.4671 -0.5399
   69SAPC  H11A 5842   5.068   0.128   2.352  0.2864 -0.1514  2.1286
   69SAPC  H11B 5843   5.217   0.137   2.245  0.3849  1.4301 -0.6105
   69SAPC     P 5844   5.114   0.388   2.468 -0.0590 -0.1931 -0.1160
   69SAPC   O13 5845   5.213   0.499   2.481  0.4275  0.3476 -0.0122
   69SAPC   O14 5846   4.973   0.424   2.435  0.0187  0.2426  0.2135
   69SAPC   O12 5847   5.167   0.299   2.352  0.2509  0.0732  0.3514
   69SAPC   O11 5848   5.107   0.310   2.601  0.2856  0.1164 -0.0733
   69SAPC    C1 5849   4.989   0.263   2.674 -0.4018  0.3537  0.0301
   69SAPC    HA 5850   4.909   0.340   2.684  0.1768  1.1024 -1.0317
   69SAPC    HB 5851   4.939   0.189   2.608  0.0976 -1.3364  1.4374
   69SAPC    C2 5852   5.006   0.184   2.811 -0.1543  0.3052 -0.1839
   69SAPC    HS 5853   5.084   0.240   2.868  1.6526 -1.5778 -0.6667
   69SAPC   O21 5854   5.059   0.051   2.783 -0.1372 -0.4395 -0.9298
   69SAPC   C21 5855   5.115  -0.005   2.886 -0.5018  0.3177 -0.8031
   69SAPC   O22 5856   5.140   0.047   2.993  0.1413 -0.1100  0.1787
   69SAPC   C22 5857   5.183  -0.138   2.832 -0.0481 -0.3840  0.3097
   69SAPC   H2R 5858   5.109  -0.216   2.802  1.5113 -1.9325  0.3433
   69SAPC   H2S 5859   5.235  -0.112   2.737 -1.1720 -0.5286 -0.3688
   69SAPC    C3 5860   4.864   0.177   2.892 -0.5515 -1.2816  0.8460
   69SAPC    HX 5861   4.804   0.104   2.833 -1.6303 -0.1684  0.5238
   69SAPC    HY 5862   4.811   0.273   2.873 -1.3390 -2.0713 -1.2498
   69SAPC   O31 5863   4.878   0.137   3.023  0.3682  0.3712 -0.2759
   69SAPC   C31 5864   4.879   0.227   3.119 -0.4645 -0.3579  0.4582
   69SAPC   O32 5865   4.857   0.345   3.098 -0.0442  0.1857 -0.1032
   69SAPC   C32 5866   4.905   0.164   3.255 -0.1087 -0.1969 -0.4032
   69SAPC   H2X 5867   4.988   0.207   3.314 -0.5452 -0.2143  0.2399
   69SAPC   H2Y 5868   4.916   0.055   3.236  0.4275 -0.0271 -1.1182
   69SAPC   C23 5869   5.281  -0.200   2.937 -0.5708 -1.2131  0.0698
   69SAPC   H3R 5870   5.318  -0.122   3.008 -1.6649  0.3288 -0.9954
   69SAPC   H3S 5871   5.376  -0.213   2.882  1.8087  0.4546  3.3856
   69SAPC   C24 5872   5.218  -0.318   3.006 -0.1750 -0.6084 -0.0448
   69SAPC   H4R 5873   5.186  -0.392   2.930 -1.5469 -1.8720  1.6593
   69SAPC   H4S 5874   5.123  -0.278   3.046  0.2785 -2.1307  2.8806
   69SAPC   C25 5875   5.304  -0.393   3.111  0.5195 -0.6350  0.1842
   69SAPC   H5R 5876   5.386  -0.447   3.061  0.2353 -0.0242 -0.9926
   69SAPC   C26 5877   5.282  -0.382   3.242  0.8943  0.0005 -0.0918
   69SAPC   H6R 5878   5.353  -0.432   3.309  2.1490  0.6002 -0.9310
   69SAPC   C27 5879   5.176  -0.302   3.316 -0.4799 -0.1281  0.5452
   69SAPC   H7R 5880   5.154  -0.343   3.417 -2.1396  1.0650  0.7003
   69SAPC   H7S 5881   5.074  -0.311   3.273 -0.3355 -1.9851  0.4987
   69SAPC   C28 5882   5.224  -0.162   3.325 -0.0246  0.3884  0.0230
   69SAPC   H8R 5883   5.232  -0.110   3.228  0.9465  0.2159 -0.0092
   69SAPC   C29 5884   5.267  -0.092   3.426 -0.0683 -0.0011 -0.2826
   69SAPC   H9R 5885   5.289   0.013   3.403  2.3418 -0.5023 -0.5586
   69SAPC  C210 5886   5.280  -0.140   3.569  0.3312 -0.4693 -0.7395
   69SAPC  H10R 5887   5.379  -0.107   3.607 -0.3448 -2.2333  3.0760
   69SAPC  H10S 5888   5.277  -0.250   3.579  0.5383 -0.3692  0.7633
   69SAPC  C211 5889   5.164  -0.095   3.650  0.1410  0.0684 -0.3101
   69SAPC  H11R 5890   5.088  -0.033   3.600 -1.6514 -2.7298 -1.2785
   69SAPC  C212 5891   5.136  -0.130   3.774 -0.0088  0.3443  0.0306
   69SAPC  H12R 5892   5.045  -0.087   3.816  0.3758 -0.5326  1.8526
   69SAPC  C213 5893   5.227  -0.208   3.870 -0.4095 -0.3458 -0.1276
   69SAPC  H13R 5894   5.276  -0.128   3.930 -3.3543  2.8161 -1.5833
   69SAPC  H13S 5895   5.311  -0.254   3.814  0.4220  0.8067  0.1239
   69SAPC  C214 5896   5.159  -0.320   3.935  0.0589 -0.4165  0.2975
   69SAPC  H14R 5897   5.140  -0.407   3.871 -0.0600 -0.1636 -0.0133
   69SAPC  C215 5898   5.104  -0.320   4.061  0.1468  0.1135  0.0867
   69SAPC  H15R 5899   5.054  -0.415   4.085  1.8162 -0.8442 -0.1000
   69SAPC  C216 5900   5.102  -0.222   4.170  0.2801  0.1260 -0.5566
   69SAPC  H16R 5901   5.133  -0.119   4.141 -2.5737  0.6730 -1.9612
   69SAPC  H16S 5902   5.168  -0.254   4.253 -0.5544 -0.0628  0.0471
   69SAPC  C217 5903   4.960  -0.223   4.236 -0.2930 -0.5981 -0.3247
   69SAPC  H17R 5904   4.927  -0.323   4.272 -1.1533  0.1971  1.1913
   69SAPC  H17S 5905   4.877  -0.193   4.168 -1.5046 -3.2220 -0.1209
   69SAPC  C218 5906   4.951  -0.125   4.358  0.7358  0.2690  0.2863
   69SAPC  H18R 5907   4.981  -0.018   4.347 -1.2475  1.0609  2.0662
   69SAPC  H18S 5908   5.024  -0.161   4.434 -1.2152 -0.1832  2.0386
   69SAPC  C219 5909   4.815  -0.098   4.419  0.2972 -0.5646 -0.0060
   69SAPC  H19R 5910   4.740  -0.071   4.342  0.1442  0.9901  0.6508
   69SAPC  H19S 5911   4.818  -0.022   4.500 -0.3677 -0.5462  0.0089
   69SAPC  C220 5912   4.763  -0.223   4.484  0.0616  0.3834 -0.0740
   69SAPC  H20R 5913   4.831  -0.275   4.554 -0.6817  0.3805  0.6601
   69SAPC  H20S 5914   4.729  -0.297   4.408 -0.9479 -0.1070  0.8308
   69SAPC  H20T 5915   4.670  -0.203   4.542 -0.6027 -2.1602 -0.1259
   69SAPC   C33 5916   4.782   0.183   3.358 -0.0043  0.5223  0.2424
   69SAPC   H3X 5917   4.689   0.158   3.302 -1.0631 -1.4025  2.6540
   69SAPC   H3Y 5918   4.770   0.288   3.393 -0.2081  0.2611  0.9656
   69SAPC   C34 5919   4.790   0.105   3.482 -0.1261  0.1735 -0.0511
   69SAPC   H4X 5920   4.889   0.131   3.526  0.0803 -0.4353 -0.1519
   69SAPC   H4Y 5921   4.804  -0.002   3.458 -1.1132 -0.1664  0.8309
   69SAPC   C35 5922   4.678   0.130   3.584  0.0090  0.4219 -0.1133
   69SAPC   H5X 5923   4.585   0.077   3.555 -0.4141  0.1342  1.6159
   69SAPC   H5Y 5924   4.671   0.241   3.577 -0.0924  0.3056 -2.3068
   69SAPC   C36 5925   4.726   0.087   3.719 -0.5555 -1.4985  0.5721
   69SAPC   H6X 5926   4.663   0.144   3.790  0.5716  2.0167 -1.0602
   69SAPC   H6Y 5927   4.832   0.120   3.724 -0.6256 -0.9470 -1.0199
   69SAPC   C37 5928   4.709  -0.061   3.738 -0.3202  0.5275  0.2062
   69SAPC   H7X 5929   4.783  -0.112   3.673  2.2363  0.7483  2.7627
   69SAPC   H7Y 5930   4.601  -0.082   3.726 -0.0626 -0.8931  0.1673
   69SAPC   C38 5931   4.749  -0.106   3.884  0.1590 -0.0517 -0.0486
   69SAPC   H8X 5932   4.850  -0.067   3.906  0.2678 -0.9726  1.1451
   69SAPC   H8Y 5933   4.757  -0.216   3.881 -0.7791 -0.1954  1.4976
   69SAPC   C39 5934   4.655  -0.057   4.000  0.2439  0.2706 -0.2520
   69SAPC   H9X 5935   4.663   0.054   3.993  0.4770  0.1744 -1.6037
   69SAPC   H9Y 5936   4.697  -0.085   4.099 -1.6337  1.4929  0.9720
   69SAPC  C310 5937   4.505  -0.096   3.985  0.2989 -0.3622 -0.8561
   69SAPC  H10X 5938   4.488  -0.206   3.990 -0.2216 -0.3068 -1.3632
   69SAPC  H10Y 5939   4.461  -0.059   3.890 -1.5455  0.0093  0.1036
   69SAPC  C311 5940   4.420  -0.048   4.100 -0.0885  0.0483  0.2697
   69SAPC  H11X 5941   4.318  -0.085   4.077  0.0946  1.4739 -3.6113
   69SAPC  H11Y 5942   4.419   0.063   4.103 -2.3784  0.0699  0.0670
   69SAPC  C312 5943   4.466  -0.098   4.238 -0.0613  0.1109 -0.5290
   69SAPC  H12X 5944   4.551  -0.032   4.268  0.9987  0.1592 -3.2731
   69SAPC  H12Y 5945   4.504  -0.201   4.224  2.9020  1.2038 -1.2763
   69SAPC  C313 5946   4.365  -0.092   4.352  0.3182  0.2908 -0.1574
   69SAPC  H13X 5947   4.405  -0.143   4.443  0.7399  1.2224  0.1899
   69SAPC  H13Y 5948   4.279  -0.154   4.320  2.0284 -0.8177 -2.9269
   69SAPC  C314 5949   4.327   0.048   4.401 -0.4939  0.2940  0.0969
   69SAPC  H14X 5950   4.303   0.124   4.324  0.2447 -0.1933 -0.6361
   69SAPC  H14Y 5951   4.418   0.086   4.453 -0.8015 -0.2764  1.0803
   69SAPC  C315 5952   4.221   0.055   4.510  0.0842  0.4931  0.3631
   69SAPC  H15X 5953   4.245   0.151   4.560  1.7780 -0.5581  1.6462
   69SAPC  H15Y 5954   4.238  -0.025   4.584 -0.7189  1.1961  1.3374
   69SAPC  C316 5955   4.075   0.054   4.460 -0.1651 -1.0711  0.2069
   69SAPC  H16X 5956   4.062  -0.035   4.395  1.5452  0.0804 -1.8283
   69SAPC  H16Y 5957   4.065   0.135   4.384  1.2745 -1.0200  0.0482
   69SAPC  C317 5958   3.969   0.081   4.569  0.0603 -0.1844  0.0687
   69SAPC  H17X 5959   3.877   0.129   4.531  0.9787  0.2093 -1.7882
   69SAPC  H17Y 5960   4.014   0.147   4.646  2.4822 -1.4194 -0.1887
   69SAPC  C318 5961   3.935  -0.055   4.631 -0.0843 -0.6609 -0.1737
   69SAPC  H18X 5962   4.032  -0.104   4.655 -0.9074 -2.5015 -0.3951
   69SAPC  H18Y 5963   3.885  -0.117   4.553  0.3847 -1.1541 -0.0941
   69SAPC  H18Z 5964   3.871  -0.046   4.721  0.2769 -0.1169  0.0344
   70SAPC     N 5965   6.541   1.169   2.259 -0.1765 -0.3995  0.7685
   70SAPC   C12 5966   6.444   1.098   2.350 -0.1715 -0.1945 -0.6367
   70SAPC  H12A 5967   6.463   0.993   2.334 -0.4065 -0.8688  2.7301
   70SAPC  H12B 5968   6.341   1.126   2.338  0.0812  2.3141  1.9201
   70SAPC   C13 5969   6.684   1.120   2.271 -0.1619  0.2422 -0.4668
   70SAPC  H13A 5970   6.689   1.017   2.242  1.1305  0.6608 -1.8603
   70SAPC  H13B 5971   6.750   1.182   2.212  1.1717 -0.0996  0.6130
   70SAPC  H13C 5972   6.723   1.132   2.372  1.2822 -0.1105 -0.9623
   70SAPC   C14 5973   6.486   1.156   2.123 -0.3990  0.0113 -0.4042
   70SAPC  H14A 5974   6.555   1.190   2.047 -0.9258 -1.4127 -1.5710
   70SAPC  H14B 5975   6.483   1.050   2.101  0.4464 -0.4845  1.5833
   70SAPC  H14C 5976   6.395   1.212   2.108 -2.6502 -2.7361  1.6966
   70SAPC   C15 5977   6.538   1.315   2.302  0.1058 -0.2108  1.1763
   70SAPC  H15A 5978   6.602   1.374   2.238 -1.5921  1.0750  0.6215
   70SAPC  H15B 5979   6.435   1.345   2.297 -0.4514 -2.1911 -1.8695
   70SAPC  H15C 5980   6.585   1.332   2.398  3.3634 -0.5182 -0.2118
   70SAPC   C11 5981   6.462   1.119   2.507  0.1287  0.1556  0.6415
   70SAPC  H11A 5982   6.361   1.080   2.531 -1.0211  0.9533 -2.4950
   70SAPC  H11B 5983   6.465   1.228   2.526  4.1628  0.3134  0.0396
   70SAPC     P 5984   6.597   0.901   2.547 -0.1757 -0.0886  0.2336
   70SAPC   O13 5985   6.492   0.830   2.464  0.3112 -0.2735 -0.5101
   70SAPC   O14 5986   6.728   0.898   2.480  0.3861 -0.0010  0.4843
   70SAPC   O12 5987   6.572   1.056   2.572  0.2744 -0.6758 -0.3240
   70SAPC   O11 5988   6.603   0.834   2.687  0.2453 -0.2680  0.4369
   70SAPC    C1 5989   6.663   0.895   2.799 -0.0311  0.3026 -0.0099
   70SAPC    HA 5990   6.704   0.998   2.789  0.7758  0.3028  2.5529
   70SAPC    HB 5991   6.582   0.908   2.874 -0.8942  1.0604 -1.0245
   70SAPC    C2 5992   6.783   0.802   2.853  0.5295 -0.6681  0.4554
   70SAPC    HS 5993   6.836   0.766   2.763  1.6393 -1.6653  1.4662
   70SAPC   O21 5994   6.718   0.693   2.918  0.5532 -0.5599 -0.6993
   70SAPC   C21 5995   6.804   0.602   2.955  0.3537  0.2748  0.5655
   70SAPC   O22 5996   6.919   0.595   2.914 -0.2769 -0.1814 -0.3499
   70SAPC   C22 5997   6.746   0.514   3.066 -0.0967  0.1514 -0.4298
   70SAPC   H2R 5998   6.762   0.405   3.049 -0.1462 -0.3363  2.1766
   70SAPC   H2S 5999   6.781   0.550   3.165 -2.7656  0.0356  0.6626
   70SAPC    C3 6000   6.880   0.893   2.936  0.1015  0.0991  0.8866
   70SAPC    HX 6001   6.928   0.962   2.863 -1.9150  0.3747 -0.2359
   70SAPC    HY 6002   6.962   0.823   2.965  0.9312  0.5410 -0.2941
   70SAPC   O31 6003   6.820   0.968   3.041  0.1049  0.4063 -0.3458
   70SAPC   C31 6004   6.824   0.912   3.160  0.1024  0.7864  0.7110
   70SAPC   O32 6005   6.881   0.808   3.189  0.1883 -0.5912  0.5613
   70SAPC   C32 6006   6.750   0.996   3.260 -0.3451  0.3915 -0.3498
   70SAPC   H2X 6007   6.656   1.025   3.209 -0.5313 -0.2684 -0.3873
   70SAPC   H2Y 6008   6.806   1.087   3.290  0.1263  0.5356 -1.6434
   70SAPC   C23 6009   6.583   0.526   3.087  0.1695 -0.0616 -0.0583
   70SAPC   H3R 6010   6.529   0.496   2.994  1.4872 -0.2263 -0.8018
   70SAPC   H3S 6011   6.548   0.627   3.117 -1.4799 -0.7794  0.5513
   70SAPC   C24 6012   6.519   0.428   3.190  0.2078  0.2155  0.0406
   70SAPC   H4R 6013   6.532   0.326   3.149  0.6748  0.0750  0.5148
   70SAPC   H4S 6014   6.409   0.434   3.204  0.1643  1.5858 -0.6965
   70SAPC   C25 6015   6.580   0.456   3.320  0.3213 -0.2055 -0.1954
   70SAPC   H5R 6016   6.680   0.410   3.322  0.7348  0.6912  0.9257
   70SAPC   C26 6017   6.526   0.528   3.425 -0.8452 -0.6897  0.0434
   70SAPC   H6R 6018   6.591   0.540   3.512  0.3191 -0.0185 -0.8966
   70SAPC   C27 6019   6.381   0.570   3.446  0.4432 -0.4857  0.1923
   70SAPC   H7R 6020   6.330   0.491   3.505 -0.9657  0.8984  0.9001
   70SAPC   H7S 6021   6.328   0.573   3.349 -0.5577 -2.2784  0.6547
   70SAPC   C28 6022   6.383   0.702   3.520 -0.0322 -1.1702 -0.0339
   70SAPC   H8R 6023   6.441   0.786   3.477  1.5771 -0.5571  3.0607
   70SAPC   C29 6024   6.343   0.723   3.646 -0.2561 -0.0695  0.4290
   70SAPC   H9R 6025   6.340   0.825   3.687 -3.2133  0.0581  0.1151
   70SAPC  C210 6026   6.266   0.631   3.738  0.1630 -0.3258  0.0590
   70SAPC  H10R 6027   6.248   0.530   3.696 -0.7842 -0.5735  0.9932
   70SAPC  H10S 6028   6.168   0.684   3.748  0.3874 -0.2925  3.1713
   70SAPC  C211 6029   6.331   0.628   3.871  0.4680 -0.0574 -0.7053
   70SAPC  H11R 6030   6.426   0.573   3.879  0.3745 -0.0809  0.3927
   70SAPC  C212 6031   6.306   0.711   3.969 -0.8577 -0.7038 -0.5557
   70SAPC  H12R 6032   6.373   0.700   4.056  1.0287 -1.1423 -1.9973
   70SAPC  C213 6033   6.197   0.813   3.995 -0.1129  0.9836  0.5097
   70SAPC  H13R 6034   6.102   0.756   3.989 -0.0232  0.3911  3.3543
   70SAPC  H13S 6035   6.210   0.889   3.915  2.8460 -1.6135 -1.7442
   70SAPC  C214 6036   6.203   0.862   4.137 -0.1182 -0.7993 -0.8560
   70SAPC  H14R 6037   6.223   0.966   4.168 -0.1525 -0.9797 -0.2275
   70SAPC  C215 6038   6.168   0.795   4.245  0.2565  0.4630 -0.0266
   70SAPC  H15R 6039   6.183   0.847   4.341  2.1362  3.1057 -1.5972
   70SAPC  C216 6040   6.115   0.655   4.256  0.1141  0.2435 -0.1830
   70SAPC  H16R 6041   6.193   0.587   4.296 -1.4985  0.1789  3.2024
   70SAPC  H16S 6042   6.072   0.615   4.162  0.0453 -0.2950  0.0731
   70SAPC  C217 6043   6.012   0.652   4.371  0.2852  0.6351 -0.2652
   70SAPC  H17R 6044   5.962   0.552   4.364  2.6285 -0.6410  0.2137
   70SAPC  H17S 6045   5.940   0.736   4.370  1.6863  1.8652 -0.6907
   70SAPC  C218 6046   6.072   0.653   4.515  0.3409 -0.3003 -0.4292
   70SAPC  H18R 6047   6.140   0.738   4.533  1.0799 -1.2603  1.5458
   70SAPC  H18S 6048   6.138   0.564   4.519  0.9924  0.2333  1.8421
   70SAPC  C219 6049   5.965   0.659   4.620  0.0167  0.0837 -0.0793
   70SAPC  H19R 6050   5.876   0.598   4.594 -0.8656  1.1291  0.4001
   70SAPC  H19S 6051   5.935   0.765   4.604  0.0676  0.2732  1.0248
   70SAPC  C220 6052   6.018   0.643   4.758  0.3289  0.6873 -0.5689
   70SAPC  H20R 6053   5.942   0.686   4.828 -0.4251 -1.2450 -0.1432
   70SAPC  H20S 6054   6.116   0.692   4.778  0.1081  0.5303  1.0209
   70SAPC  H20T 6055   6.043   0.542   4.797  0.1220  1.3473  1.4258
   70SAPC   C33 6056   6.731   0.921   3.398  0.2811 -0.3131  0.9642
   70SAPC   H3X 6057   6.827   0.901   3.450  1.3191  2.3172  0.2094
   70SAPC   H3Y 6058   6.676   0.829   3.369  0.7541 -0.5602  0.8541
   70SAPC   C34 6059   6.644   0.984   3.506 -0.2196 -0.1683  0.9631
   70SAPC   H4X 6060   6.709   1.053   3.564  0.2458 -0.0878  0.3543
   70SAPC   H4Y 6061   6.597   0.911   3.575 -1.5837 -1.0451 -0.7784
   70SAPC   C35 6062   6.532   1.070   3.441  0.0476 -0.7527 -0.5505
   70SAPC   H5X 6063   6.477   1.010   3.365 -0.3963 -0.8888 -0.1225
   70SAPC   H5Y 6064   6.570   1.164   3.396 -0.8104  1.2729  2.6419
   70SAPC   C36 6065   6.430   1.122   3.550  0.3008  0.1024 -0.3996
   70SAPC   H6X 6066   6.482   1.185   3.625  0.0977 -0.5052  0.2632
   70SAPC   H6Y 6067   6.393   1.032   3.605 -0.7528  0.5620 -0.3263
   70SAPC   C37 6068   6.310   1.197   3.495  0.2831 -0.0189  0.1909
   70SAPC   H7X 6069   6.342   1.296   3.455 -0.2045  0.0829  0.0441
   70SAPC   H7Y 6070   6.272   1.129   3.416 -1.3302  0.0653  0.8511
   70SAPC   C38 6071   6.197   1.222   3.594 -0.3945  0.4106  0.0379
   70SAPC   H8X 6072   6.136   1.303   3.549  0.8275  0.6448 -1.2767
   70SAPC   H8Y 6073   6.249   1.267   3.681 -0.0856  0.3046 -0.0865
   70SAPC   C39 6074   6.110   1.101   3.619  0.7074 -0.2811  0.3858
   70SAPC   H9X 6075   6.163   1.004   3.634 -0.3314 -1.1679 -1.2156
   70SAPC   H9Y 6076   6.047   1.085   3.528  2.8849  2.0365 -1.6970
   70SAPC  C310 6077   6.010   1.114   3.740  0.2244  0.6565 -0.3499
   70SAPC  H10X 6078   5.933   1.193   3.724  0.3647  0.4803 -2.0240
   70SAPC  H10Y 6079   6.076   1.136   3.827  2.0976  2.1117 -2.0603
   70SAPC  C311 6080   5.923   0.989   3.777 -0.1647  0.4513  0.3416
   70SAPC  H11X 6081   5.993   0.904   3.761  0.2877  0.5568  1.6126
   70SAPC  H11Y 6082   5.840   0.979   3.705  1.3050  0.6381 -1.4558
   70SAPC  C312 6083   5.883   0.974   3.923 -0.0699 -0.6204  0.7519
   70SAPC  H12X 6084   5.817   1.058   3.952 -0.6119 -0.6162 -0.4244
   70SAPC  H12Y 6085   5.971   0.974   3.990 -0.1776 -2.8980  0.9892
   70SAPC  C313 6086   5.810   0.843   3.957  0.5676  0.0945  0.3758
   70SAPC  H13X 6087   5.876   0.759   3.925  0.6811  0.0388  0.7510
   70SAPC  H13Y 6088   5.715   0.829   3.902  1.6444 -1.3989 -1.2385
   70SAPC  C314 6089   5.791   0.810   4.112 -0.5336 -0.4848 -0.1471
   70SAPC  H14X 6090   5.885   0.787   4.167 -0.9902 -0.3628  0.7084
   70SAPC  H14Y 6091   5.730   0.718   4.107 -2.1647  0.6024 -1.4426
   70SAPC  C315 6092   5.707   0.917   4.182 -0.2853 -0.1836 -0.7229
   70SAPC  H15X 6093   5.611   0.914   4.126 -1.9524 -2.7885  2.0019
   70SAPC  H15Y 6094   5.761   1.015   4.183  0.3231 -0.4727  1.9740
   70SAPC  C316 6095   5.673   0.891   4.330  0.4286  0.0716  0.6812
   70SAPC  H16X 6096   5.772   0.862   4.373  1.2302 -1.8923 -2.1973
   70SAPC  H16Y 6097   5.618   0.795   4.334  0.7316 -0.1323  0.1571
   70SAPC  C317 6098   5.605   1.010   4.400  0.1742 -0.4569 -0.1970
   70SAPC  H17X 6099   5.505   1.015   4.351 -0.0701  0.0124  0.3357
   70SAPC  H17Y 6100   5.662   1.103   4.381  0.8812 -0.5509  1.3231
   70SAPC  C318 6101   5.586   0.991   4.549  0.3797 -0.0474  0.3824
   70SAPC  H18X 6102   5.510   0.913   4.574  0.8096 -0.8097 -0.5999
   70SAPC  H18Y 6103   5.553   1.087   4.593  2.9260  1.2166 -0.2852
   70SAPC  H18Z 6104   5.683   0.959   4.592  0.3122 -2.8314 -1.2610
   71SAPC     N 6105   0.044   4.826   2.265  0.0585  0.2342  0.4891
   71SAPC   C12 6106  -0.092   4.776   2.324 -0.6562 -0.1733 -0.2390
   71SAPC  H12A 6107  -0.172   4.812   2.262  1.1426 -0.8261 -3.1049
   71SAPC  H12B 6108  -0.093   4.822   2.422 -0.8651 -1.7731  0.5572
   71SAPC   C13 6109   0.165   4.764   2.320 -0.1094 -0.0251  0.3344
   71SAPC  H13A 6110   0.166   4.765   2.428  0.6086 -2.9535  0.4266
   71SAPC  H13B 6111   0.162   4.657   2.311  1.0191 -0.0789  0.4529
   71SAPC  H13C 6112   0.254   4.816   2.287 -0.5738 -0.5647 -1.9150
   71SAPC   C14 6113   0.041   4.805   2.114 -0.2561  0.4655 -0.4677
   71SAPC  H14A 6114  -0.053   4.842   2.077 -1.8941 -1.9764  1.0038
   71SAPC  H14B 6115   0.132   4.841   2.067  1.7242 -3.7368 -0.3721
   71SAPC  H14C 6116   0.044   4.697   2.105  2.0679  0.4937 -0.8297
   71SAPC   C15 6117   0.066   4.975   2.302  0.2479  1.1273  0.0177
   71SAPC  H15A 6118   0.151   5.021   2.253  1.1059  0.8890  1.2403
   71SAPC  H15B 6119  -0.020   5.037   2.285  1.2129  3.1284  1.8179
   71SAPC  H15C 6120   0.083   4.970   2.409 -2.5721  1.1076  0.5245
   71SAPC   C11 6121  -0.120   4.621   2.341  0.3829 -0.1976 -0.4091
   71SAPC  H11A 6122  -0.126   4.578   2.239 -0.7313  1.3243 -1.0203
   71SAPC  H11B 6123  -0.223   4.633   2.380  0.9788  2.6057  0.5628
   71SAPC     P 6124  -0.005   4.564   2.574  0.1199 -0.4467 -0.2392
   71SAPC   O13 6125   0.015   4.708   2.595  0.1119 -1.1060 -0.0854
   71SAPC   O14 6126  -0.116   4.499   2.645  0.0701  0.1997  0.3871
   71SAPC   O12 6127  -0.025   4.553   2.421 -0.3308 -0.3991 -0.5766
   71SAPC   O11 6128   0.124   4.471   2.583 -0.8970 -0.0513  0.0133
   71SAPC    C1 6129   0.247   4.522   2.641  0.4643  0.1786  0.4596
   71SAPC    HA 6130   0.336   4.481   2.588 -0.7266 -4.1842  1.3872
   71SAPC    HB 6131   0.254   4.632   2.628 -0.1673  0.2433  0.6412
   71SAPC    C2 6132   0.252   4.492   2.794 -0.3895 -0.5490 -0.0016
   71SAPC    HS 6133   0.228   4.384   2.798 -0.2427 -0.5521  1.6578
   71SAPC   O21 6134   0.157   4.588   2.851  0.0440 -0.2997  0.0324
   71SAPC   C21 6135   0.088   4.532   2.949 -0.6214 -0.2306  0.0306
   71SAPC   O22 6136   0.099   4.417   2.982  0.2490 -0.3738 -0.5101
   71SAPC   C22 6137  -0.005   4.637   3.014 -0.1469  0.2510  0.2315
   71SAPC   H2R 6138   0.037   4.740   3.008  0.5926  0.0125  1.1171
   71SAPC   H2S 6139  -0.100   4.646   2.957  0.6537  0.3482 -1.1298
   71SAPC    C3 6140   0.396   4.507   2.861  0.3993 -0.5482  0.4353
   71SAPC    HX 6141   0.471   4.442   2.811  1.4880 -1.0180  2.5698
   71SAPC    HY 6142   0.375   4.458   2.958 -3.3646  0.5573  0.3388
   71SAPC   O31 6143   0.440   4.643   2.889  0.3332  1.4264 -0.0135
   71SAPC   C31 6144   0.515   4.698   2.802 -0.0589 -0.1124 -0.2579
   71SAPC   O32 6145   0.568   4.648   2.705  0.2592  0.0699  0.3456
   71SAPC   C32 6146   0.540   4.841   2.868  0.4504 -0.2655  0.4578
   71SAPC   H2X 6147   0.474   4.915   2.818  1.2364 -1.1579 -2.0694
   71SAPC   H2Y 6148   0.643   4.862   2.831  0.3671 -0.7538 -0.0751
   71SAPC   C23 6149  -0.036   4.588   3.152  0.1392 -0.7634 -0.6319
   71SAPC   H3R 6150  -0.079   4.486   3.156 -1.0453 -0.2496  1.3125
   71SAPC   H3S 6151  -0.125   4.649   3.181  0.2367 -0.6270 -0.6216
   71SAPC   C24 6152   0.064   4.615   3.258 -0.3890 -0.5139 -0.3203
   71SAPC   H4R 6153   0.159   4.558   3.251 -0.3033 -0.6020  1.2533
   71SAPC   H4S 6154   0.021   4.592   3.358  0.7928  1.6425  0.7516
   71SAPC   C25 6155   0.103   4.762   3.257 -0.4610  0.3980  0.2403
   71SAPC   H5R 6156   0.148   4.785   3.159  0.9132  1.6604  1.1252
   71SAPC   C26 6157   0.084   4.858   3.346 -0.0584 -0.7684  0.1973
   71SAPC   H6R 6158   0.123   4.958   3.320  1.8899 -1.2749  0.9789
   71SAPC   C27 6159   0.037   4.843   3.489 -0.2562 -0.2312 -0.2007
   71SAPC   H7R 6160   0.119   4.872   3.558 -0.9633  1.9355 -0.1875
   71SAPC   H7S 6161   0.009   4.738   3.513  0.2972 -0.3450 -0.0327
   71SAPC   C28 6162  -0.079   4.942   3.496 -0.3292  0.0112 -0.3225
   71SAPC   H8R 6163  -0.171   4.906   3.449 -0.0341 -1.1467 -0.0423
   71SAPC   C29 6164  -0.068   5.075   3.522  0.0566 -0.9221 -0.1298
   71SAPC   H9R 6165  -0.137   5.157   3.495  3.4788  2.5493  0.6952
   71SAPC  C210 6166   0.065   5.141   3.552  0.2563  0.5575 -0.0953
   71SAPC  H10R 6167   0.058   5.245   3.515  0.5233 -0.1470 -2.2252
   71SAPC  H10S 6168   0.150   5.089   3.503  0.2688  0.2844  0.2143
   71SAPC  C211 6169   0.089   5.160   3.703 -0.3578  0.1201 -1.1667
   71SAPC  H11R 6170  -0.000   5.203   3.750 -0.9014  0.0635 -2.1050
   71SAPC  C212 6171   0.191   5.113   3.773 -0.1186 -0.1331 -0.0098
   71SAPC  H12R 6172   0.176   5.123   3.882  0.7013 -2.4626  0.3644
   71SAPC  C213 6173   0.318   5.054   3.713  0.2475  0.0190 -0.0575
   71SAPC  H13R 6174   0.377   5.134   3.663 -0.2406  0.4358  0.0290
   71SAPC  H13S 6175   0.296   4.997   3.619  1.5814  3.1876 -2.4578
   71SAPC  C214 6176   0.396   4.972   3.806  0.2367  0.6237 -0.6374
   71SAPC  H14R 6177   0.385   4.863   3.798  2.9486  0.2743 -0.7591
   71SAPC  C215 6178   0.458   5.016   3.914 -0.1574 -0.0553 -0.3600
   71SAPC  H15R 6179   0.522   4.945   3.969  0.9081 -0.1151 -1.6122
   71SAPC  C216 6180   0.488   5.162   3.954 -0.3393  0.5358  0.2987
   71SAPC  H16R 6181   0.445   5.232   3.879  2.1729 -2.1472 -4.0882
   71SAPC  H16S 6182   0.597   5.183   3.955 -0.9324  4.1904  1.6239
   71SAPC  C217 6183   0.435   5.197   4.088 -0.2113  0.4157 -0.5117
   71SAPC  H17R 6184   0.324   5.195   4.089 -0.2993  1.7408 -2.4063
   71SAPC  H17S 6185   0.466   5.304   4.084  1.0745  0.2241  2.0321
   71SAPC  C218 6186   0.502   5.124   4.210  0.3474  0.5391  0.3105
   71SAPC  H18R 6187   0.519   5.017   4.186  3.3127  0.5865  1.7324
   71SAPC  H18S 6188   0.432   5.128   4.295  0.1212  0.4299  0.1294
   71SAPC  C219 6189   0.625   5.201   4.252 -0.0720 -0.3110  0.3831
   71SAPC  H19R 6190   0.591   5.304   4.273 -0.6004 -0.8294  2.2072
   71SAPC  H19S 6191   0.680   5.212   4.156 -3.0302  2.2366 -1.2093
   71SAPC  C220 6192   0.701   5.127   4.370  0.8623  0.3022  0.4225
   71SAPC  H20R 6193   0.789   5.192   4.390  0.2021  1.7460 -1.0755
   71SAPC  H20S 6194   0.731   5.023   4.349  0.0249 -0.0660  1.0049
   71SAPC  H20T 6195   0.642   5.122   4.464  0.1724  2.0764  0.1328
   71SAPC   C33 6196   0.511   4.847   3.020 -0.5045 -0.1387 -0.3175
   71SAPC   H3X 6197   0.423   4.785   3.046  1.5072 -2.1907  2.2315
   71SAPC   H3Y 6198   0.499   4.952   3.055  1.0657 -0.0280 -0.0084
   71SAPC   C34 6199   0.630   4.788   3.103  0.0618  0.1182  1.2574
   71SAPC   H4X 6200   0.643   4.688   3.056 -4.7185  0.0797 -0.5957
   71SAPC   H4Y 6201   0.599   4.787   3.210 -1.3172  0.9506  0.8985
   71SAPC   C35 6202   0.766   4.865   3.098  0.2461 -0.2932 -0.2230
   71SAPC   H5X 6203   0.756   4.975   3.113 -0.2366 -0.3864  0.1793
   71SAPC   H5Y 6204   0.813   4.850   2.999  1.5980  1.8173  0.0445
   71SAPC   C36 6205   0.862   4.794   3.201 -0.0453 -0.3793 -0.3288
   71SAPC   H6X 6206   0.867   4.683   3.194  0.6175 -0.2752 -2.3754
   71SAPC   H6Y 6207   0.829   4.807   3.306  1.5979  0.2661  0.1400
   71SAPC   C37 6208   1.012   4.845   3.195 -0.4777 -0.0267  0.9856
   71SAPC   H7X 6209   1.022   4.941   3.249 -0.4802 -0.8035  2.4210
   71SAPC   H7Y 6210   1.043   4.859   3.089  1.3807 -1.1469  1.3289
   71SAPC   C38 6211   1.114   4.758   3.268 -0.8536  0.5216 -1.2915
   71SAPC   H8X 6212   1.210   4.812   3.280  1.2557 -2.9549 -1.2115
   71SAPC   H8Y 6213   1.137   4.666   3.210 -1.8569 -0.9909  0.5864
   71SAPC   C39 6214   1.071   4.723   3.410 -0.2564  1.0753 -0.4944
   71SAPC   H9X 6215   0.972   4.675   3.424  0.4381 -0.1351  0.3499
   71SAPC   H9Y 6216   1.069   4.820   3.465 -0.0561  0.0648  1.3846
   71SAPC  C310 6217   1.177   4.651   3.503  0.0751  0.6993  0.6724
   71SAPC  H10X 6218   1.273   4.671   3.451 -0.0390  0.6447  0.4401
   71SAPC  H10Y 6219   1.161   4.542   3.490 -0.7741  1.0117 -1.1816
   71SAPC  C311 6220   1.163   4.691   3.650 -0.2304 -0.1103  0.3812
   71SAPC  H11X 6221   1.057   4.686   3.682 -0.2038  0.0016  0.4911
   71SAPC  H11Y 6222   1.185   4.799   3.669 -0.7883 -0.2000  1.6156
   71SAPC  C312 6223   1.252   4.600   3.742 -0.1028  0.4401  0.0307
   71SAPC  H12X 6224   1.359   4.629   3.734 -0.1784  0.2249 -2.6099
   71SAPC  H12Y 6225   1.245   4.497   3.702  4.8466  0.6307 -2.1452
   71SAPC  C313 6226   1.210   4.596   3.889 -0.3875  0.4288  0.0802
   71SAPC  H13X 6227   1.257   4.510   3.942  0.0443  2.7382  3.8851
   71SAPC  H13Y 6228   1.099   4.594   3.888 -0.4207  1.6225  0.0673
   71SAPC  C314 6229   1.277   4.710   3.966  0.3173 -0.0021  0.3547
   71SAPC  H14X 6230   1.208   4.796   3.952 -1.1131 -1.0246  0.7920
   71SAPC  H14Y 6231   1.383   4.722   3.938  0.3616  1.0828  0.9335
   71SAPC  C315 6232   1.282   4.688   4.119 -0.0217 -0.1833  0.2773
   71SAPC  H15X 6233   1.349   4.603   4.143 -0.3746 -0.5656 -0.0771
   71SAPC  H15Y 6234   1.184   4.664   4.165  0.7894 -0.7293  1.7994
   71SAPC  C316 6235   1.333   4.814   4.185 -0.1008 -0.4776 -0.6463
   71SAPC  H16X 6236   1.258   4.895   4.178 -0.2420 -0.5767 -0.2976
   71SAPC  H16Y 6237   1.420   4.852   4.128 -0.7856  1.4814 -0.4575
   71SAPC  C317 6238   1.380   4.778   4.328 -0.5162 -0.4992  0.2149
   71SAPC  H17X 6239   1.440   4.868   4.352  2.6251 -2.4367  0.1516
   71SAPC  H17Y 6240   1.445   4.690   4.311  1.3596  1.1108 -1.3587
   71SAPC  C318 6241   1.268   4.739   4.432 -0.1836 -0.3203  0.1377
   71SAPC  H18X 6242   1.189   4.816   4.435  0.8807  0.8067 -0.1283
   71SAPC  H18Y 6243   1.309   4.723   4.534  0.9589 -0.2722 -0.2882
   71SAPC  H18Z 6244   1.225   4.641   4.400  1.1772 -1.1994  0.8901
   72SAPC     N 6245   5.631   2.927   2.479  1.0065 -0.1582 -0.4273
   72SAPC   C12 6246   5.677   2.866   2.613 -0.8526  0.1631  0.8979
   72SAPC  H12A 6247   5.637   2.766   2.620 -1.3299  0.3008  0.2110
   72SAPC  H12B 6248   5.629   2.924   2.691 -2.3919  0.4276 -0.2001
   72SAPC   C13 6249   5.657   2.843   2.364  0.8193  0.5331  0.3981
   72SAPC  H13A 6250   5.763   2.836   2.345  1.2109 -0.6559  2.6266
   72SAPC  H13B 6251   5.631   2.742   2.394  0.2811  0.8463  0.9934
   72SAPC  H13C 6252   5.612   2.883   2.275  2.5394 -0.8242 -1.1816
   72SAPC   C14 6253   5.477   2.937   2.478 -0.0228 -0.4234  0.3908
   72SAPC  H14A 6254   5.437   2.995   2.560  0.4570  0.1408  0.2353
   72SAPC  H14B 6255   5.438   2.986   2.389 -0.1915 -0.2755  0.5452
   72SAPC  H14C 6256   5.440   2.836   2.480 -0.5324 -0.3040 -1.4387
   72SAPC   C15 6257   5.685   3.064   2.465  0.2459  0.4951  0.5302
   72SAPC  H15A 6258   5.626   3.119   2.393 -1.0328 -0.9760  0.3886
   72SAPC  H15B 6259   5.681   3.127   2.552 -3.4004 -0.1491  0.9926
   72SAPC  H15C 6260   5.783   3.063   2.420  0.2164  1.5627  0.4165
   72SAPC   C11 6261   5.829   2.856   2.636  0.8348 -0.4945 -0.6610
   72SAPC  H11A 6262   5.850   2.848   2.745 -1.3614  1.7211  0.0048
   72SAPC  H11B 6263   5.888   2.949   2.623  1.2506 -0.4726  1.1559
   72SAPC     P 6264   5.909   2.603   2.607 -0.2096  0.4189 -0.1877
   72SAPC   O13 6265   5.882   2.505   2.499 -0.4792 -0.2049  0.2949
   72SAPC   O14 6266   6.053   2.601   2.656 -0.3772  0.1476  0.4007
   72SAPC   O12 6267   5.883   2.752   2.558  0.0486  0.3399 -0.0781
   72SAPC   O11 6268   5.806   2.577   2.718 -0.7572  0.2943  0.5860
   72SAPC    C1 6269   5.853   2.576   2.849 -0.5345 -0.4433  0.6210
   72SAPC    HA 6270   5.909   2.483   2.870 -1.1002 -1.5619 -2.4017
   72SAPC    HB 6271   5.920   2.662   2.871  2.7800 -2.7809  0.4057
   72SAPC    C2 6272   5.743   2.573   2.957  0.3770 -0.8365  0.0963
   72SAPC    HS 6273   5.676   2.487   2.934  1.0818 -0.9074 -1.8965
   72SAPC   O21 6274   5.664   2.700   2.953  0.2322  0.1926  0.4758
   72SAPC   C21 6275   5.550   2.683   3.014  0.9179  1.2619  0.0358
   72SAPC   O22 6276   5.506   2.579   3.057  0.2714 -0.3977 -0.0519
   72SAPC   C22 6277   5.483   2.818   3.043 -0.1376  0.3950  0.0513
   72SAPC   H2R 6278   5.555   2.899   3.065  0.9270 -0.7713  1.0436
   72SAPC   H2S 6279   5.427   2.842   2.950 -3.5895 -1.1522  1.5640
   72SAPC    C3 6280   5.818   2.566   3.095  0.3547  0.4831 -0.0398
   72SAPC    HX 6281   5.737   2.561   3.171 -0.7547  0.9318 -1.1568
   72SAPC    HY 6282   5.874   2.661   3.110  1.6515  0.0530 -1.8054
   72SAPC   O31 6283   5.920   2.466   3.107  0.4287  0.7255 -0.7910
   72SAPC   C31 6284   5.887   2.339   3.124 -0.1676  0.3974  0.0143
   72SAPC   O32 6285   5.770   2.304   3.134  0.0198 -0.0469  0.5794
   72SAPC   C32 6286   6.008   2.246   3.151  0.0629  0.3352  0.0732
   72SAPC   H2X 6287   6.100   2.308   3.157  0.5939 -0.3620 -0.7635
   72SAPC   H2Y 6288   6.019   2.183   3.061 -1.1794  0.5858 -0.2840
   72SAPC   C23 6289   5.378   2.812   3.158 -0.2641 -0.2917 -0.1730
   72SAPC   H3R 6290   5.443   2.787   3.245 -0.4261 -1.1666 -0.2970
   72SAPC   H3S 6291   5.312   2.723   3.155  0.4282 -0.9898  2.4564
   72SAPC   C24 6292   5.306   2.949   3.178  0.4097  0.1505  0.2684
   72SAPC   H4R 6293   5.251   2.966   3.083 -0.4986 -0.3368  0.6928
   72SAPC   H4S 6294   5.388   3.024   3.178 -0.6144  1.2991  0.8035
   72SAPC   C25 6295   5.225   2.964   3.310  0.0319 -0.1610 -0.2044
   72SAPC   H5R 6296   5.119   2.934   3.310 -0.0513  0.1114 -1.1880
   72SAPC   C26 6297   5.276   3.019   3.421  1.3263 -0.1683 -0.1143
   72SAPC   H6R 6298   5.206   3.022   3.506  0.6957  0.7372 -0.6535
   72SAPC   C27 6299   5.411   3.063   3.458 -0.0958  0.2745  0.4251
   72SAPC   H7R 6300   5.483   3.025   3.382 -1.7686 -1.0600 -0.5503
   72SAPC   H7S 6301   5.445   3.008   3.548 -1.9785 -0.5129  0.7040
   72SAPC   C28 6302   5.428   3.214   3.472  0.3724 -0.2620  0.7384
   72SAPC   H8R 6303   5.377   3.271   3.393  1.4299  1.5198  1.2757
   72SAPC   C29 6304   5.488   3.282   3.572  0.2755 -0.0081  0.3562
   72SAPC   H9R 6305   5.492   3.392   3.562  1.0450 -0.0964 -0.3586
   72SAPC  C210 6306   5.543   3.239   3.701  0.0779  0.2064 -0.4407
   72SAPC  H10R 6307   5.507   3.137   3.727 -0.9403  0.3361 -1.2825
   72SAPC  H10S 6308   5.500   3.302   3.781 -1.2358  1.9751 -2.4246
   72SAPC  C211 6309   5.695   3.240   3.714  0.6685 -0.5400 -0.3278
   72SAPC  H11R 6310   5.745   3.305   3.641 -1.4628  0.2458 -1.1765
   72SAPC  C212 6311   5.767   3.196   3.818  0.1296  0.0249  0.4914
   72SAPC  H12R 6312   5.876   3.212   3.821  0.0646  0.3583  1.0808
   72SAPC  C213 6313   5.719   3.114   3.930  0.2951  0.4178 -0.9108
   72SAPC  H13R 6314   5.777   3.020   3.934 -0.3102  0.0317 -1.2070
   72SAPC  H13S 6315   5.611   3.092   3.918  0.0308  1.9126 -1.5641
   72SAPC  C214 6316   5.754   3.196   4.050  0.1648  0.9664 -0.4987
   72SAPC  H14R 6317   5.862   3.207   4.065 -0.1333  0.7349  2.5344
   72SAPC  C215 6318   5.663   3.263   4.127 -1.3404  1.0208  0.8389
   72SAPC  H15R 6319   5.713   3.313   4.211 -1.2705  1.4827  0.5277
   72SAPC  C216 6320   5.516   3.258   4.120  0.2425 -0.7577  0.2014
   72SAPC  H16R 6321   5.480   3.156   4.096 -1.0479  0.1910 -2.4334
   72SAPC  H16S 6322   5.469   3.315   4.036  2.1993  0.5299 -0.0763
   72SAPC  C217 6323   5.443   3.293   4.251 -0.3170  0.0332  0.1581
   72SAPC  H17R 6324   5.332   3.287   4.251 -0.2621 -2.5540  1.3987
   72SAPC  H17S 6325   5.467   3.398   4.278  0.0299 -0.2522  0.9837
   72SAPC  C218 6326   5.483   3.203   4.368  0.3337 -0.0745 -0.4457
   72SAPC  H18R 6327   5.472   3.258   4.464  1.4920 -1.2095  0.3696
   72SAPC  H18S 6328   5.591   3.180   4.368  0.4696  0.4640  0.7977
   72SAPC  C219 6329   5.388   3.090   4.405 -0.4585  0.1712  0.6280
   72SAPC  H19R 6330   5.361   3.027   4.317  1.1494 -1.8919  1.5317
   72SAPC  H19S 6331   5.292   3.131   4.442 -2.2340 -0.6205 -2.6837
   72SAPC  C220 6332   5.434   2.998   4.518  0.0656  0.0618  0.5847
   72SAPC  H20R 6333   5.377   2.903   4.523 -0.2959  0.2945  0.8258
   72SAPC  H20S 6334   5.444   3.034   4.622 -1.7708 -0.8321  1.1134
   72SAPC  H20T 6335   5.538   2.973   4.487  1.1544  3.1041  1.4583
   72SAPC   C33 6336   5.998   2.161   3.279 -0.2193 -0.3209  0.1470
   72SAPC   H3X 6337   6.037   2.059   3.261 -3.6090 -1.6806 -0.2367
   72SAPC   H3Y 6338   5.894   2.122   3.291  0.2387 -1.0047  2.3852
   72SAPC   C34 6339   6.035   2.240   3.405  0.0251  0.6044 -0.8317
   72SAPC   H4X 6340   5.974   2.330   3.427 -0.7314 -0.3687  1.2576
   72SAPC   H4Y 6341   6.140   2.278   3.401  0.2328  0.1305 -0.1569
   72SAPC   C35 6342   6.009   2.156   3.535  0.4796 -0.3991 -0.7065
   72SAPC   H5X 6343   6.090   2.083   3.556 -0.4428 -0.6176  2.6054
   72SAPC   H5Y 6344   5.921   2.097   3.502  0.0715  0.8414 -1.9459
   72SAPC   C36 6345   5.978   2.238   3.668  0.0479  0.5775 -0.2089
   72SAPC   H6X 6346   5.883   2.295   3.655 -0.2719  0.1834  0.3329
   72SAPC   H6Y 6347   6.055   2.313   3.695 -1.6423  2.2076  0.3463
   72SAPC   C37 6348   5.959   2.139   3.788 -0.3453 -0.3623  0.7444
   72SAPC   H7X 6349   6.056   2.085   3.800 -1.1299 -1.5200  2.1618
   72SAPC   H7Y 6350   5.883   2.066   3.752  1.2487  0.3206 -4.9933
   72SAPC   C38 6351   5.928   2.212   3.926  0.0941  0.9247  0.9220
   72SAPC   H8X 6352   6.029   2.247   3.957  2.0313 -0.5333 -3.0777
   72SAPC   H8Y 6353   5.903   2.133   4.000  2.4935  1.0543  1.9730
   72SAPC   C39 6354   5.822   2.316   3.928  0.8347  0.1816 -0.6646
   72SAPC   H9X 6355   5.717   2.284   3.939  0.1015  2.9699  2.5022
   72SAPC   H9Y 6356   5.826   2.383   3.840 -1.3678  0.8341 -0.3345
   72SAPC  C310 6357   5.838   2.416   4.046 -0.0661  0.4370 -0.3206
   72SAPC  H10X 6358   5.934   2.472   4.040 -0.0628  0.6123  1.0793
   72SAPC  H10Y 6359   5.833   2.372   4.148 -1.1730  1.1236 -0.0596
   72SAPC  C311 6360   5.734   2.529   4.054  0.4533  0.4858 -0.5583
   72SAPC  H11X 6361   5.640   2.489   4.098  0.4782  1.5125  0.5033
   72SAPC  H11Y 6362   5.699   2.561   3.954 -1.6475 -1.5733 -0.5699
   72SAPC  C312 6363   5.785   2.636   4.150 -0.4016  0.4515  0.3879
   72SAPC  H12X 6364   5.867   2.679   4.090  0.7436  0.7766  2.1101
   72SAPC  H12Y 6365   5.830   2.608   4.248 -2.8588 -1.4323  1.1081
   72SAPC  C313 6366   5.687   2.757   4.167 -0.2851  0.1631 -0.2373
   72SAPC  H13X 6367   5.611   2.723   4.241 -0.6359  2.0939  0.3471
   72SAPC  H13Y 6368   5.640   2.762   4.067 -2.3871 -1.7507  0.5733
   72SAPC  C314 6369   5.753   2.886   4.220  0.1753 -0.1809 -0.4157
   72SAPC  H14X 6370   5.668   2.957   4.219  1.2941  1.1930  0.2520
   72SAPC  H14Y 6371   5.815   2.928   4.138 -0.7801  2.8006  0.2947
   72SAPC  C315 6372   5.825   2.879   4.351 -1.0300 -0.7198 -0.4084
   72SAPC  H15X 6373   5.896   2.794   4.361  0.2928  0.3318 -0.6089
   72SAPC  H15Y 6374   5.752   2.875   4.434 -1.4053 -1.7898 -0.7690
   72SAPC  C316 6375   5.921   2.996   4.377 -0.1343  0.2550  0.4888
   72SAPC  H16X 6376   5.867   3.090   4.353  0.1582 -0.3947 -3.3608
   72SAPC  H16Y 6377   6.014   2.985   4.317 -0.3241 -0.4456  0.3078
   72SAPC  C317 6378   5.942   3.016   4.529  0.2183  0.9569  0.2885
   72SAPC  H17X 6379   6.022   3.094   4.533  1.3217 -0.1950  1.8373
   72SAPC  H17Y 6380   5.985   2.924   4.575  1.6153  1.7447  0.6362
   72SAPC  C318 6381   5.816   3.069   4.608  0.0813  0.1510  0.3675
   72SAPC  H18X 6382   5.738   2.992   4.624 -0.2459  0.8327  2.3454
   72SAPC  H18Y 6383   5.764   3.153   4.557 -0.6175 -0.6958 -0.3330
   72SAPC  H18Z 6384   5.841   3.113   4.707 -0.9813 -0.0167  0.7143
   73SLPC     N 6385   1.641   1.153   7.266 -0.3628  0.7476 -0.1520
   73SLPC   C13 6386   1.590   1.288   7.284 -0.4788  0.0671 -0.1227
   73SLPC  H13A 6387   1.587   1.315   7.389  1.2611 -1.4258  0.3748
   73SLPC  H13B 6388   1.658   1.360   7.240  2.0138 -1.1358  1.5034
   73SLPC  H13C 6389   1.496   1.307   7.236 -0.8526 -1.5723 -0.1027
   73SLPC   C14 6390   1.763   1.135   7.337  0.2639 -0.2623 -0.0250
   73SLPC  H14A 6391   1.840   1.199   7.297  1.1606  0.4527  2.6163
   73SLPC  H14B 6392   1.747   1.169   7.439  1.9069  0.4328  0.0320
   73SLPC  H14C 6393   1.782   1.029   7.337 -1.0381 -0.5897  2.7888
   73SLPC   C15 6394   1.649   1.118   7.120 -0.6166  0.0514  0.1771
   73SLPC  H15A 6395   1.721   1.178   7.066 -0.4760 -0.0630  0.2392
   73SLPC  H15B 6396   1.661   1.012   7.107 -0.1339  0.0746  0.4054
   73SLPC  H15C 6397   1.553   1.141   7.075  0.8672  1.9793 -2.2062
   73SLPC   C12 6398   1.539   1.057   7.326 -0.0264 -0.1874  0.5716
   73SLPC  H12A 6399   1.447   1.066   7.270 -0.0451 -1.3569  0.3879
   73SLPC  H12B 6400   1.516   1.091   7.426  0.1776 -0.0070  0.5571
   73SLPC   C11 6401   1.570   0.903   7.325  0.0786  0.2290  0.0795
   73SLPC  H11A 6402   1.489   0.848   7.377 -1.7225  1.7911 -0.9433
   73SLPC  H11B 6403   1.664   0.876   7.379  2.1772  2.1574 -2.3383
   73SLPC     P 6404   1.492   0.749   7.133 -0.0250  0.0259 -0.2516
   73SLPC   O13 6405   1.518   0.622   7.209  0.2328  0.0136 -0.1504
   73SLPC   O14 6406   1.351   0.790   7.139 -0.0590  0.3240  0.4171
   73SLPC   O12 6407   1.591   0.862   7.191 -0.1645  0.7267  0.3289
   73SLPC   O11 6408   1.544   0.733   6.981  0.2039  0.1957  0.0769
   73SLPC    C1 6409   1.600   0.839   6.911 -0.0424  0.5132  0.6312
   73SLPC    HA 6410   1.524   0.916   6.887 -0.5744 -0.4181 -0.7982
   73SLPC    HB 6411   1.687   0.886   6.960  0.3617 -0.4250  0.8482
   73SLPC    C2 6412   1.640   0.799   6.762  0.2620 -0.6911 -0.0567
   73SLPC    HS 6413   1.686   0.892   6.723  0.9795 -0.7289  0.6854
   73SLPC   O21 6414   1.535   0.742   6.683 -0.0313 -0.2419 -0.2452
   73SLPC   C21 6415   1.465   0.834   6.622  0.2578  0.8307 -0.3040
   73SLPC   O22 6416   1.484   0.953   6.613  0.2893 -0.7811  0.4550
   73SLPC   C22 6417   1.353   0.774   6.547 -0.3627 -0.7812 -0.0327
   73SLPC   H2R 6418   1.364   0.664   6.534 -1.1161 -0.5013 -4.8324
   73SLPC   H2S 6419   1.259   0.787   6.605  1.5358  0.6988  2.9316
   73SLPC    C3 6420   1.753   0.694   6.778 -0.2125  0.2229  0.6365
   73SLPC    HX 6421   1.733   0.627   6.865  2.2907  0.5224  1.5362
   73SLPC    HY 6422   1.846   0.746   6.809 -1.1250  0.2666  3.6645
   73SLPC   O31 6423   1.777   0.624   6.654  0.1204  0.5336 -0.0949
   73SLPC   C31 6424   1.756   0.495   6.644 -0.9812  0.2184 -0.6414
   73SLPC   O32 6425   1.701   0.421   6.726  0.0037  0.1988  0.9139
   73SLPC   C32 6426   1.810   0.441   6.517  0.2238 -0.0736 -0.3377
   73SLPC   H2X 6427   1.792   0.333   6.497 -1.1346  0.0638  0.0740
   73SLPC   H2Y 6428   1.916   0.470   6.499 -0.3161  1.7232 -0.8196
   73SLPC   C23 6429   1.340   0.835   6.404 -0.7177  0.2766 -0.5183
   73SLPC   H3R 6430   1.320   0.943   6.420 -1.4721 -0.1922  2.3948
   73SLPC   H3S 6431   1.267   0.775   6.346  1.0671  1.0075 -3.8003
   73SLPC   C24 6432   1.466   0.810   6.321 -0.2350 -0.2211 -0.1101
   73SLPC   H4R 6433   1.469   0.700   6.312  1.3486 -0.4561  2.2799
   73SLPC   H4S 6434   1.560   0.835   6.375 -0.3320 -1.2106  0.5457
   73SLPC   C25 6435   1.452   0.866   6.190 -0.3064  0.1013  0.5095
   73SLPC   H5R 6436   1.490   0.969   6.171  2.0056 -0.5433  1.2235
   73SLPC   H5S 6437   1.349   0.853   6.151 -0.0797  0.6105 -0.2999
   73SLPC   C26 6438   1.537   0.780   6.094  0.9439 -0.4324 -0.4583
   73SLPC   H6R 6439   1.510   0.673   6.105  0.1537  0.0388  4.0401
   73SLPC   H6S 6440   1.646   0.787   6.117  0.8836 -1.3776  0.1567
   73SLPC   C27 6441   1.520   0.841   5.953  0.0642 -0.1236 -0.0771
   73SLPC   H7R 6442   1.551   0.947   5.957  0.0688 -0.1063 -0.4944
   73SLPC   H7S 6443   1.413   0.857   5.927 -0.1643  1.1888  1.5187
   73SLPC   C28 6444   1.592   0.756   5.843  0.0076  0.0162 -0.1208
   73SLPC   H8R 6445   1.519   0.678   5.813 -2.1735  1.2366  1.7157
   73SLPC   H8S 6446   1.689   0.717   5.882  0.1042 -1.4049 -1.6812
   73SLPC   C29 6447   1.629   0.837   5.725 -0.0119  0.1263 -0.3676
   73SLPC   H9R 6448   1.676   0.930   5.759 -0.2097 -0.4830  1.6615
   73SLPC  C210 6449   1.597   0.836   5.596  0.5918 -0.0993  0.1840
   73SLPC  H10R 6450   1.636   0.918   5.533 -0.7085  0.9005  0.6483
   73SLPC  C211 6451   1.527   0.729   5.511  0.5846 -0.7975 -0.2302
   73SLPC  H11R 6452   1.448   0.676   5.568 -0.5962  0.1909 -0.8929
   73SLPC  H11S 6453   1.614   0.665   5.483  0.4266 -1.6355  1.1254
   73SLPC  C212 6454   1.446   0.768   5.387 -0.7323  0.5521  0.1397
   73SLPC  H12R 6455   1.339   0.742   5.385 -0.1391 -2.1154 -1.2927
   73SLPC  C213 6456   1.496   0.811   5.272  0.3491 -0.0559 -0.2457
   73SLPC  H13R 6457   1.424   0.835   5.192 -0.4886  0.8670  0.7482
   73SLPC  C214 6458   1.640   0.848   5.245 -0.1387  0.7225 -0.1870
   73SLPC  H14R 6459   1.704   0.815   5.330  0.2074 -3.8845 -1.9511
   73SLPC  H14S 6460   1.651   0.958   5.255 -0.2928  0.7553 -0.3780
   73SLPC  C215 6461   1.692   0.811   5.106  0.0832 -0.1518  0.1777
   73SLPC  H15R 6462   1.607   0.826   5.036 -1.6293 -0.2673  2.1160
   73SLPC  H15S 6463   1.721   0.704   5.109 -0.2949 -0.2611  0.0267
   73SLPC  C216 6464   1.818   0.884   5.059  0.0771 -0.3508  0.4640
   73SLPC  H16R 6465   1.898   0.879   5.136 -0.5520  1.2265  1.2627
   73SLPC  H16S 6466   1.800   0.991   5.034 -1.4844 -0.7315 -0.1565
   73SLPC  C217 6467   1.874   0.815   4.937  0.3314  0.7087 -0.1190
   73SLPC  H17R 6468   1.867   0.704   4.943  3.0077  0.2836 -2.7241
   73SLPC  H17S 6469   1.982   0.839   4.931  0.7381 -1.0864 -0.6092
   73SLPC  C218 6470   1.812   0.873   4.815  0.5791 -0.2030  0.1184
   73SLPC  H18R 6471   1.875   0.859   4.725 -1.1082 -1.5793 -0.8946
   73SLPC  H18S 6472   1.784   0.981   4.825 -0.3079 -0.1282 -2.4381
   73SLPC  H18T 6473   1.724   0.808   4.796  1.0420 -1.2176  1.3041
   73SLPC   C33 6474   1.745   0.500   6.396  0.1321 -0.3946  0.0331
   73SLPC   H3X 6475   1.743   0.611   6.392 -1.8896 -0.4407 -2.2191
   73SLPC   H3Y 6476   1.642   0.461   6.406 -0.4511  1.2399  0.6444
   73SLPC   C34 6477   1.827   0.451   6.275  0.4928  0.8369  0.7667
   73SLPC   H4X 6478   1.841   0.341   6.280  0.6746  0.8557  0.6905
   73SLPC   H4Y 6479   1.932   0.489   6.278  1.1849 -0.9388  0.5106
   73SLPC   C35 6480   1.748   0.478   6.151  0.3837 -0.0118  0.4537
   73SLPC   H5X 6481   1.744   0.588   6.135  1.7413 -0.2151 -1.7301
   73SLPC   H5Y 6482   1.647   0.433   6.159  0.1279  0.2607 -0.9738
   73SLPC   C36 6483   1.826   0.406   6.034  0.2315  0.7022 -0.3418
   73SLPC   H6X 6484   1.838   0.299   6.058 -1.2818  0.5339 -0.2016
   73SLPC   H6Y 6485   1.924   0.458   6.039  1.0417 -0.4953 -2.4543
   73SLPC   C37 6486   1.769   0.414   5.894  0.4814 -0.3378  0.8897
   73SLPC   H7X 6487   1.724   0.515   5.902 -0.9391 -0.9242  0.6549
   73SLPC   H7Y 6488   1.688   0.338   5.882  1.3164 -0.8904 -2.1825
   73SLPC   C38 6489   1.869   0.405   5.772 -0.4412 -0.8795  0.3046
   73SLPC   H8X 6490   1.925   0.309   5.780  2.5806  0.8726  2.5976
   73SLPC   H8Y 6491   1.940   0.490   5.781 -0.5270 -0.9927  2.4969
   73SLPC   C39 6492   1.795   0.418   5.645 -0.4922 -0.4259  0.2463
   73SLPC   H9X 6493   1.734   0.510   5.636  1.2856  0.6293 -1.8478
   73SLPC   H9Y 6494   1.724   0.332   5.652 -0.4362 -0.3521  2.1759
   73SLPC  C310 6495   1.879   0.402   5.512  0.9025  0.3177  0.3590
   73SLPC  H10X 6496   1.811   0.384   5.426  0.2659 -0.3115  0.9896
   73SLPC  H10Y 6497   1.932   0.305   5.519 -0.8621 -0.7566 -0.4625
   73SLPC  C311 6498   1.988   0.505   5.484  0.2476  0.2431  0.5511
   73SLPC  H11X 6499   2.062   0.465   5.412 -1.1355  0.1375 -0.8730
   73SLPC  H11Y 6500   2.041   0.523   5.580 -0.2366 -3.0572  1.5814
   73SLPC  C312 6501   1.948   0.636   5.422  0.2573  0.2098  0.0425
   73SLPC  H12X 6502   1.883   0.701   5.484 -0.7011  0.1973 -0.9303
   73SLPC  H12Y 6503   1.884   0.612   5.335  0.7860 -0.8333 -0.0772
   73SLPC  C313 6504   2.070   0.715   5.382  0.2402 -0.4947  0.6424
   73SLPC  H13X 6505   2.141   0.711   5.467 -1.1933 -1.4180  1.8401
   73SLPC  H13Y 6506   2.053   0.822   5.355 -2.1005 -0.8947  0.3359
   73SLPC  C314 6507   2.130   0.658   5.253 -0.4600  0.0539 -0.1658
   73SLPC  H14X 6508   2.056   0.653   5.171 -0.4588  0.8717 -0.2248
   73SLPC  H14Y 6509   2.180   0.559   5.258  1.7334  1.1334  0.5891
   73SLPC  C315 6510   2.251   0.750   5.198 -0.4973  0.3687 -0.6536
   73SLPC  H15X 6511   2.313   0.791   5.281  0.1305 -0.7682 -0.5385
   73SLPC  H15Y 6512   2.194   0.835   5.156 -2.4173 -1.6718 -2.4081
   73SLPC  C316 6513   2.339   0.670   5.098 -0.8023 -0.0548  0.1227
   73SLPC  H16X 6514   2.261   0.618   5.037  0.1965 -4.2129  2.0361
   73SLPC  H16Y 6515   2.395   0.592   5.153  0.7563  0.6954 -0.3547
   73SLPC  C317 6516   2.432   0.761   5.012  0.0660 -0.0239 -0.0836
   73SLPC  H17X 6517   2.488   0.826   5.082  2.3096 -0.6690 -1.2071
   73SLPC  H17Y 6518   2.357   0.826   4.962 -0.6497 -1.2505 -0.6738
   73SLPC  C318 6519   2.523   0.682   4.914  0.1910  0.0013 -0.3124
   73SLPC  H18X 6520   2.587   0.764   4.874  1.7788  0.1266  2.2425
   73SLPC  H18Y 6521   2.462   0.621   4.845 -2.1259  0.8689  0.8723
   73SLPC  H18Z 6522   2.581   0.612   4.979  0.2561 -0.7824 -1.1933
   74SLPC     N 6523   6.072   0.731   7.008  0.3433  0.3306  0.2829
   74SLPC   C13 6524   5.976   0.786   6.904 -0.1011  0.0851 -0.4489
   74SLPC  H13A 6525   5.926   0.697   6.866 -0.0818 -1.0405  1.9633
   74SLPC  H13B 6526   5.909   0.854   6.953 -0.9361 -0.5045 -0.7495
   74SLPC  H13C 6527   6.024   0.849   6.830  2.2730 -1.2662 -0.1595
   74SLPC   C14 6528   6.014   0.603   7.081 -0.2872 -0.7552  0.1518
   74SLPC  H14A 6529   5.992   0.523   7.011 -0.9838 -1.9309  1.6433
   74SLPC  H14B 6530   6.078   0.566   7.159 -0.0214 -2.7082 -0.9239
   74SLPC  H14C 6531   5.914   0.636   7.108 -1.0449 -1.0224 -2.1022
   74SLPC   C15 6532   6.116   0.826   7.105 -0.2960 -0.3479 -0.2964
   74SLPC  H15A 6533   6.034   0.843   7.172  0.0797  2.0039 -0.3534
   74SLPC  H15B 6534   6.182   0.777   7.175 -1.1076 -1.6576 -0.4194
   74SLPC  H15C 6535   6.158   0.912   7.055 -0.3236 -0.7437 -1.0236
   74SLPC   C12 6536   6.203   0.682   6.939  0.2092 -0.1096  0.1413
   74SLPC  H12A 6537   6.271   0.636   7.009  1.5466  0.6363 -0.6116
   74SLPC  H12B 6538   6.260   0.770   6.911  0.1417 -0.5782 -1.6041
   74SLPC   C11 6539   6.196   0.593   6.815  0.0274  0.0012  0.5774
   74SLPC  H11A 6540   6.300   0.577   6.782  0.6639 -0.1023  2.4796
   74SLPC  H11B 6541   6.148   0.663   6.743  1.9268  0.5661 -0.1946
   74SLPC     P 6542   6.158   0.345   6.755  0.3309 -0.0603 -0.1109
   74SLPC   O13 6543   6.291   0.301   6.810 -0.5660  0.1655  0.2003
   74SLPC   O14 6544   6.053   0.244   6.767  0.6150 -0.3307 -0.7613
   74SLPC   O12 6545   6.122   0.472   6.837 -0.0596 -0.2553 -0.7396
   74SLPC   O11 6546   6.179   0.396   6.606 -0.0116  0.0066 -0.8194
   74SLPC    C1 6547   6.292   0.342   6.531 -0.1229  0.4515 -0.4182
   74SLPC    HA 6548   6.317   0.237   6.555 -0.9848  0.3078 -0.1238
   74SLPC    HB 6549   6.264   0.354   6.424 -0.2742  3.0142 -0.1608
   74SLPC    C2 6550   6.422   0.424   6.548  0.4818  0.0520 -0.5865
   74SLPC    HS 6551   6.458   0.434   6.653  0.1591  0.0163 -0.4703
   74SLPC   O21 6552   6.394   0.558   6.499  0.1331  0.1496  0.8860
   74SLPC   C21 6553   6.480   0.648   6.533  0.1601 -0.3036  0.4035
   74SLPC   O22 6554   6.568   0.644   6.618  0.3988 -0.3771  0.0481
   74SLPC   C22 6555   6.456   0.770   6.436  0.0485 -0.5157  0.1539
   74SLPC   H2R 6556   6.361   0.742   6.385  0.5313 -4.2667  1.0368
   74SLPC   H2S 6557   6.448   0.856   6.506 -3.4559 -0.3677 -0.2357
   74SLPC    C3 6558   6.538   0.372   6.464  0.3759  0.3180 -0.1553
   74SLPC    HX 6559   6.559   0.266   6.492  0.0863  0.2730 -0.1052
   74SLPC    HY 6560   6.636   0.418   6.490 -0.0979  1.2494  0.0335
   74SLPC   O31 6561   6.515   0.384   6.323 -0.2698  0.1191  0.3050
   74SLPC   C31 6562   6.465   0.279   6.261  0.1698  0.0956  0.2011
   74SLPC   O32 6563   6.429   0.174   6.309  1.0189 -0.3355 -0.4162
   74SLPC   C32 6564   6.483   0.296   6.108  0.2905 -0.3735 -0.2371
   74SLPC   H2X 6565   6.500   0.194   6.069  1.0501 -0.8698  1.3170
   74SLPC   H2Y 6566   6.580   0.347   6.092  1.4039 -2.2698  0.1786
   74SLPC   C23 6567   6.566   0.786   6.327 -0.4284 -0.5038 -0.7116
   74SLPC   H3R 6568   6.595   0.691   6.278 -1.6510 -1.7674  0.9077
   74SLPC   H3S 6569   6.649   0.848   6.367  0.8297 -1.5955 -1.5847
   74SLPC   C24 6570   6.499   0.871   6.215 -0.7432 -0.1098 -0.1043
   74SLPC   H4R 6571   6.423   0.943   6.252 -1.6153 -0.2855 -1.4916
   74SLPC   H4S 6572   6.441   0.809   6.144 -0.6737  0.3512 -0.5612
   74SLPC   C25 6573   6.615   0.947   6.134  1.2528  0.0625  0.1498
   74SLPC   H5R 6574   6.681   0.999   6.207  1.4301  1.0664 -0.6924
   74SLPC   H5S 6575   6.568   1.026   6.071  0.0593  0.4153  1.4274
   74SLPC   C26 6576   6.705   0.856   6.055  0.7267  0.1504 -0.5623
   74SLPC   H6R 6577   6.658   0.787   5.982  0.7896 -0.1198 -0.3481
   74SLPC   H6S 6578   6.757   0.793   6.130 -0.3052  0.1640  0.1945
   74SLPC   C27 6579   6.820   0.924   5.979 -0.1163 -0.9420 -1.3245
   74SLPC   H7R 6580   6.866   0.841   5.920 -1.8489 -2.7786 -0.2258
   74SLPC   H7S 6581   6.896   0.959   6.051 -3.4228  0.5526  1.7502
   74SLPC   C28 6582   6.774   1.013   5.868 -0.5703 -0.4618  0.3890
   74SLPC   H8R 6583   6.691   1.081   5.897 -0.6374 -0.5410  0.3842
   74SLPC   H8S 6584   6.711   0.959   5.794 -2.0765 -1.0741  2.0250
   74SLPC   C29 6585   6.882   1.093   5.803  0.1158  0.0043  0.4548
   74SLPC   H9R 6586   6.917   1.178   5.863  0.6877  1.6520 -2.0500
   74SLPC  C210 6587   6.942   1.085   5.679  0.0780 -0.3211  1.1284
   74SLPC  H10R 6588   7.019   1.157   5.649 -0.9116 -0.9127 -3.5447
   74SLPC  C211 6589   6.908   0.979   5.573 -0.8713  0.0206 -0.6550
   74SLPC  H11R 6590   6.803   1.002   5.542 -1.3402  0.4145  1.1283
   74SLPC  H11S 6591   6.916   0.882   5.626  1.4927  0.7561  0.4517
   74SLPC  C212 6592   7.008   1.000   5.460  0.1832  0.5520  0.2969
   74SLPC  H12R 6593   7.068   0.909   5.444 -1.6522 -0.7373  0.4160
   74SLPC  C213 6594   7.007   1.096   5.367 -0.1434 -0.3149 -0.7312
   74SLPC  H13R 6595   7.088   1.089   5.292  1.2255  0.9039  0.5797
   74SLPC  C214 6596   6.920   1.224   5.365  0.0554  0.5081 -1.0347
   74SLPC  H14R 6597   6.970   1.311   5.412 -1.4370  0.2874  1.1017
   74SLPC  H14S 6598   6.828   1.200   5.422  1.3648 -0.8434  0.5917
   74SLPC  C215 6599   6.872   1.264   5.227 -0.2208 -0.0419 -0.4197
   74SLPC  H15R 6600   6.790   1.337   5.240 -2.1767 -2.6382  3.9484
   74SLPC  H15S 6601   6.823   1.181   5.171 -1.4871 -0.1360  0.7912
   74SLPC  C216 6602   6.986   1.315   5.144  0.2976  1.0585  0.8744
   74SLPC  H16R 6603   7.058   1.232   5.124  0.6108  1.3504  0.7716
   74SLPC  H16S 6604   7.045   1.394   5.196  1.8136  0.5219  0.0587
   74SLPC  C217 6605   6.935   1.385   5.022  0.2693  0.4910 -0.9809
   74SLPC  H17R 6606   6.850   1.452   5.045 -0.5857 -1.1541  1.0127
   74SLPC  H17S 6607   6.898   1.305   4.954  0.1550  0.0457 -0.4064
   74SLPC  C218 6608   7.040   1.469   4.948  0.6594  0.1336 -0.5553
   74SLPC  H18R 6609   7.131   1.405   4.936  2.0262  1.4202  2.1652
   74SLPC  H18S 6610   7.055   1.561   5.008  0.2119 -0.4112  0.4205
   74SLPC  H18T 6611   6.998   1.503   4.851 -1.4067 -0.5927  0.0265
   74SLPC   C33 6612   6.364   0.385   6.039  0.0682  0.3643 -0.3654
   74SLPC   H3X 6613   6.358   0.473   6.106  3.1990  0.0364  0.5060
   74SLPC   H3Y 6614   6.272   0.324   6.055  2.5876 -3.9380 -0.8337
   74SLPC   C34 6615   6.375   0.421   5.891 -0.4010  0.9828  0.1988
   74SLPC   H4X 6616   6.278   0.462   5.854 -0.1090  0.9585 -0.6056
   74SLPC   H4Y 6617   6.402   0.334   5.828 -0.5033  0.5881  0.6926
   74SLPC   C35 6618   6.486   0.527   5.859 -0.2949 -0.3023  0.0801
   74SLPC   H5X 6619   6.583   0.478   5.880  0.6331  1.6151  0.4921
   74SLPC   H5Y 6620   6.470   0.620   5.918  0.3153 -1.3244  1.9269
   74SLPC   C36 6621   6.482   0.559   5.706 -0.3940  0.1671 -0.8220
   74SLPC   H6X 6622   6.379   0.554   5.666 -1.0610  0.1780  0.8329
   74SLPC   H6Y 6623   6.541   0.484   5.650 -0.7410  0.3708 -1.4674
   74SLPC   C37 6624   6.543   0.701   5.687 -0.1434  0.3125 -0.2669
   74SLPC   H7X 6625   6.635   0.704   5.749 -0.1866  0.6279 -0.2206
   74SLPC   H7Y 6626   6.467   0.770   5.730  0.3263  1.5524 -1.3751
   74SLPC   C38 6627   6.572   0.744   5.546 -1.1684  0.5732  0.6944
   74SLPC   H8X 6628   6.599   0.851   5.561  1.9160 -0.1242  0.6981
   74SLPC   H8Y 6629   6.478   0.741   5.487 -0.8667  0.1699  0.2325
   74SLPC   C39 6630   6.696   0.678   5.487 -0.4798 -0.5829  0.0822
   74SLPC   H9X 6631   6.696   0.567   5.477 -0.4017 -0.8375  2.3785
   74SLPC   H9Y 6632   6.783   0.714   5.546 -0.9988 -0.5589  0.8405
   74SLPC  C310 6633   6.719   0.751   5.345 -0.3409  0.1978 -0.8693
   74SLPC  H10X 6634   6.726   0.861   5.358  2.4463 -0.1314  1.2859
   74SLPC  H10Y 6635   6.628   0.748   5.280 -1.6246  2.1491  0.7337
   74SLPC  C311 6636   6.835   0.700   5.264 -0.3762  0.2188 -0.3218
   74SLPC  H11X 6637   6.835   0.591   5.241  1.5511  0.0207  0.4358
   74SLPC  H11Y 6638   6.926   0.723   5.323  1.4453  0.5555 -3.0836
   74SLPC  C312 6639   6.837   0.774   5.131 -0.9937 -0.2075  0.0755
   74SLPC  H12X 6640   6.870   0.880   5.139  2.2849 -1.0374 -0.9933
   74SLPC  H12Y 6641   6.730   0.786   5.102 -0.3715  0.5674 -2.0661
   74SLPC  C313 6642   6.924   0.706   5.018 -0.3666  0.0779 -0.4470
   74SLPC  H13X 6643   6.890   0.602   4.999  0.9318 -0.5809  0.6008
   74SLPC  H13Y 6644   7.031   0.691   5.044  0.8979  0.0517 -4.8804
   74SLPC  C314 6645   6.920   0.796   4.891  0.2162  0.1725  0.9697
   74SLPC  H14X 6646   6.812   0.795   4.865  0.7382  2.4047 -1.8023
   74SLPC  H14Y 6647   6.968   0.732   4.814  0.0957 -0.6461  1.5601
   74SLPC  C315 6648   6.985   0.933   4.899  0.3867 -0.0041  0.1371
   74SLPC  H15X 6649   7.078   0.910   4.956 -0.5505  0.4080  1.9282
   74SLPC  H15Y 6650   6.928   1.004   4.963  1.0633  2.6887 -2.0956
   74SLPC  C316 6651   6.995   0.992   4.763 -0.1048 -0.0655  0.5383
   74SLPC  H16X 6652   6.897   1.037   4.735 -0.8878 -0.3431  2.6007
   74SLPC  H16Y 6653   7.022   0.913   4.691  2.7404  1.6135 -0.4056
   74SLPC  C317 6654   7.109   1.092   4.751 -0.0845  0.3059  0.0714
   74SLPC  H17X 6655   7.209   1.045   4.761  1.3689  3.0957 -0.0919
   74SLPC  H17Y 6656   7.105   1.164   4.835  0.5800 -1.2836  1.5267
   74SLPC  C318 6657   7.101   1.165   4.615  0.0003  0.5317  0.4978
   74SLPC  H18X 6658   7.088   1.099   4.527  0.5076  2.4205 -1.0811
   74SLPC  H18Y 6659   7.194   1.226   4.604 -0.1088  0.8830  1.3929
   74SLPC  H18Z 6660   7.017   1.237   4.621 -0.4058  0.0549  0.5198
   75SLPC     N 6661   0.360   0.184   7.412  0.5773  0.0976 -0.1947
   75SLPC   C13 6662   0.314   0.328   7.396  0.1803  0.5243  0.4762
   75SLPC  H13A 6663   0.210   0.324   7.366  0.6396  0.1782 -1.1582
   75SLPC  H13B 6664   0.321   0.396   7.480  4.5074  2.5888 -1.2633
   75SLPC  H13C 6665   0.365   0.366   7.309  1.1810 -0.5484  0.5820
   75SLPC   C14 6666   0.346   0.134   7.555 -0.3029  0.6315 -0.2268
   75SLPC  H14A 6667   0.406   0.193   7.623  2.2906 -0.8164 -1.1220
   75SLPC  H14B 6668   0.242   0.128   7.584 -0.5064 -2.1589 -1.2539
   75SLPC  H14C 6669   0.389   0.035   7.551  1.6213  1.4717 -2.1631
   75SLPC   C15 6670   0.512   0.177   7.382  0.0519  1.0240 -0.0758
   75SLPC  H15A 6671   0.530   0.185   7.276 -0.7726 -0.9891 -0.4036
   75SLPC  H15B 6672   0.560   0.259   7.435  0.6814 -1.2238  3.1090
   75SLPC  H15C 6673   0.545   0.076   7.398  2.2059  1.6588 -0.2327
   75SLPC   C12 6674   0.288   0.094   7.318 -0.3176 -0.3169  1.3246
   75SLPC  H12A 6675   0.182   0.107   7.332 -0.2534 -1.1164  2.6680
   75SLPC  H12B 6676   0.313  -0.010   7.333 -0.9976 -0.7282 -0.1568
   75SLPC   C11 6677   0.316   0.115   7.163 -0.6607  0.2641 -0.5300
   75SLPC  H11A 6678   0.282   0.217   7.138  0.1965  0.8906  0.7387
   75SLPC  H11B 6679   0.255   0.035   7.116  0.6410 -0.2215 -1.4562
   75SLPC     P 6680   0.510  -0.042   7.102  0.2795 -0.0229  0.2140
   75SLPC   O13 6681   0.657  -0.032   7.083 -0.2283  0.2681 -0.0470
   75SLPC   O14 6682   0.456  -0.138   7.200  0.7598 -0.5649 -0.3592
   75SLPC   O12 6683   0.446   0.096   7.123 -0.3371 -0.1998 -0.0689
   75SLPC   O11 6684   0.450  -0.063   6.950  0.1733  0.3151 -0.0720
   75SLPC    C1 6685   0.484   0.036   6.852  0.0214  0.1032 -0.5135
   75SLPC    HA 6686   0.483   0.142   6.885  1.1359  0.3552 -1.2097
   75SLPC    HB 6687   0.592   0.024   6.827  0.7397  0.1846  2.2259
   75SLPC    C2 6688   0.393   0.020   6.729  0.5021  0.0600  0.1362
   75SLPC    HS 6689   0.293   0.021   6.778  0.9510  0.0236  1.0608
   75SLPC   O21 6690   0.419  -0.103   6.665 -0.1102 -0.6897 -0.0861
   75SLPC   C21 6691   0.317  -0.172   6.626  0.6363  0.0695 -0.7763
   75SLPC   O22 6692   0.196  -0.146   6.651  0.4051  0.4801 -0.2053
   75SLPC   C22 6693   0.357  -0.295   6.539 -1.2380  0.3263  0.6200
   75SLPC   H2R 6694   0.370  -0.380   6.609 -2.2082  0.3633  0.8470
   75SLPC   H2S 6695   0.271  -0.311   6.470 -0.3331  0.1176 -0.5053
   75SLPC    C3 6696   0.404   0.141   6.629 -0.1078  0.5903 -0.1058
   75SLPC    HX 6697   0.507   0.156   6.591  0.8611 -0.8805  1.7961
   75SLPC    HY 6698   0.374   0.229   6.690 -1.5410 -0.6997  1.1559
   75SLPC   O31 6699   0.310   0.123   6.524  0.2177  0.1165 -0.0484
   75SLPC   C31 6700   0.182   0.131   6.555  0.0497 -0.2983  0.6601
   75SLPC   O32 6701   0.132   0.181   6.650  0.1747  0.1478 -0.2054
   75SLPC   C32 6702   0.095   0.045   6.461 -1.0267 -0.4452  0.1285
   75SLPC   H2X 6703  -0.001   0.010   6.506 -1.5179  0.0610 -0.4967
   75SLPC   H2Y 6704   0.153  -0.042   6.426 -2.8198 -1.9646  0.7576
   75SLPC   C23 6705   0.481  -0.278   6.436 -0.3376  0.4940  0.3799
   75SLPC   H3R 6706   0.496  -0.369   6.373  1.2098 -0.2025  1.6650
   75SLPC   H3S 6707   0.572  -0.263   6.498 -0.3054 -0.5375  0.6056
   75SLPC   C24 6708   0.475  -0.164   6.339  0.3861  0.5461  0.0202
   75SLPC   H4R 6709   0.574  -0.154   6.290  0.4428 -2.7737 -0.7633
   75SLPC   H4S 6710   0.473  -0.064   6.388  0.6095  0.3996  0.3343
   75SLPC   C25 6711   0.360  -0.167   6.233 -0.4587 -0.2592 -0.3638
   75SLPC   H5R 6712   0.262  -0.185   6.283  0.2709 -0.7133  0.9307
   75SLPC   H5S 6713   0.391  -0.250   6.166  0.1210  0.7907 -1.4321
   75SLPC   C26 6714   0.364  -0.044   6.145 -0.2638  0.3455 -0.9384
   75SLPC   H6R 6715   0.469  -0.044   6.107  0.5541  0.7557  1.1688
   75SLPC   H6S 6716   0.346   0.050   6.202 -0.8671  1.6739 -3.1837
   75SLPC   C27 6717   0.275  -0.061   6.027  0.4854  0.2166 -0.9285
   75SLPC   H7R 6718   0.176  -0.084   6.073  0.7043  0.5536 -0.2646
   75SLPC   H7S 6719   0.318  -0.141   5.964  1.3424 -0.2304  0.2033
   75SLPC   C28 6720   0.276   0.071   5.950 -0.0155  0.4037  0.3682
   75SLPC   H8R 6721   0.383   0.099   5.938  0.4490 -1.0341  0.9275
   75SLPC   H8S 6722   0.227   0.153   6.007 -0.7903  0.5139 -0.4494
   75SLPC   C29 6723   0.195   0.055   5.818  0.4414  0.1378  0.5862
   75SLPC   H9R 6724   0.101   0.006   5.847  0.9488 -0.7462  0.7648
   75SLPC  C210 6725   0.236   0.074   5.693 -0.5234  0.2666 -0.4292
   75SLPC  H10R 6726   0.172   0.065   5.604 -0.3083  0.5749 -0.6195
   75SLPC  C211 6727   0.374   0.129   5.667 -0.5806 -0.1297 -0.2522
   75SLPC  H11R 6728   0.442   0.041   5.668 -0.8349 -0.3527  1.6450
   75SLPC  H11S 6729   0.403   0.187   5.757 -0.8828 -0.5870  0.1470
   75SLPC  C212 6730   0.394   0.226   5.556 -0.1667 -0.2136  0.8776
   75SLPC  H12R 6731   0.355   0.325   5.584 -0.5976  0.8327 -2.8936
   75SLPC  C213 6732   0.460   0.209   5.441  0.1445 -0.1614 -0.1842
   75SLPC  H13R 6733   0.447   0.291   5.369 -3.2219  0.5035  0.9758
   75SLPC  C214 6734   0.527   0.079   5.396  0.1302 -0.6076 -0.0898
   75SLPC  H14R 6735   0.532   0.002   5.476 -0.4948 -0.7800 -0.2087
   75SLPC  H14S 6736   0.633   0.097   5.370 -0.2204  1.6084 -0.1457
   75SLPC  C215 6737   0.444   0.014   5.279  0.1472 -0.5471  0.1861
   75SLPC  H15R 6738   0.515  -0.054   5.226 -0.0878  0.8353 -2.0382
   75SLPC  H15S 6739   0.422   0.097   5.209  1.2777 -0.7472 -0.4329
   75SLPC  C216 6740   0.313  -0.055   5.323 -0.0034  0.2993  0.8237
   75SLPC  H16R 6741   0.239  -0.035   5.243  0.9296  1.1712  0.1602
   75SLPC  H16S 6742   0.273  -0.007   5.415 -2.4506 -1.5705  0.8400
   75SLPC  C217 6743   0.307  -0.204   5.350 -0.4030  0.2416  0.2932
   75SLPC  H17R 6744   0.206  -0.223   5.391 -0.7865  0.0530 -0.7155
   75SLPC  H17S 6745   0.377  -0.238   5.429  0.8051  2.1248  0.1112
   75SLPC  C218 6746   0.324  -0.286   5.229  0.5013  0.3029 -0.6238
   75SLPC  H18R 6747   0.432  -0.286   5.202  0.7918 -0.8703  0.4446
   75SLPC  H18S 6748   0.265  -0.261   5.138 -0.2142 -1.2239 -0.6034
   75SLPC  H18T 6749   0.316  -0.390   5.266 -0.3049  0.8218  0.7218
   75SLPC   C33 6750   0.066   0.128   6.335  0.1077  0.0513  0.2742
   75SLPC   H3X 6751   0.166   0.159   6.296  0.9033 -1.1982  1.2341
   75SLPC   H3Y 6752   0.019   0.224   6.365 -0.0489  0.1624 -0.3137
   75SLPC   C34 6753  -0.021   0.058   6.233 -0.7243 -0.6373 -0.8828
   75SLPC   H4X 6754  -0.114   0.048   6.294  0.7952  1.0539  1.9269
   75SLPC   H4Y 6755   0.014  -0.042   6.197 -3.1658 -3.3435  3.3772
   75SLPC   C35 6756  -0.057   0.149   6.119 -0.1075 -0.1746  0.1774
   75SLPC   H5X 6757   0.036   0.161   6.059  1.4173 -2.9091  1.7911
   75SLPC   H5Y 6758  -0.113   0.242   6.141  0.0790  0.2241 -0.9803
   75SLPC   C36 6759  -0.140   0.066   6.016  0.1115 -0.3685  0.5326
   75SLPC   H6X 6760  -0.243   0.044   6.052 -0.9069 -0.4830 -2.2098
   75SLPC   H6Y 6761  -0.085  -0.025   5.983 -0.0668  0.2131 -1.4646
   75SLPC   C37 6762  -0.166   0.145   5.888 -0.5088 -0.4677 -0.1999
   75SLPC   H7X 6763  -0.078   0.201   5.850 -1.0827 -0.1301 -1.0763
   75SLPC   H7Y 6764  -0.253   0.209   5.914 -1.2527 -1.8237  0.8059
   75SLPC   C38 6765  -0.210   0.052   5.776 -0.2929 -0.4633  0.5505
   75SLPC   H8X 6766  -0.301  -0.000   5.812 -2.0459  1.3701 -0.9303
   75SLPC   H8Y 6767  -0.130  -0.018   5.744  0.1024  1.0166 -2.0736
   75SLPC   C39 6768  -0.232   0.118   5.639  0.1859 -0.5266  0.4996
   75SLPC   H9X 6769  -0.301   0.205   5.630 -0.2543 -0.8973  0.1960
   75SLPC   H9Y 6770  -0.275   0.033   5.582  2.7862 -1.7523  0.2325
   75SLPC  C310 6771  -0.101   0.157   5.566 -0.7795 -0.3177 -0.3677
   75SLPC  H10X 6772  -0.030   0.072   5.558  0.4591  0.5510  1.0416
   75SLPC  H10Y 6773  -0.045   0.236   5.621  3.3923 -2.7153 -0.7480
   75SLPC  C311 6774  -0.114   0.211   5.427 -0.7377  0.5251 -0.5412
   75SLPC  H11X 6775  -0.160   0.311   5.415 -1.0084  0.5767  0.8056
   75SLPC  H11Y 6776  -0.180   0.132   5.385 -1.2699  0.5672  0.1959
   75SLPC  C312 6777   0.016   0.204   5.341 -0.9090  0.1815 -0.3502
   75SLPC  H12X 6778   0.072   0.109   5.355 -1.0688  0.0049 -0.9015
   75SLPC  H12Y 6779   0.086   0.276   5.387  0.3460 -2.3649  2.0822
   75SLPC  C313 6780   0.000   0.241   5.199 -0.0040 -0.0907  0.1283
   75SLPC  H13X 6781   0.091   0.277   5.147 -0.6396 -0.6354 -1.4286
   75SLPC  H13Y 6782  -0.058   0.336   5.200  2.6415  1.6368  1.6017
   75SLPC  C314 6783  -0.090   0.149   5.109 -0.1186  0.0918 -0.4663
   75SLPC  H14X 6784  -0.190   0.138   5.154  1.3599 -0.7438  2.9696
   75SLPC  H14Y 6785  -0.037   0.052   5.103  1.0041  0.6864 -0.4890
   75SLPC  C315 6786  -0.105   0.207   4.966 -0.7293 -0.0232  0.2765
   75SLPC  H15X 6787  -0.011   0.195   4.908 -0.7711  0.9011 -0.0008
   75SLPC  H15Y 6788  -0.126   0.311   4.999  0.5777 -0.3394  2.3179
   75SLPC  C316 6789  -0.226   0.145   4.887 -0.1683 -0.1582  0.2831
   75SLPC  H16X 6790  -0.236   0.193   4.787 -0.2750 -1.9334 -0.5885
   75SLPC  H16Y 6791  -0.314   0.163   4.952 -0.0970  1.0358  0.0719
   75SLPC  C317 6792  -0.205  -0.003   4.854  0.2426  0.6969 -0.3034
   75SLPC  H17X 6793  -0.291  -0.054   4.805 -0.6918  1.5907  0.3671
   75SLPC  H17Y 6794  -0.184  -0.054   4.950  0.2953 -0.3687 -0.8673
   75SLPC  C318 6795  -0.077  -0.030   4.773  0.2785 -0.6023  0.5276
   75SLPC  H18X 6796   0.021  -0.002   4.817  0.5008 -0.7434  0.1264
   75SLPC  H18Y 6797  -0.098   0.034   4.684 -3.0187 -1.5546  0.4959
   75SLPC  H18Z 6798  -0.087  -0.138   4.750 -0.5277 -0.7529  1.5074
   76SLPC     N 6799   2.971   6.260   7.567 -0.0927  0.3393  0.3299
   76SLPC   C13 6800   3.068   6.212   7.665  0.1673  0.2016  0.3560
   76SLPC  H13A 6801   3.096   6.110   7.645  0.5032 -0.1077  2.2485
   76SLPC  H13B 6802   3.163   6.261   7.651 -0.2790  1.0324  0.1126
   76SLPC  H13C 6803   3.057   6.222   7.772  2.2645 -0.4809  0.6861
   76SLPC   C14 6804   2.952   6.405   7.572 -0.6302  0.2181 -0.8232
   76SLPC  H14A 6805   3.041   6.465   7.571  0.3552 -1.1060  1.0501
   76SLPC  H14B 6806   2.899   6.430   7.481 -0.9513 -0.1412 -0.7389
   76SLPC  H14C 6807   2.886   6.432   7.653 -1.0317 -2.0641 -0.3053
   76SLPC   C15 6808   2.841   6.204   7.611  0.2278  0.6077 -0.6926
   76SLPC  H15A 6809   2.860   6.101   7.636  3.6289  1.3707  0.4040
   76SLPC  H15B 6810   2.801   6.259   7.695  0.0703  1.4057 -1.2779
   76SLPC  H15C 6811   2.769   6.208   7.530  2.6921 -0.4858 -3.1356
   76SLPC   C12 6812   3.013   6.219   7.428  0.9775 -0.2247  0.1215
   76SLPC  H12A 6813   3.029   6.113   7.412  0.3841  0.1017 -3.2382
   76SLPC  H12B 6814   3.112   6.260   7.414  1.8125 -2.2033 -0.1785
   76SLPC   C11 6815   2.909   6.256   7.317  0.2664  0.1816 -0.2881
   76SLPC  H11A 6816   2.811   6.205   7.328 -0.8740  2.0906 -1.0812
   76SLPC  H11B 6817   2.947   6.217   7.221 -0.0770 -0.2931 -0.2336
   76SLPC     P 6818   2.739   6.440   7.237 -0.3398  0.0664  0.0384
   76SLPC   O13 6819   2.624   6.378   7.307 -0.5952 -0.0268 -0.1177
   76SLPC   O14 6820   2.740   6.588   7.231 -0.0089  0.0040 -0.1533
   76SLPC   O12 6821   2.880   6.392   7.300  0.4325 -0.6086 -0.5606
   76SLPC   O11 6822   2.766   6.383   7.092  0.5680 -0.7763 -0.2426
   76SLPC    C1 6823   2.865   6.427   7.005  0.3226 -0.7621  0.5193
   76SLPC    HA 6824   2.916   6.522   7.033  1.1533 -1.2516  0.6653
   76SLPC    HB 6825   2.946   6.352   6.994  0.2472 -1.1568  2.2970
   76SLPC    C2 6826   2.802   6.470   6.866  0.2123  0.1736 -0.9106
   76SLPC    HS 6827   2.889   6.482   6.799  1.2780  0.5254  0.4930
   76SLPC   O21 6828   2.698   6.572   6.867  0.7477  0.2203 -0.5510
   76SLPC   C21 6829   2.740   6.692   6.889 -0.1671 -0.3230 -0.4652
   76SLPC   O22 6830   2.856   6.731   6.914  0.5871 -0.6743  0.4287
   76SLPC   C22 6831   2.611   6.786   6.908  0.1130  0.2264  0.3956
   76SLPC   H2R 6832   2.535   6.728   6.966 -1.1807  0.8580 -0.6262
   76SLPC   H2S 6833   2.638   6.879   6.962 -2.4198  0.2278  1.8645
   76SLPC    C3 6834   2.726   6.351   6.823  0.2453  0.9807  0.9106
   76SLPC    HX 6835   2.636   6.343   6.888 -0.1599 -1.0371  0.1891
   76SLPC    HY 6836   2.784   6.256   6.837 -1.2893  0.1152  1.6303
   76SLPC   O31 6837   2.695   6.370   6.681  0.8513 -0.7188 -0.4220
   76SLPC   C31 6838   2.577   6.433   6.651 -1.1295 -1.1075  0.3781
   76SLPC   O32 6839   2.495   6.477   6.728 -0.3522  0.5984 -0.1147
   76SLPC   C32 6840   2.570   6.436   6.497  0.4123  0.2198 -0.6802
   76SLPC   H2X 6841   2.612   6.529   6.453 -0.9970  1.1815 -0.0359
   76SLPC   H2Y 6842   2.460   6.429   6.488  0.3005  1.3564 -0.3368
   76SLPC   C23 6843   2.543   6.828   6.779 -0.1789 -0.0200 -0.1200
   76SLPC   H3R 6844   2.436   6.854   6.797 -0.8402 -1.4046 -1.7391
   76SLPC   H3S 6845   2.535   6.748   6.703 -1.0337  1.1440 -1.3095
   76SLPC   C24 6846   2.614   6.946   6.726  0.1850  0.2282 -0.3039
   76SLPC   H4R 6847   2.725   6.939   6.734  0.1586  0.3756  0.2201
   76SLPC   H4S 6848   2.590   7.037   6.786  0.0954 -0.6202  0.9895
   76SLPC   C25 6849   2.570   6.979   6.585  0.3069 -0.3537 -0.0613
   76SLPC   H5R 6850   2.616   7.078   6.564  0.1150  0.0660  1.3686
   76SLPC   H5S 6851   2.459   6.988   6.580  0.4171  1.2542 -0.0349
   76SLPC   C26 6852   2.628   6.867   6.491  0.1871 -0.5692  0.1662
   76SLPC   H6R 6853   2.640   6.766   6.534  1.1970 -1.0516 -1.1967
   76SLPC   H6S 6854   2.734   6.893   6.475  0.3640  0.9286  3.0326
   76SLPC   C27 6855   2.551   6.862   6.359  0.0559  0.0447  0.5537
   76SLPC   H7R 6856   2.504   6.962   6.349  1.1736  0.3177 -4.1608
   76SLPC   H7S 6857   2.476   6.780   6.366  0.4258 -0.4702 -1.1530
   76SLPC   C28 6858   2.637   6.844   6.232 -0.1929 -0.2403 -0.2943
   76SLPC   H8R 6859   2.672   6.739   6.223 -0.0636 -0.2626  0.4461
   76SLPC   H8S 6860   2.727   6.908   6.243  0.9322 -1.5565 -1.3872
   76SLPC   C29 6861   2.568   6.873   6.101 -0.4239  0.0665 -0.5191
   76SLPC   H9R 6862   2.496   6.795   6.071 -1.0210  0.3020  0.2798
   76SLPC  C210 6863   2.581   6.989   6.030 -0.3297 -0.1919 -0.0465
   76SLPC  H10R 6864   2.530   7.007   5.935  2.6510  3.6466 -1.1867
   76SLPC  C211 6865   2.664   7.113   6.062 -0.5850  0.1863  0.6659
   76SLPC  H11R 6866   2.682   7.127   6.171 -0.7500 -0.2003  0.7468
   76SLPC  H11S 6867   2.606   7.203   6.031  1.1233  0.5955 -1.6373
   76SLPC  C212 6868   2.798   7.095   5.994 -0.1241 -0.0459  0.5450
   76SLPC  H12R 6869   2.879   7.040   6.045  0.4075 -0.6245 -0.8729
   76SLPC  C213 6870   2.831   7.134   5.868 -0.4309  0.2111  0.1761
   76SLPC  H13R 6871   2.933   7.109   5.836 -1.2321 -1.1792 -1.4596
   76SLPC  C214 6872   2.748   7.213   5.769 -0.2628 -0.8207  0.1035
   76SLPC  H14R 6873   2.758   7.323   5.781 -1.9615 -0.4747 -1.2813
   76SLPC  H14S 6874   2.640   7.205   5.792 -0.1534 -1.8234  0.3183
   76SLPC  C215 6875   2.771   7.181   5.620  0.0665  0.1861 -0.5164
   76SLPC  H15R 6876   2.694   7.214   5.547  0.9900  1.0259 -1.1354
   76SLPC  H15S 6877   2.774   7.071   5.604  2.0815  0.0218  0.5808
   76SLPC  C216 6878   2.905   7.228   5.576  0.9850 -0.4139 -0.3197
   76SLPC  H16R 6879   2.976   7.165   5.634  0.4577 -1.1225 -0.4296
   76SLPC  H16S 6880   2.922   7.336   5.597 -1.3873 -0.0425 -0.0526
   76SLPC  C217 6881   2.927   7.214   5.426 -0.4996 -0.7446  0.0965
   76SLPC  H17R 6882   2.872   7.296   5.376 -1.7100 -1.7881 -0.3311
   76SLPC  H17S 6883   2.880   7.122   5.384  0.8586 -2.3084  1.8625
   76SLPC  C218 6884   3.073   7.225   5.388  0.3245  0.1904  0.3035
   76SLPC  H18R 6885   3.100   7.332   5.400 -0.1429  0.1249  2.2800
   76SLPC  H18S 6886   3.085   7.208   5.279 -1.4411 -1.3946  0.3131
   76SLPC  H18T 6887   3.147   7.166   5.447  0.4238 -2.3952 -2.2040
   76SLPC   C33 6888   2.630   6.317   6.410 -0.1643 -0.1271 -0.3729
   76SLPC   H3X 6889   2.591   6.221   6.449 -0.3756  0.1562  0.1246
   76SLPC   H3Y 6890   2.741   6.319   6.413 -0.1411  2.6529 -0.6302
   76SLPC   C34 6891   2.582   6.314   6.265  0.6590  0.4667 -0.3379
   76SLPC   H4X 6892   2.472   6.313   6.275  0.5800 -2.7772 -0.3106
   76SLPC   H4Y 6893   2.603   6.215   6.219 -3.3918 -0.3293 -0.8163
   76SLPC   C35 6894   2.648   6.422   6.184  0.3347  0.2998  0.1920
   76SLPC   H5X 6895   2.755   6.413   6.211 -0.2181 -1.3893  2.1101
   76SLPC   H5Y 6896   2.611   6.518   6.225  0.8047 -0.5206  2.7313
   76SLPC   C36 6897   2.619   6.419   6.036  0.3382  0.3953  0.4190
   76SLPC   H6X 6898   2.510   6.416   6.014  0.7806 -4.9901 -2.8648
   76SLPC   H6Y 6899   2.669   6.323   6.011 -1.3620 -1.0405  2.1708
   76SLPC   C37 6900   2.678   6.535   5.965 -0.7563  0.8405 -0.1981
   76SLPC   H7X 6901   2.788   6.542   5.980 -0.3447 -2.9197 -0.6007
   76SLPC   H7Y 6902   2.626   6.622   6.010  0.1106  0.9991  0.5247
   76SLPC   C38 6903   2.644   6.531   5.817 -0.2155  0.0442  0.2654
   76SLPC   H8X 6904   2.533   6.526   5.809 -0.2308 -4.7977  0.7542
   76SLPC   H8Y 6905   2.691   6.444   5.768  0.2347 -0.5558  1.6996
   76SLPC   C39 6906   2.694   6.646   5.722 -0.0305 -0.1278 -0.8167
   76SLPC   H9X 6907   2.800   6.625   5.698  0.6774  1.2370  0.8866
   76SLPC   H9Y 6908   2.687   6.746   5.770 -1.7687  0.4672 -2.1800
   76SLPC  C310 6909   2.611   6.652   5.589 -0.1044  0.6525 -0.0611
   76SLPC  H10X 6910   2.505   6.677   5.610 -0.0114  0.9862  0.0070
   76SLPC  H10Y 6911   2.622   6.555   5.535 -1.0030  0.2563  0.4332
   76SLPC  C311 6912   2.664   6.766   5.499  0.3296 -0.1574 -0.2695
   76SLPC  H11X 6913   2.775   6.769   5.490  0.3462 -0.9985 -0.4268
   76SLPC  H11Y 6914   2.634   6.860   5.551 -0.6277  0.3062 -1.6161
   76SLPC  C312 6915   2.592   6.765   5.364  0.0917  0.0992 -0.1404
   76SLPC  H12X 6916   2.488   6.729   5.380 -0.1342  0.5557 -0.5489
   76SLPC  H12Y 6917   2.638   6.685   5.303 -0.1305 -1.5146  1.7004
   76SLPC  C313 6918   2.594   6.905   5.306  0.0476  0.1192  0.9233
   76SLPC  H13X 6919   2.688   6.954   5.338  1.0867 -0.8544 -0.5005
   76SLPC  H13Y 6920   2.506   6.956   5.350 -0.2111  0.1579  0.3697
   76SLPC  C314 6921   2.576   6.906   5.155  0.8976  0.3345 -0.1481
   76SLPC  H14X 6922   2.478   6.861   5.129  0.6190  0.7172  0.2165
   76SLPC  H14Y 6923   2.651   6.841   5.106  0.6980 -0.8259  1.0261
   76SLPC  C315 6924   2.594   7.042   5.090  0.0488 -0.3104  0.0125
   76SLPC  H15X 6925   2.536   7.109   5.156  0.0802 -1.4992  1.2969
   76SLPC  H15Y 6926   2.558   7.054   4.986  1.3163 -2.0014 -0.6747
   76SLPC  C316 6927   2.739   7.087   5.072  0.4944 -0.1475 -0.4394
   76SLPC  H16X 6928   2.792   7.022   4.999  2.5101  0.3044  0.5625
   76SLPC  H16Y 6929   2.784   7.068   5.172  1.6636  0.4914 -0.8312
   76SLPC  C317 6930   2.756   7.235   5.051 -0.1674 -0.1625  0.0823
   76SLPC  H17X 6931   2.853   7.269   5.094 -0.7775 -0.1768  1.5292
   76SLPC  H17Y 6932   2.675   7.290   5.103  0.9870  0.7619  0.9677
   76SLPC  C318 6933   2.750   7.272   4.903 -0.2563  0.5171 -0.0898
   76SLPC  H18X 6934   2.826   7.218   4.842 -0.9551 -1.1537  0.4587
   76SLPC  H18Y 6935   2.756   7.380   4.876 -0.8243  0.3975 -0.7160
   76SLPC  H18Z 6936   2.650   7.236   4.873 -0.2408  0.0344  0.4177
   77SLPC     N 6937   2.941   5.333   7.282  0.3631 -0.1985  0.2498
   77SLPC   C13 6938   3.005   5.235   7.370  0.3794  0.0705  0.0601
   77SLPC  H13A 6939   3.107   5.261   7.394  0.0424  0.1339  1.5759
   77SLPC  H13B 6940   2.960   5.243   7.468 -0.7117  1.6211 -0.5306
   77SLPC  H13C 6941   2.984   5.136   7.332 -4.6986  1.4546 -1.5873
   77SLPC   C14 6942   2.932   5.472   7.346  0.2884  0.3752  0.0529
   77SLPC  H14A 6943   3.026   5.517   7.375 -0.0105 -0.1614  2.0224
   77SLPC  H14B 6944   2.874   5.540   7.285 -0.5461 -1.5355 -1.3611
   77SLPC  H14C 6945   2.885   5.458   7.442  0.2216 -0.6590 -0.1194
   77SLPC   C15 6946   2.798   5.283   7.265 -0.3082 -0.3759  0.4321
   77SLPC  H15A 6947   2.743   5.296   7.358 -0.8817  1.0252 -0.0849
   77SLPC  H15B 6948   2.747   5.346   7.194  0.1644 -1.4976 -0.9289
   77SLPC  H15C 6949   2.801   5.179   7.235  2.2171 -0.5762  1.1196
   77SLPC   C12 6950   3.005   5.346   7.147  0.1796 -0.5062 -0.6187
   77SLPC  H12A 6951   3.111   5.351   7.165  0.0391 -0.6200  0.2467
   77SLPC  H12B 6952   2.976   5.439   7.100  0.6572 -0.6506 -1.2146
   77SLPC   C11 6953   3.002   5.224   7.050  0.5340 -0.1075  0.9188
   77SLPC  H11A 6954   3.055   5.254   6.957 -1.2129 -2.2306 -0.8700
   77SLPC  H11B 6955   2.898   5.200   7.020  1.0399  1.9090 -3.0643
   77SLPC     P 6956   3.021   4.968   7.122  0.4701 -0.2957  0.4945
   77SLPC   O13 6957   3.120   4.877   7.185 -0.3367 -0.5783 -0.6503
   77SLPC   O14 6958   2.883   4.973   7.174 -0.7231 -0.1413 -0.0274
   77SLPC   O12 6959   3.077   5.115   7.107 -0.2946 -0.0276 -0.5627
   77SLPC   O11 6960   3.006   4.917   6.969 -0.5577 -0.4180  0.0965
   77SLPC    C1 6961   3.129   4.929   6.896 -0.5058  0.3204  0.0365
   77SLPC    HA 6962   3.188   5.022   6.912  1.4091 -0.7068 -0.6343
   77SLPC    HB 6963   3.197   4.844   6.920 -1.1960  0.2736  1.9801
   77SLPC    C2 6964   3.121   4.931   6.738  0.0435  0.1744 -0.5661
   77SLPC    HS 6965   3.068   5.026   6.715 -2.2875 -0.5995  1.1161
   77SLPC   O21 6966   3.035   4.826   6.707 -0.1593  0.3865  0.1267
   77SLPC   C21 6967   2.965   4.840   6.590 -0.3154 -0.3429 -0.3905
   77SLPC   O22 6968   2.966   4.935   6.521 -1.1488 -0.3135  0.3446
   77SLPC   C22 6969   2.885   4.711   6.563 -0.7961  0.4593 -0.0234
   77SLPC   H2R 6970   2.935   4.622   6.608 -2.4912 -0.7458 -0.4055
   77SLPC   H2S 6971   2.795   4.714   6.629 -1.3850 -0.3144 -0.7714
   77SLPC    C3 6972   3.264   4.925   6.671  0.2031  0.2290  1.0278
   77SLPC    HX 6973   3.322   4.853   6.732  1.0718  1.5612  1.8294
   77SLPC    HY 6974   3.330   5.013   6.685  0.8500  0.0643 -0.7289
   77SLPC   O31 6975   3.265   4.881   6.536 -0.4185 -0.2762 -0.3349
   77SLPC   C31 6976   3.279   4.976   6.444 -0.1973  0.4187 -0.4542
   77SLPC   O32 6977   3.326   5.085   6.467 -0.0802 -0.3452  0.1423
   77SLPC   C32 6978   3.233   4.924   6.310 -0.1734  0.2026  0.2591
   77SLPC   H2X 6979   3.123   4.913   6.319 -0.1782 -1.0193 -0.9100
   77SLPC   H2Y 6980   3.274   4.823   6.285  0.8245  0.7095 -0.2397
   77SLPC   C23 6981   2.840   4.690   6.411 -0.6056 -0.1103 -0.6907
   77SLPC   H3R 6982   2.798   4.786   6.375  0.1856  1.0020  1.1782
   77SLPC   H3S 6983   2.762   4.611   6.407  0.0181 -0.7449 -0.6224
   77SLPC   C24 6984   2.964   4.642   6.329  0.9790 -0.4000 -0.3253
   77SLPC   H4R 6985   3.025   4.563   6.377  0.1189 -1.6926 -1.3015
   77SLPC   H4S 6986   3.026   4.733   6.321  0.1850  0.5107  2.6985
   77SLPC   C25 6987   2.928   4.582   6.192 -0.5028  0.1743  0.1900
   77SLPC   H5R 6988   2.919   4.472   6.198 -0.3388  0.2218  1.6087
   77SLPC   H5S 6989   3.010   4.607   6.121 -1.4860  1.3189 -0.5827
   77SLPC   C26 6990   2.790   4.627   6.132  0.6505 -0.4125 -0.1667
   77SLPC   H6R 6991   2.710   4.611   6.207 -2.1784  1.2413 -2.6025
   77SLPC   H6S 6992   2.763   4.569   6.041  1.5410  1.3873 -1.6607
   77SLPC   C27 6993   2.806   4.775   6.090  0.1337  0.1780  0.2224
   77SLPC   H7R 6994   2.872   4.774   6.000 -0.8524 -0.4881 -0.5183
   77SLPC   H7S 6995   2.850   4.826   6.178  0.9058 -1.5093  0.8546
   77SLPC   C28 6996   2.668   4.832   6.067 -0.2975  0.1252  0.0016
   77SLPC   H8R 6997   2.673   4.943   6.080 -1.2092 -0.0556  2.3532
   77SLPC   H8S 6998   2.600   4.810   6.152 -0.1513 -1.1826 -0.1994
   77SLPC   C29 6999   2.624   4.788   5.927  0.1088 -0.3388  0.8003
   77SLPC   H9R 7000   2.649   4.682   5.912  3.1752  0.3915  0.1836
   77SLPC  C210 7001   2.605   4.875   5.817  0.5281 -0.2192 -0.2454
   77SLPC  H10R 7002   2.574   4.818   5.729 -1.0511  1.3767 -0.7738
   77SLPC  C211 7003   2.615   5.027   5.816  0.3984 -0.6668 -0.2782
   77SLPC  H11R 7004   2.603   5.072   5.917  0.3676  0.1624 -0.6391
   77SLPC  H11S 7005   2.534   5.078   5.761  1.2811  0.4782 -0.5618
   77SLPC  C212 7006   2.756   5.077   5.784  0.3040  1.0870  0.0172
   77SLPC  H12R 7007   2.823   5.053   5.868  0.0477 -1.8703 -0.5048
   77SLPC  C213 7008   2.801   5.123   5.663 -0.1957 -0.1657  0.0387
   77SLPC  H13R 7009   2.903   5.166   5.659  0.3259 -1.3858 -0.3097
   77SLPC  C214 7010   2.711   5.128   5.543  0.2394  0.0052 -0.3961
   77SLPC  H14R 7011   2.721   5.227   5.494 -1.5219  0.1780 -0.4598
   77SLPC  H14S 7012   2.604   5.127   5.575  0.5806  1.4753  0.8932
   77SLPC  C215 7013   2.728   5.023   5.443 -0.2269  0.7580  0.3401
   77SLPC  H15R 7014   2.704   4.922   5.483  1.4169 -0.9469 -2.6111
   77SLPC  H15S 7015   2.826   5.014   5.390 -0.6576  0.1963 -0.3880
   77SLPC  C216 7016   2.630   5.040   5.329 -0.4910 -0.3964  0.9871
   77SLPC  H16R 7017   2.652   5.147   5.308  0.4407 -0.5782  0.9749
   77SLPC  H16S 7018   2.527   5.037   5.370 -1.6127  3.5388 -1.0549
   77SLPC  C217 7019   2.647   4.957   5.205 -0.1824  0.1279  0.7326
   77SLPC  H17R 7020   2.756   4.949   5.185 -0.3313  1.9739 -1.2569
   77SLPC  H17S 7021   2.599   4.996   5.112  0.9726 -0.7758 -0.2640
   77SLPC  C218 7022   2.593   4.816   5.219 -0.6775 -0.0981  0.3283
   77SLPC  H18R 7023   2.639   4.750   5.143 -2.0920  0.3311 -0.9579
   77SLPC  H18S 7024   2.482   4.818   5.219 -0.7052 -0.5082 -1.0947
   77SLPC  H18T 7025   2.626   4.768   5.313 -1.6550  0.1571  0.8205
   77SLPC   C33 7026   3.253   5.028   6.193  0.1963  0.4028  0.1000
   77SLPC   H3X 7027   3.360   5.045   6.170  0.2590  1.2731  0.9884
   77SLPC   H3Y 7028   3.219   5.127   6.230 -1.7370 -0.5047  0.8939
   77SLPC   C34 7029   3.179   4.985   6.069 -0.3963  0.3738  1.0491
   77SLPC   H4X 7030   3.068   4.987   6.082 -0.6584  0.3613 -0.9234
   77SLPC   H4Y 7031   3.205   4.878   6.052  1.8198  0.9502  0.4963
   77SLPC   C35 7032   3.227   5.055   5.949 -0.2081 -0.4122  1.0125
   77SLPC   H5X 7033   3.338   5.050   5.944 -0.1780  0.6649  0.2770
   77SLPC   H5Y 7034   3.201   5.163   5.955  0.3593 -0.2197  0.2267
   77SLPC   C36 7035   3.173   4.993   5.814  0.4131  0.1352 -0.3951
   77SLPC   H6X 7036   3.065   5.018   5.808  0.7333  1.3013 -2.5712
   77SLPC   H6Y 7037   3.190   4.883   5.821 -1.0252 -0.0641  0.3866
   77SLPC   C37 7038   3.229   5.060   5.684  0.2425  0.6364 -0.4036
   77SLPC   H7X 7039   3.337   5.077   5.706  0.0548 -0.3297  1.4012
   77SLPC   H7Y 7040   3.184   5.162   5.684  2.1783  1.5420 -0.2000
   77SLPC   C38 7041   3.198   4.976   5.560  0.0713 -0.1890  0.1348
   77SLPC   H8X 7042   3.103   4.919   5.569 -0.8092  1.3468  0.8358
   77SLPC   H8Y 7043   3.270   4.892   5.546 -1.1747 -0.9708 -2.2050
   77SLPC   C39 7044   3.194   5.058   5.430  0.3435 -0.6054 -0.9020
   77SLPC   H9X 7045   3.285   5.119   5.417  0.5612 -0.2786  1.5968
   77SLPC   H9Y 7046   3.110   5.128   5.445  0.3297 -0.4900 -1.4846
   77SLPC  C310 7047   3.163   4.988   5.299  0.5839 -0.3368  0.1504
   77SLPC  H10X 7048   3.085   4.910   5.311  0.7711 -0.5376  0.0793
   77SLPC  H10Y 7049   3.259   4.948   5.260  1.1852  0.6761  0.5425
   77SLPC  C311 7050   3.103   5.087   5.194  0.6750  0.0227  0.1064
   77SLPC  H11X 7051   3.173   5.169   5.167  1.2618 -0.4525  0.1598
   77SLPC  H11Y 7052   3.017   5.135   5.246 -0.2097  0.0731 -1.3574
   77SLPC  C312 7053   3.041   5.029   5.069  0.4245 -0.1671  0.4831
   77SLPC  H12X 7054   3.004   5.115   5.011  0.2446 -0.2961  0.4038
   77SLPC  H12Y 7055   2.958   4.958   5.091  1.3539 -0.8003  2.1452
   77SLPC  C313 7056   3.143   4.950   4.979  0.1363 -0.9563 -0.6436
   77SLPC  H13X 7057   3.093   4.930   4.881 -0.1701 -0.6736 -0.5464
   77SLPC  H13Y 7058   3.166   4.861   5.040  0.9568  0.4129  1.1331
   77SLPC  C314 7059   3.277   5.022   4.958 -0.1799 -0.1556  0.5414
   77SLPC  H14X 7060   3.328   5.069   5.045  2.5555 -0.4476 -0.7886
   77SLPC  H14Y 7061   3.269   5.111   4.891  1.4065  0.1145  0.6735
   77SLPC  C315 7062   3.378   4.936   4.879 -0.2383 -0.1603  0.3619
   77SLPC  H15X 7063   3.421   4.851   4.936  0.2342 -0.1829 -0.0202
   77SLPC  H15Y 7064   3.462   5.007   4.860 -0.3324 -0.3445 -0.8014
   77SLPC  C316 7065   3.316   4.903   4.745 -0.2885  0.0586  0.3392
   77SLPC  H16X 7066   3.251   4.986   4.711 -0.9447 -0.2963  0.6839
   77SLPC  H16Y 7067   3.251   4.815   4.765 -0.4167 -0.1345 -0.8374
   77SLPC  C317 7068   3.415   4.897   4.621  0.0433 -0.3081 -0.6235
   77SLPC  H17X 7069   3.358   4.864   4.532 -1.7536 -1.3234  0.8487
   77SLPC  H17Y 7070   3.493   4.820   4.641  1.8679  1.4802 -0.4233
   77SLPC  C318 7071   3.467   5.041   4.587  0.5563  0.5810 -0.1762
   77SLPC  H18X 7072   3.543   5.076   4.660  0.5316  1.9621 -0.7832
   77SLPC  H18Y 7073   3.378   5.108   4.587  0.8775  1.0145 -0.2868
   77SLPC  H18Z 7074   3.524   5.034   4.492 -1.6300 -1.8968 -1.4549
   78SLPC     N 7075   0.431   4.180   7.376  0.2503 -0.0944  0.0759
   78SLPC   C13 7076   0.464   4.246   7.505  0.2816 -0.4584  0.0135
   78SLPC  H13A 7077   0.464   4.179   7.589 -1.7445 -0.3644  0.1377
   78SLPC  H13B 7078   0.561   4.292   7.511 -0.8985  2.1167  1.3060
   78SLPC  H13C 7079   0.392   4.322   7.532  2.3730  1.5399  0.2576
   78SLPC   C14 7080   0.297   4.123   7.375  0.8510 -0.0868  0.3922
   78SLPC  H14A 7081   0.277   4.063   7.463 -0.6854  1.4008  1.1266
   78SLPC  H14B 7082   0.232   4.209   7.381  2.6682  1.2698  1.9626
   78SLPC  H14C 7083   0.280   4.064   7.287  2.2499 -1.6083  1.0958
   78SLPC   C15 7084   0.532   4.072   7.345  0.0554 -0.3180 -0.0596
   78SLPC  H15A 7085   0.632   4.114   7.336  0.0006 -0.3152 -0.7347
   78SLPC  H15B 7086   0.523   3.997   7.422 -4.0709 -0.5415 -0.5390
   78SLPC  H15C 7087   0.508   4.025   7.251 -0.3463  0.4961 -0.3786
   78SLPC   C12 7088   0.432   4.285   7.266  0.1082 -0.4091  0.8679
   78SLPC  H12A 7089   0.513   4.356   7.276  0.4792 -1.0067  2.3157
   78SLPC  H12B 7090   0.341   4.342   7.279  1.4602  1.6759  1.6884
   78SLPC   C11 7091   0.414   4.235   7.120  0.4530 -0.3041  0.6370
   78SLPC  H11A 7092   0.503   4.172   7.095  2.0865  1.0090  2.7994
   78SLPC  H11B 7093   0.415   4.322   7.050 -2.6185 -1.2792 -0.7975
   78SLPC     P 7094   0.153   4.239   7.070 -0.4019 -0.4681 -0.2630
   78SLPC   O13 7095   0.045   4.150   7.020 -0.2413 -0.4388  0.5055
   78SLPC   O14 7096   0.120   4.317   7.190 -0.9060  0.1890 -0.3009
   78SLPC   O12 7097   0.293   4.159   7.093  0.1202  0.0280  0.0023
   78SLPC   O11 7098   0.201   4.343   6.955 -0.3795  0.5082  0.4053
   78SLPC    C1 7099   0.243   4.297   6.830  0.5550  0.8268  0.2502
   78SLPC    HA 7100   0.319   4.362   6.782  0.2764  0.0996 -1.2494
   78SLPC    HB 7101   0.293   4.198   6.836  2.4629  1.8217  2.2997
   78SLPC    C2 7102   0.129   4.290   6.717  0.2037 -0.5398  0.4355
   78SLPC    HS 7103   0.060   4.210   6.750  0.5121 -0.6512  0.8160
   78SLPC   O21 7104   0.193   4.262   6.588  0.6150  0.3927 -0.3995
   78SLPC   C21 7105   0.109   4.255   6.487  0.3131 -0.2868 -1.0261
   78SLPC   O22 7106  -0.012   4.246   6.494  0.0824 -0.2491  0.1984
   78SLPC   C22 7107   0.201   4.228   6.363  0.7650  0.1406  0.3219
   78SLPC   H2R 7108   0.306   4.236   6.400  0.5925  0.9441  0.6570
   78SLPC   H2S 7109   0.179   4.128   6.320  0.2093  0.6263 -0.5542
   78SLPC    C3 7110   0.048   4.419   6.715 -0.1037 -0.0530  0.3679
   78SLPC    HX 7111   0.025   4.439   6.822 -1.2086 -0.8243  0.2891
   78SLPC    HY 7112  -0.050   4.406   6.664 -0.4804  3.4040 -0.0463
   78SLPC   O31 7113   0.124   4.536   6.670  0.4098 -0.1067 -0.4872
   78SLPC   C31 7114   0.049   4.647   6.637  0.0047  0.4472  0.3344
   78SLPC   O32 7115  -0.071   4.645   6.638 -0.0416  0.2318 -0.2073
   78SLPC   C32 7116   0.136   4.768   6.586  0.4373  0.2152 -0.0333
   78SLPC   H2X 7117   0.242   4.739   6.602  1.8630  3.8150 -1.8981
   78SLPC   H2Y 7118   0.118   4.860   6.646 -0.2504  1.8557 -2.5851
   78SLPC   C23 7119   0.177   4.335   6.253 -0.7669  0.0381  0.0847
   78SLPC   H3R 7120   0.224   4.426   6.296  2.7654 -1.1736 -0.8073
   78SLPC   H3S 7121   0.067   4.335   6.238 -0.7401 -2.5216 -0.5345
   78SLPC   C24 7122   0.247   4.283   6.126  0.1781  0.0957 -0.1845
   78SLPC   H4R 7123   0.202   4.190   6.084 -0.4498 -0.2995  1.2955
   78SLPC   H4S 7124   0.357   4.278   6.136  0.2637 -0.1527 -1.1237
   78SLPC   C25 7125   0.223   4.374   6.010  0.6071 -0.4229 -0.0502
   78SLPC   H5R 7126   0.259   4.475   6.039  0.8156 -0.8685  1.2937
   78SLPC   H5S 7127   0.116   4.381   5.981  0.8707 -1.8213 -1.5627
   78SLPC   C26 7128   0.300   4.322   5.882 -0.0907 -0.5138 -0.5712
   78SLPC   H6R 7129   0.251   4.230   5.845 -0.6669 -1.0072  1.2962
   78SLPC   H6S 7130   0.405   4.299   5.911  0.3638 -0.8021 -2.3095
   78SLPC   C27 7131   0.310   4.434   5.771 -0.6201 -0.3032 -0.3194
   78SLPC   H7R 7132   0.376   4.509   5.819 -0.6508 -0.2389 -0.3778
   78SLPC   H7S 7133   0.206   4.469   5.751 -0.1855  0.2386 -1.8258
   78SLPC   C28 7134   0.370   4.377   5.648  1.1848 -0.3114 -0.8490
   78SLPC   H8R 7135   0.303   4.299   5.607  0.7837 -0.7366  0.5548
   78SLPC   H8S 7136   0.471   4.331   5.656  1.0568 -0.8078 -1.9102
   78SLPC   C29 7137   0.385   4.486   5.552 -0.2224  0.5646  0.4116
   78SLPC   H9R 7138   0.416   4.585   5.589 -1.1383  0.6809  0.9074
   78SLPC  C210 7139   0.344   4.488   5.419 -0.9010 -0.8731 -1.0152
   78SLPC  H10R 7140   0.375   4.581   5.368  0.8061 -0.0400  1.3460
   78SLPC  C211 7141   0.286   4.375   5.339 -0.2956  0.4829  0.7179
   78SLPC  H11R 7142   0.175   4.374   5.352 -0.3161 -1.2729  0.7463
   78SLPC  H11S 7143   0.321   4.281   5.387 -1.7967 -0.6178 -0.2460
   78SLPC  C212 7144   0.324   4.353   5.201 -0.2850  0.0587 -0.3564
   78SLPC  H12R 7145   0.401   4.424   5.168  0.1523 -0.3414 -0.2146
   78SLPC  C213 7146   0.272   4.253   5.123 -0.6320  0.5522 -0.1311
   78SLPC  H13R 7147   0.303   4.250   5.017 -2.2729  2.1576 -0.6982
   78SLPC  C214 7148   0.164   4.159   5.173  0.3562 -0.2114  0.4787
   78SLPC  H14R 7149   0.063   4.189   5.138 -0.1220 -1.1724  0.9993
   78SLPC  H14S 7150   0.163   4.156   5.284 -0.2656  0.2241  0.4952
   78SLPC  C215 7151   0.192   4.013   5.126  0.2485 -0.3932 -0.2762
   78SLPC  H15R 7152   0.299   3.987   5.144 -0.0637 -0.9235  0.8798
   78SLPC  H15S 7153   0.175   4.023   5.016  1.0466  1.0302 -0.2986
   78SLPC  C216 7154   0.092   3.917   5.181  0.3663  0.1147  0.0692
   78SLPC  H16R 7155  -0.013   3.940   5.153 -0.3946  0.5508  2.9283
   78SLPC  H16S 7156   0.100   3.933   5.291 -0.0948 -0.2683  0.1589
   78SLPC  C217 7157   0.124   3.774   5.152  0.0956 -0.1516 -0.7493
   78SLPC  H17R 7158   0.223   3.744   5.193 -0.2757 -1.5899 -0.8580
   78SLPC  H17S 7159   0.110   3.754   5.044 -0.5983 -0.9845 -0.5266
   78SLPC  C218 7160   0.024   3.677   5.230  0.7914 -0.5182  0.2262
   78SLPC  H18R 7161  -0.085   3.683   5.211  0.7875 -1.3689 -0.0416
   78SLPC  H18S 7162   0.041   3.709   5.336 -1.1194  0.1093  0.3801
   78SLPC  H18T 7163   0.057   3.573   5.210  1.4150 -0.4089  0.6345
   78SLPC   C33 7164   0.128   4.807   6.436  0.3784 -0.0766  0.1743
   78SLPC   H3X 7165   0.179   4.906   6.428 -2.0598  1.2894  0.5732
   78SLPC   H3Y 7166   0.020   4.820   6.411  0.5581  0.1068 -0.5463
   78SLPC   C34 7167   0.187   4.701   6.350  0.1077 -0.2388  0.1753
   78SLPC   H4X 7168   0.120   4.613   6.342 -1.8843  1.2573 -0.4787
   78SLPC   H4Y 7169   0.294   4.678   6.373  0.6738  1.4036 -0.6598
   78SLPC   C35 7170   0.202   4.754   6.204 -0.0888  0.9591 -0.7513
   78SLPC   H5X 7171   0.270   4.676   6.165 -0.1994  0.0095  0.8664
   78SLPC   H5Y 7172   0.252   4.853   6.197  0.3604  0.6859 -1.4319
   78SLPC   C36 7173   0.076   4.755   6.122 -0.6558  0.3550  0.3587
   78SLPC   H6X 7174  -0.015   4.781   6.181 -0.6993 -0.4999  0.6752
   78SLPC   H6Y 7175   0.071   4.653   6.080  1.3067  0.2575  0.2440
   78SLPC   C37 7176   0.083   4.857   6.011 -0.0451  0.5391 -0.0769
   78SLPC   H7X 7177   0.111   4.955   6.055  2.3191  0.2258 -0.7236
   78SLPC   H7Y 7178  -0.018   4.865   5.966  0.2194 -1.1048 -1.0297
   78SLPC   C38 7179   0.183   4.823   5.905 -0.9468  0.5794 -0.5058
   78SLPC   H8X 7180   0.167   4.719   5.873 -1.3172  0.3252  0.4655
   78SLPC   H8Y 7181   0.287   4.820   5.945 -1.1141  1.6654  0.0637
   78SLPC   C39 7182   0.183   4.905   5.782 -0.5556  0.1057  0.4176
   78SLPC   H9X 7183   0.207   5.012   5.794 -0.9645  0.0277  2.1628
   78SLPC   H9Y 7184   0.081   4.904   5.738 -0.5158  0.9350  0.2980
   78SLPC  C310 7185   0.277   4.852   5.665 -0.9149 -0.1310  0.6831
   78SLPC  H10X 7186   0.240   4.752   5.636 -0.9097  0.5027 -1.6836
   78SLPC  H10Y 7187   0.378   4.849   5.712 -0.5274  0.9276 -0.0308
   78SLPC  C311 7188   0.281   4.942   5.540 -0.8725 -0.4774  0.0609
   78SLPC  H11X 7189   0.373   4.914   5.485 -0.6314  0.8554 -0.2456
   78SLPC  H11Y 7190   0.294   5.047   5.573 -1.4450  0.0859 -1.4671
   78SLPC  C312 7191   0.163   4.916   5.452 -0.3866 -0.6481  0.5096
   78SLPC  H12X 7192   0.070   4.911   5.513 -0.3714 -1.6440  0.4579
   78SLPC  H12Y 7193   0.163   4.818   5.400 -0.1221  0.1155 -0.9671
   78SLPC  C313 7194   0.145   5.025   5.340  0.1743 -0.1317 -0.0619
   78SLPC  H13X 7195   0.140   5.112   5.409  2.7382 -0.6926  0.9405
   78SLPC  H13Y 7196   0.039   5.019   5.306  0.3836 -1.2788 -0.5607
   78SLPC  C314 7197   0.255   5.034   5.244 -0.0618 -0.2408 -0.0672
   78SLPC  H14X 7198   0.252   4.935   5.193 -3.6415  0.2894 -1.2071
   78SLPC  H14Y 7199   0.354   5.037   5.294 -0.9318 -0.6757  1.7857
   78SLPC  C315 7200   0.223   5.139   5.130 -0.3792  0.1724  0.7579
   78SLPC  H15X 7201   0.228   5.237   5.182  1.0492 -0.1941  1.3751
   78SLPC  H15Y 7202   0.120   5.125   5.091 -0.4792  2.0578  0.2294
   78SLPC  C316 7203   0.329   5.132   5.010 -0.7767  0.2679  0.7558
   78SLPC  H16X 7204   0.353   5.029   4.976  2.7868  1.3988 -0.5883
   78SLPC  H16Y 7205   0.421   5.180   5.048 -0.6669  0.5265  0.1594
   78SLPC  C317 7206   0.268   5.221   4.895 -0.5433  0.1045 -0.6284
   78SLPC  H17X 7207   0.274   5.326   4.930 -1.2747 -0.8889  2.8934
   78SLPC  H17Y 7208   0.160   5.196   4.890 -0.9036  1.6654 -1.1958
   78SLPC  C318 7209   0.336   5.194   4.763 -0.4990 -0.7879  0.1265
   78SLPC  H18X 7210   0.320   5.087   4.737  0.0726 -0.8230 -0.1063
   78SLPC  H18Y 7211   0.445   5.213   4.752 -0.7108 -0.5415 -2.0881
   78SLPC  H18Z 7212   0.283   5.263   4.693  0.6705  0.8106  0.7522
   79SLPC     N 7213   5.484   0.057   7.244  0.3270  0.1964 -0.5486
   79SLPC   C13 7214   5.442  -0.055   7.344  0.4513  0.5786 -0.3066
   79SLPC  H13A 7215   5.360  -0.111   7.302 -0.0562  1.4634 -0.5306
   79SLPC  H13B 7216   5.528  -0.116   7.366 -0.3616 -1.3261 -2.0376
   79SLPC  H13C 7217   5.403   0.001   7.428  0.5654  2.0334 -1.1867
   79SLPC   C14 7218   5.583   0.160   7.297  0.3394 -0.0313 -0.0580
   79SLPC  H14A 7219   5.682   0.118   7.310 -0.1464 -0.9640  0.7612
   79SLPC  H14B 7220   5.581   0.253   7.241  1.1556  0.8087  1.2453
   79SLPC  H14C 7221   5.547   0.194   7.393 -1.0661 -3.1734  0.6352
   79SLPC   C15 7222   5.349   0.116   7.205 -0.3267 -0.7316  0.2163
   79SLPC  H15A 7223   5.291   0.044   7.150  0.0114  0.3098 -1.5665
   79SLPC  H15B 7224   5.299   0.165   7.288  1.6322  2.6173 -0.4041
   79SLPC  H15C 7225   5.359   0.195   7.133 -2.7114 -0.8782 -0.3527
   79SLPC   C12 7226   5.537   0.000   7.121  0.1924  0.1087 -0.2054
   79SLPC  H12A 7227   5.470  -0.081   7.093  2.2827 -1.8500  0.2196
   79SLPC  H12B 7228   5.634  -0.042   7.139  0.0146 -0.8324 -1.3764
   79SLPC   C11 7229   5.557   0.083   6.985 -0.0669  0.4011 -0.0218
   79SLPC  H11A 7230   5.641   0.028   6.937 -1.4653 -1.6536 -0.2518
   79SLPC  H11B 7231   5.592   0.181   7.023 -2.7586  1.1661  0.7149
   79SLPC     P 7232   5.380  -0.002   6.807  0.0489 -0.3736 -0.1767
   79SLPC   O13 7233   5.389  -0.134   6.870 -0.3905 -0.4422  0.1101
   79SLPC   O14 7234   5.246   0.038   6.759  0.6352 -0.9043  0.2857
   79SLPC   O12 7235   5.429   0.103   6.916  0.2070  0.2907 -0.2246
   79SLPC   O11 7236   5.490   0.012   6.690  0.1295 -0.9007  0.1903
   79SLPC    C1 7237   5.525   0.148   6.645 -0.3734 -0.1072 -0.5670
   79SLPC    HA 7238   5.537   0.215   6.733 -0.9481 -2.1757  1.1854
   79SLPC    HB 7239   5.616   0.144   6.583 -0.2613  0.9169 -0.4909
   79SLPC    C2 7240   5.421   0.213   6.558  0.4683 -0.7300  0.7356
   79SLPC    HS 7241   5.319   0.180   6.590 -0.1463 -0.2710 -0.6961
   79SLPC   O21 7242   5.452   0.177   6.424  0.1713  0.5749 -0.3269
   79SLPC   C21 7243   5.355   0.154   6.342  0.1836  0.3919  0.0190
   79SLPC   O22 7244   5.238   0.160   6.372 -0.2839 -0.0072  0.6214
   79SLPC   C22 7245   5.392   0.116   6.207  0.2749 -0.3606 -0.4027
   79SLPC   H2R 7246   5.502   0.106   6.197  0.4109  0.9317 -0.3435
   79SLPC   H2S 7247   5.345   0.018   6.182 -0.4638 -0.5106  1.4606
   79SLPC    C3 7248   5.428   0.369   6.576  0.0558 -0.2388 -0.7785
   79SLPC    HX 7249   5.536   0.396   6.571 -0.6164  2.6275 -1.2196
   79SLPC    HY 7250   5.403   0.397   6.680  1.9392 -3.3717  0.6837
   79SLPC   O31 7251   5.364   0.443   6.479 -0.2345 -0.2749  0.7147
   79SLPC   C31 7252   5.231   0.462   6.493 -0.1691  0.7463  0.1702
   79SLPC   O32 7253   5.167   0.412   6.585  0.1926  0.0727  0.2486
   79SLPC   C32 7254   5.169   0.545   6.385 -0.6522 -0.2545  0.4872
   79SLPC   H2X 7255   5.225   0.641   6.395  1.1730 -1.2430 -0.0327
   79SLPC   H2Y 7256   5.067   0.562   6.426 -0.3938  1.5085  0.4772
   79SLPC   C23 7257   5.336   0.197   6.082 -0.1670 -0.2421  0.3477
   79SLPC   H3R 7258   5.343   0.305   6.107 -0.3006  0.5053 -2.4299
   79SLPC   H3S 7259   5.230   0.175   6.056  0.2792 -1.3790 -0.5763
   79SLPC   C24 7260   5.423   0.166   5.962  0.3305  0.7944  0.5031
   79SLPC   H4R 7261   5.412   0.058   5.942 -0.2910  0.2817  3.1904
   79SLPC   H4S 7262   5.528   0.170   5.997  0.7651  0.2182 -0.7010
   79SLPC   C25 7263   5.398   0.248   5.837  0.2735 -0.2032  0.6218
   79SLPC   H5R 7264   5.436   0.351   5.852  1.1274 -0.0488 -2.0021
   79SLPC   H5S 7265   5.292   0.252   5.804  0.6265  0.2638 -0.5239
   79SLPC   C26 7266   5.477   0.184   5.717  0.0429 -0.3111  0.5968
   79SLPC   H6R 7267   5.466   0.075   5.730  1.0032 -0.4220  0.5185
   79SLPC   H6S 7268   5.583   0.213   5.734 -0.8527  3.4053  0.7182
   79SLPC   C27 7269   5.426   0.213   5.572 -0.0191 -0.0166 -0.3410
   79SLPC   H7R 7270   5.409   0.322   5.557  0.5777  0.1506  0.1336
   79SLPC   H7S 7271   5.338   0.148   5.552  0.4656 -0.8037  0.0185
   79SLPC   C28 7272   5.527   0.169   5.462 -0.2441 -0.4886  0.7873
   79SLPC   H8R 7273   5.532   0.059   5.474  0.9770 -0.7579 -1.7143
   79SLPC   H8S 7274   5.627   0.208   5.491  0.1909 -1.4066  0.5534
   79SLPC   C29 7275   5.481   0.207   5.324 -0.3004  0.5175 -0.1070
   79SLPC   H9R 7276   5.372   0.206   5.308  0.0508 -0.0513 -3.1258
   79SLPC  C210 7277   5.548   0.255   5.216 -1.2144  0.2206 -0.3922
   79SLPC  H10R 7278   5.498   0.290   5.125  0.2712  1.0446 -0.9278
   79SLPC  C211 7279   5.703   0.270   5.209 -0.0136  0.5246 -0.1847
   79SLPC  H11R 7280   5.740   0.253   5.105  0.0321 -0.0701 -0.0759
   79SLPC  H11S 7281   5.760   0.202   5.275 -1.6707  0.1712  0.9473
   79SLPC  C212 7282   5.737   0.413   5.248 -0.3867  1.2045  0.7712
   79SLPC  H12R 7283   5.715   0.444   5.351 -0.8788  2.1830  0.3883
   79SLPC  C213 7284   5.777   0.503   5.154 -0.0144  0.0667  0.0535
   79SLPC  H13R 7285   5.787   0.608   5.185 -1.4384 -0.2656  1.7843
   79SLPC  C214 7286   5.803   0.497   5.005 -0.0166  0.0535  0.2881
   79SLPC  H14R 7287   5.855   0.401   4.983 -0.2995 -0.3641  1.3980
   79SLPC  H14S 7288   5.869   0.582   4.975 -0.9196  1.2553  1.5664
   79SLPC  C215 7289   5.668   0.509   4.929 -0.6596  0.4225 -0.4509
   79SLPC  H15R 7290   5.591   0.438   4.967 -1.5168  1.9805  0.8441
   79SLPC  H15S 7291   5.691   0.502   4.820  2.4753  1.7235  0.0327
   79SLPC  C216 7292   5.590   0.637   4.959 -0.1012 -0.2993 -0.4157
   79SLPC  H16R 7293   5.577   0.649   5.069  0.3874 -1.7954 -0.1714
   79SLPC  H16S 7294   5.486   0.622   4.923 -0.0355  1.8459 -1.6812
   79SLPC  C217 7295   5.650   0.770   4.900 -0.0202 -0.8571  0.6691
   79SLPC  H17R 7296   5.647   0.761   4.789  1.7089  2.3380  0.2445
   79SLPC  H17S 7297   5.761   0.768   4.915  0.3345  1.5197 -1.0353
   79SLPC  C218 7298   5.599   0.909   4.945  0.9036  0.1296  0.3340
   79SLPC  H18R 7299   5.621   0.936   5.050 -0.5478 -2.1083  1.2884
   79SLPC  H18S 7300   5.488   0.898   4.944  0.7229  1.3936 -1.9309
   79SLPC  H18T 7301   5.630   1.000   4.888  1.5333  0.0731  0.5871
   79SLPC   C33 7302   5.167   0.475   6.244  0.8639  0.2655 -0.4657
   79SLPC   H3X 7303   5.133   0.369   6.243 -3.1518  1.3900 -0.6871
   79SLPC   H3Y 7304   5.266   0.485   6.193  0.6296  2.4007 -0.5711
   79SLPC   C34 7305   5.059   0.550   6.173  0.7466  0.0235  0.8070
   79SLPC   H4X 7306   5.078   0.659   6.165 -1.7210  0.5090  0.9236
   79SLPC   H4Y 7307   4.970   0.552   6.239  0.8752 -1.4882  1.0604
   79SLPC   C35 7308   5.014   0.500   6.036 -0.6375 -0.2489  0.1681
   79SLPC   H5X 7309   4.908   0.530   6.018  0.0150  1.6946 -0.7473
   79SLPC   H5Y 7310   5.007   0.390   6.024 -2.2031  0.1336 -3.6663
   79SLPC   C36 7311   5.090   0.570   5.927  0.3388 -0.3360 -0.6092
   79SLPC   H6X 7312   5.197   0.541   5.937  0.7216  1.1138 -0.3490
   79SLPC   H6Y 7313   5.091   0.681   5.932 -3.2042 -0.1428 -1.6705
   79SLPC   C37 7314   5.046   0.531   5.797  0.0989 -0.4885  1.0461
   79SLPC   H7X 7315   4.946   0.575   5.776  0.3450 -0.0206  0.8452
   79SLPC   H7Y 7316   5.035   0.421   5.793  0.0853 -0.4677  0.3454
   79SLPC   C38 7317   5.148   0.582   5.696 -0.0340 -0.1999  0.3179
   79SLPC   H8X 7318   5.248   0.553   5.734  0.7387  1.1056 -0.6330
   79SLPC   H8Y 7319   5.143   0.692   5.689 -1.9212 -0.2066  1.0740
   79SLPC   C39 7320   5.126   0.533   5.551  0.3611  0.4300  0.0887
   79SLPC   H9X 7321   5.028   0.572   5.518  0.4960 -0.4794 -1.4638
   79SLPC   H9Y 7322   5.134   0.423   5.545  3.1399  0.3548  2.4894
   79SLPC  C310 7323   5.230   0.593   5.455  0.4503  0.2434  0.2881
   79SLPC  H10X 7324   5.335   0.565   5.481  0.8789 -0.0918 -1.6671
   79SLPC  H10Y 7325   5.216   0.703   5.463  0.8783  0.2667  0.8084
   79SLPC  C311 7326   5.207   0.540   5.308 -0.0862 -0.4858 -0.2439
   79SLPC  H11X 7327   5.106   0.572   5.275  0.9575  1.4191 -1.8676
   79SLPC  H11Y 7328   5.218   0.430   5.304  2.5094 -0.2651 -2.1653
   79SLPC  C312 7329   5.306   0.607   5.211 -0.0172 -0.3376  0.2851
   79SLPC  H12X 7330   5.324   0.542   5.123  0.1833 -0.7979  0.6644
   79SLPC  H12Y 7331   5.400   0.610   5.269  0.8643  2.4057 -1.0800
   79SLPC  C313 7332   5.260   0.749   5.162 -0.3162  0.1398 -0.4169
   79SLPC  H13X 7333   5.350   0.802   5.127  0.0546  0.4421  0.9424
   79SLPC  H13Y 7334   5.228   0.800   5.255  3.5071 -1.8413  2.2828
   79SLPC  C314 7335   5.163   0.752   5.042 -0.7122  0.9141  0.2075
   79SLPC  H14X 7336   5.129   0.857   5.025  0.4460  1.3042  0.2483
   79SLPC  H14Y 7337   5.073   0.688   5.053 -0.0492 -0.2202 -0.7617
   79SLPC  C315 7338   5.223   0.702   4.914 -0.2127  0.2678  0.1424
   79SLPC  H15X 7339   5.245   0.594   4.930 -1.1907  0.2700  1.6783
   79SLPC  H15Y 7340   5.326   0.744   4.906  0.5649 -1.2106  1.9327
   79SLPC  C316 7341   5.136   0.727   4.796  0.1582  0.0363  0.2115
   79SLPC  H16X 7342   5.090   0.828   4.806 -0.4247 -0.1656 -0.3467
   79SLPC  H16Y 7343   5.059   0.647   4.802 -2.0200  1.9449 -0.6411
   79SLPC  C317 7344   5.201   0.710   4.656 -0.8171 -0.0901 -0.3038
   79SLPC  H17X 7345   5.252   0.613   4.637 -0.3399  0.2536 -0.7923
   79SLPC  H17Y 7346   5.287   0.780   4.651 -0.8862 -0.0479 -0.9255
   79SLPC  C318 7347   5.102   0.749   4.548 -0.7889  0.1666  0.0399
   79SLPC  H18X 7348   5.022   0.673   4.542  0.3090 -0.9217 -1.6513
   79SLPC  H18Y 7349   5.145   0.774   4.449 -1.7416 -2.1560 -1.0237
   79SLPC  H18Z 7350   5.057   0.847   4.573 -2.6145 -0.4007 -0.8517
   80SLPC     N 7351   5.179   3.745   7.174  0.8219  0.2939  0.0678
   80SLPC   C13 7352   5.070   3.730   7.270 -0.0359 -0.6020  0.5591
   80SLPC  H13A 7353   5.000   3.811   7.261  1.0004  0.3661  1.0765
   80SLPC  H13B 7354   5.010   3.643   7.247  0.3528 -0.4046 -1.4510
   80SLPC  H13C 7355   5.114   3.728   7.368  1.2666 -3.4182  0.0289
   80SLPC   C14 7356   5.256   3.616   7.168  1.3695  0.3656 -0.1380
   80SLPC  H14A 7357   5.178   3.545   7.146  1.5303 -0.4553  1.7839
   80SLPC  H14B 7358   5.333   3.617   7.091  0.3397  0.6900 -1.1994
   80SLPC  H14C 7359   5.289   3.576   7.262  1.4241 -1.7345 -0.9891
   80SLPC   C15 7360   5.271   3.856   7.212 -0.2060 -0.3075 -0.3498
   80SLPC  H15A 7361   5.223   3.952   7.221  2.3619  0.9801  0.5801
   80SLPC  H15B 7362   5.304   3.837   7.312 -1.1041  1.1693  0.2556
   80SLPC  H15C 7363   5.347   3.874   7.138 -1.5067  2.6828 -1.1105
   80SLPC   C12 7364   5.128   3.759   7.035  0.7044  0.0491 -0.7130
   80SLPC  H12A 7365   5.066   3.674   7.011  0.5446 -0.8602  2.4267
   80SLPC  H12B 7366   5.204   3.771   6.959  0.6906 -0.2725 -0.7769
   80SLPC   C11 7367   5.025   3.882   7.001  0.0849  0.4809  0.1168
   80SLPC  H11A 7368   5.025   3.896   6.891  0.2440 -2.8589 -0.4110
   80SLPC  H11B 7369   5.088   3.969   7.029 -1.3715  0.4261  4.2299
   80SLPC     P 7370   4.791   3.787   7.035 -0.5016 -0.1652 -0.1591
   80SLPC   O13 7371   4.845   3.652   7.053  0.2301  0.2612  0.7290
   80SLPC   O14 7372   4.669   3.819   7.115  0.1799  0.1713  0.1294
   80SLPC   O12 7373   4.900   3.887   7.068 -0.0105  0.3101 -0.5213
   80SLPC   O11 7374   4.756   3.809   6.878  0.0128  0.0365 -0.4253
   80SLPC    C1 7375   4.750   3.943   6.825  0.3212 -0.0130 -0.2197
   80SLPC    HA 7376   4.727   4.014   6.908 -0.7973  0.4670 -0.9193
   80SLPC    HB 7377   4.850   3.968   6.782  0.1109 -1.5569 -1.6861
   80SLPC    C2 7378   4.643   3.966   6.709  0.7746  0.0322 -0.1390
   80SLPC    HS 7379   4.555   3.908   6.746  0.6894 -0.3644 -0.9318
   80SLPC   O21 7380   4.697   3.909   6.586  0.3255  0.0462 -0.0967
   80SLPC   C21 7381   4.617   3.829   6.518 -0.4119  0.2644 -0.4984
   80SLPC   O22 7382   4.502   3.799   6.546  0.7553 -0.1943 -0.2564
   80SLPC   C22 7383   4.688   3.777   6.390 -0.2559  0.0641 -0.9077
   80SLPC   H2R 7384   4.739   3.863   6.341  0.8405 -0.7049 -1.1584
   80SLPC   H2S 7385   4.759   3.703   6.431  0.7255  1.4349 -0.0463
   80SLPC    C3 7386   4.605   4.114   6.685  0.5764  0.3817 -0.4033
   80SLPC    HX 7387   4.695   4.176   6.666 -0.2536  2.1522  1.0905
   80SLPC    HY 7388   4.578   4.154   6.785 -1.7556 -0.2496 -0.7172
   80SLPC   O31 7389   4.498   4.126   6.581 -0.3890 -0.2089 -0.3283
   80SLPC   C31 7390   4.383   4.090   6.629 -0.6626  0.4431 -0.4004
   80SLPC   O32 7391   4.364   4.054   6.744  0.1535 -0.1052  0.3887
   80SLPC   C32 7392   4.272   4.105   6.519 -0.0992 -0.0829  0.0719
   80SLPC   H2X 7393   4.262   4.215   6.516 -2.1986 -0.1578  1.8950
   80SLPC   H2Y 7394   4.174   4.061   6.546  0.8620 -3.5045 -1.3495
   80SLPC   C23 7395   4.597   3.707   6.291 -0.5572 -0.3422  0.2812
   80SLPC   H3R 7396   4.499   3.758   6.279 -0.3435 -0.0131 -0.1057
   80SLPC   H3S 7397   4.567   3.609   6.334 -1.6951 -0.8137 -1.4698
   80SLPC   C24 7398   4.669   3.674   6.160 -0.2129  0.0255 -0.7208
   80SLPC   H4R 7399   4.753   3.606   6.183  0.0345  0.8223  0.8676
   80SLPC   H4S 7400   4.721   3.765   6.121  0.7577 -0.2614 -0.1244
   80SLPC   C25 7401   4.576   3.609   6.056 -0.2638  0.2316 -0.5774
   80SLPC   H5R 7402   4.490   3.673   6.029  0.3159  1.6296  0.7585
   80SLPC   H5S 7403   4.535   3.511   6.090  0.6201 -0.4747 -1.4658
   80SLPC   C26 7404   4.656   3.563   5.924  0.2416 -0.4024 -1.0452
   80SLPC   H6R 7405   4.731   3.491   5.962 -1.1957 -1.5260 -0.2094
   80SLPC   H6S 7406   4.715   3.643   5.874  2.1184  0.1872  1.8547
   80SLPC   C27 7407   4.573   3.489   5.826  0.2951 -0.0024 -0.0738
   80SLPC   H7R 7408   4.517   3.560   5.761  0.8713  2.2648  1.7326
   80SLPC   H7S 7409   4.505   3.420   5.880 -1.2015  0.4951 -1.2482
   80SLPC   C28 7410   4.653   3.400   5.732 -0.4513  0.0005  0.1147
   80SLPC   H8R 7411   4.714   3.332   5.794 -0.7607 -1.7565 -1.4446
   80SLPC   H8S 7412   4.732   3.461   5.683  0.8699  0.0794  2.2386
   80SLPC   C29 7413   4.567   3.325   5.638 -0.9396  0.8260  0.5815
   80SLPC   H9R 7414   4.484   3.380   5.591 -2.5630 -1.5070  0.5084
   80SLPC  C210 7415   4.574   3.195   5.601 -0.8961 -0.0954 -0.2340
   80SLPC  H10R 7416   4.491   3.150   5.546 -1.5446  0.5151  0.2188
   80SLPC  C211 7417   4.692   3.112   5.658  0.4466  0.3314 -0.2600
   80SLPC  H11R 7418   4.668   3.079   5.762 -2.5648  1.1508 -0.5956
   80SLPC  H11S 7419   4.783   3.175   5.674  2.0670 -1.8651 -0.3476
   80SLPC  C212 7420   4.724   2.996   5.568  0.4144  0.1784 -0.6066
   80SLPC  H12R 7421   4.747   3.018   5.462 -0.3875  0.8554 -0.6532
   80SLPC  C213 7422   4.736   2.868   5.607 -0.6730  0.3211 -0.1783
   80SLPC  H13R 7423   4.756   2.786   5.537 -0.4782  0.0011  0.2457
   80SLPC  C214 7424   4.704   2.811   5.743  0.1338  0.3371  0.2091
   80SLPC  H14R 7425   4.729   2.881   5.825 -1.6562 -2.4148  3.3417
   80SLPC  H14S 7426   4.767   2.723   5.769  1.0461  0.0983 -2.5345
   80SLPC  C215 7427   4.563   2.777   5.774  0.5206 -0.5850 -1.2810
   80SLPC  H15R 7428   4.501   2.868   5.761  1.0094  0.1034  0.8494
   80SLPC  H15S 7429   4.557   2.752   5.882  1.9532 -0.9434 -1.2678
   80SLPC  C216 7430   4.507   2.649   5.703  0.3339  0.9111 -0.2263
   80SLPC  H16R 7431   4.556   2.558   5.742  0.8136  0.6550 -1.3925
   80SLPC  H16S 7432   4.516   2.651   5.593  0.8032 -0.4336 -0.2252
   80SLPC  C217 7433   4.360   2.635   5.727  0.2400  0.0163 -0.0828
   80SLPC  H17R 7434   4.313   2.728   5.689 -0.8427 -0.1578  0.7556
   80SLPC  H17S 7435   4.349   2.642   5.838  0.1700 -1.7971  0.0610
   80SLPC  C218 7436   4.288   2.501   5.693 -0.0750 -0.6002 -0.2562
   80SLPC  H18R 7437   4.183   2.512   5.727 -0.1506 -0.3856 -0.5562
   80SLPC  H18S 7438   4.350   2.422   5.739  0.3747 -0.2592 -0.2689
   80SLPC  H18T 7439   4.282   2.498   5.582 -1.9267 -0.4180 -0.1908
   80SLPC   C33 7440   4.313   4.045   6.384 -0.5174  0.1224  0.2290
   80SLPC   H3X 7441   4.299   3.935   6.389  0.7227 -0.0601 -0.0194
   80SLPC   H3Y 7442   4.418   4.079   6.369 -1.1154  1.7308 -0.6926
   80SLPC   C34 7443   4.232   4.095   6.263 -0.2522  0.7242 -0.0146
   80SLPC   H4X 7444   4.244   4.206   6.262 -1.5920  1.0377 -4.3958
   80SLPC   H4Y 7445   4.127   4.058   6.269 -0.6310  1.1997 -2.4829
   80SLPC   C35 7446   4.286   4.051   6.124  0.4822 -0.5123 -0.5678
   80SLPC   H5X 7447   4.291   3.941   6.113 -0.2157 -0.7421  1.1333
   80SLPC   H5Y 7448   4.392   4.084   6.112  0.6642 -1.1296 -0.6815
   80SLPC   C36 7449   4.210   4.113   6.005  1.1863 -0.2158  0.7975
   80SLPC   H6X 7450   4.212   4.223   5.987 -1.5408 -0.2777 -0.3508
   80SLPC   H6Y 7451   4.102   4.087   6.015  1.4894 -1.7828  0.2339
   80SLPC   C37 7452   4.271   4.050   5.879  0.2742  0.2426  0.1549
   80SLPC   H7X 7453   4.285   3.940   5.889  0.9664  0.2823 -0.2927
   80SLPC   H7Y 7454   4.373   4.095   5.869 -0.1948  1.3108  0.0071
   80SLPC   C38 7455   4.184   4.080   5.753 -0.9406 -0.2392 -0.6592
   80SLPC   H8X 7456   4.159   4.188   5.747 -2.0785 -0.1216  3.2707
   80SLPC   H8Y 7457   4.088   4.025   5.758 -0.7845 -0.5520 -1.1096
   80SLPC   C39 7458   4.245   4.027   5.619  0.4501  0.4692 -0.0835
   80SLPC   H9X 7459   4.346   4.070   5.603 -0.0608  2.0809  0.7304
   80SLPC   H9Y 7460   4.178   4.069   5.541 -0.3547 -0.2595  0.2002
   80SLPC  C310 7461   4.238   3.873   5.607 -0.3100  0.3214  0.8666
   80SLPC  H10X 7462   4.132   3.845   5.624 -0.3805  0.3463  0.4791
   80SLPC  H10Y 7463   4.293   3.823   5.689 -0.7896 -2.6386 -0.5173
   80SLPC  C311 7464   4.294   3.815   5.476 -0.1592 -0.0357  0.2595
   80SLPC  H11X 7465   4.397   3.852   5.455 -0.2804  1.1083  1.5714
   80SLPC  H11Y 7466   4.233   3.840   5.387  0.6446 -2.2062 -1.0007
   80SLPC  C312 7467   4.290   3.660   5.483  0.5390  1.3017  0.4813
   80SLPC  H12X 7468   4.201   3.634   5.545 -0.8378 -1.4579 -2.3837
   80SLPC  H12Y 7469   4.375   3.615   5.538 -0.1473 -3.8265 -2.0742
   80SLPC  C313 7470   4.291   3.577   5.346  0.5950 -0.7531  0.1805
   80SLPC  H13X 7471   4.199   3.592   5.284  1.1065 -3.0799 -1.2539
   80SLPC  H13Y 7472   4.295   3.470   5.372 -0.4007 -1.1396 -1.1407
   80SLPC  C314 7473   4.413   3.622   5.262  0.4801  0.4515 -0.2335
   80SLPC  H14X 7474   4.423   3.733   5.265  1.4386  0.3461  2.2288
   80SLPC  H14Y 7475   4.389   3.595   5.157 -0.4595  1.1828 -0.2193
   80SLPC  C315 7476   4.544   3.558   5.299  0.4177  0.5765 -0.7430
   80SLPC  H15X 7477   4.532   3.447   5.306 -0.7599  0.7095 -0.4738
   80SLPC  H15Y 7478   4.578   3.593   5.399  0.7652 -0.9894 -0.2677
   80SLPC  C316 7479   4.655   3.589   5.204 -0.3486  0.8963  0.3403
   80SLPC  H16X 7480   4.677   3.698   5.198 -0.8217  1.0950  1.7678
   80SLPC  H16Y 7481   4.620   3.560   5.103 -0.2038 -0.7538  0.7241
   80SLPC  C317 7482   4.796   3.524   5.234  0.4206  0.6618  0.6346
   80SLPC  H17X 7483   4.866   3.551   5.152 -2.0114 -1.3435 -2.3233
   80SLPC  H17Y 7484   4.786   3.414   5.238  0.6441  0.5426 -1.1592
   80SLPC  C318 7485   4.847   3.573   5.364  0.4031  0.4194  0.1615
   80SLPC  H18X 7486   4.954   3.547   5.382  1.2779  2.2866 -1.9323
   80SLPC  H18Y 7487   4.785   3.535   5.448  0.0746  0.0203 -0.2621
   80SLPC  H18Z 7488   4.853   3.684   5.364 -1.0417  0.5200 -0.4774
   81SLPC     N 7489   6.123   6.516   2.322  0.6281  0.3582  0.3743
   81SLPC   C13 7490   6.011   6.614   2.319  0.0143 -0.0513  0.1572
   81SLPC  H13A 7491   5.988   6.638   2.216 -1.2736 -1.0051  0.1915
   81SLPC  H13B 7492   5.918   6.572   2.355  0.4658 -0.9307  0.3016
   81SLPC  H13C 7493   6.044   6.702   2.372  0.7034  0.2287 -0.6987
   81SLPC   C14 7494   6.253   6.583   2.277  0.0925 -0.6038 -0.6469
   81SLPC  H14A 7495   6.256   6.609   2.172  1.7645  1.5010 -0.1283
   81SLPC  H14B 7496   6.270   6.679   2.323 -0.5709 -0.9740  0.4077
   81SLPC  H14C 7497   6.335   6.517   2.300  1.1290  0.1474 -2.0720
   81SLPC   C15 7498   6.091   6.415   2.212  0.0996 -0.2916 -0.1714
   81SLPC  H15A 7499   6.014   6.347   2.245 -2.5296  1.6184 -1.9779
   81SLPC  H15B 7500   6.060   6.469   2.125 -1.9568  0.7580  1.1423
   81SLPC  H15C 7501   6.175   6.350   2.192  0.0305 -1.0006  1.6534
   81SLPC   C12 7502   6.150   6.454   2.460  1.0024  0.3136  0.3678
   81SLPC  H12A 7503   6.063   6.393   2.483  0.5310  0.5320 -0.7497
   81SLPC  H12B 7504   6.145   6.538   2.528 -1.5250  1.5823 -1.2299
   81SLPC   C11 7505   6.274   6.354   2.484  0.3670  0.0948 -0.0256
   81SLPC  H11A 7506   6.257   6.285   2.399 -0.6988 -0.0750  0.3107
   81SLPC  H11B 7507   6.272   6.299   2.580 -0.8282 -1.2752 -0.7998
   81SLPC     P 7508   6.537   6.360   2.486 -0.1728  0.0043 -0.5807
   81SLPC   O13 7509   6.531   6.214   2.456  0.3261 -0.3583  0.5903
   81SLPC   O14 7510   6.635   6.447   2.421 -0.0352 -0.0052  0.1374
   81SLPC   O12 7511   6.393   6.427   2.474  0.1586  0.3715  0.0427
   81SLPC   O11 7512   6.557   6.377   2.642 -0.4477  0.1234  0.0613
   81SLPC    C1 7513   6.493   6.294   2.741  0.2790 -0.3544  0.0882
   81SLPC    HA 7514   6.404   6.334   2.795  0.0822 -0.8362  0.1355
   81SLPC    HB 7515   6.464   6.201   2.688  2.1658 -0.9252  0.0099
   81SLPC    C2 7516   6.591   6.252   2.858  0.8508 -0.1116 -0.5873
   81SLPC    HS 7517   6.532   6.196   2.934  0.1496 -1.0051 -1.7507
   81SLPC   O21 7518   6.670   6.363   2.917  0.3677  0.2723  0.1493
   81SLPC   C21 7519   6.605   6.439   2.996 -0.6016  0.4051 -0.1392
   81SLPC   O22 7520   6.487   6.442   3.025 -0.7033 -0.2068 -0.6676
   81SLPC   C22 7521   6.707   6.539   3.061 -0.3012  0.3088 -0.4163
   81SLPC   H2R 7522   6.730   6.603   2.972  0.7410 -0.9466 -1.0825
   81SLPC   H2S 7523   6.666   6.595   3.147  0.2438  1.2090 -0.7232
   81SLPC    C3 7524   6.690   6.147   2.810  0.1792  0.7757 -0.2589
   81SLPC    HX 7525   6.732   6.180   2.713  1.1234  1.5477  0.3932
   81SLPC    HY 7526   6.631   6.059   2.777  1.1690 -0.2378  0.5422
   81SLPC   O31 7527   6.791   6.116   2.909  0.6107 -0.1796  0.3055
   81SLPC   C31 7528   6.766   6.014   2.983 -0.3146 -0.1486  0.0885
   81SLPC   O32 7529   6.673   5.938   2.975 -0.2574 -0.2039 -0.5030
   81SLPC   C32 7530   6.862   6.001   3.100  0.1122 -0.5952 -0.0253
   81SLPC   H2X 7531   6.935   6.084   3.086 -1.6541  0.8391 -1.3579
   81SLPC   H2Y 7532   6.909   5.901   3.089  1.7782 -0.1430  2.3651
   81SLPC   C23 7533   6.843   6.475   3.112  0.5568  0.7265 -0.3549
   81SLPC   H3R 7534   6.923   6.551   3.095 -0.2604  1.8808  0.7584
   81SLPC   H3S 7535   6.868   6.395   3.039  1.6791  1.7217 -1.1059
   81SLPC   C24 7536   6.842   6.427   3.257  0.1270 -0.8435 -0.5862
   81SLPC   H4R 7537   6.865   6.512   3.324 -1.0542 -1.7569  1.0459
   81SLPC   H4S 7538   6.921   6.349   3.266  1.6385  0.7134  0.2994
   81SLPC   C25 7539   6.707   6.366   3.312 -0.0925 -1.0613  1.2467
   81SLPC   H5R 7540   6.671   6.301   3.230 -3.7053  1.2488  0.7565
   81SLPC   H5S 7541   6.629   6.445   3.308 -1.3407 -2.3188 -0.3841
   81SLPC   C26 7542   6.702   6.309   3.451  0.2307 -0.0868  0.4554
   81SLPC   H6R 7543   6.744   6.207   3.452 -0.2933 -0.3590 -1.2055
   81SLPC   H6S 7544   6.595   6.293   3.478  0.0211  1.5272  0.7015
   81SLPC   C27 7545   6.763   6.397   3.556  0.1205 -0.9381 -0.0446
   81SLPC   H7R 7546   6.731   6.502   3.566  0.9430 -0.6170 -0.6851
   81SLPC   H7S 7547   6.870   6.399   3.525 -0.5241 -1.3992 -2.5753
   81SLPC   C28 7548   6.742   6.336   3.691  0.1780 -0.5308  0.1769
   81SLPC   H8R 7549   6.754   6.225   3.696  0.7391 -0.5375 -1.0551
   81SLPC   H8S 7550   6.634   6.349   3.716 -0.4017 -3.1775 -0.6209
   81SLPC   C29 7551   6.831   6.418   3.785 -0.6035 -0.2428 -0.1205
   81SLPC   H9R 7552   6.937   6.416   3.756 -1.0935 -1.6103 -1.9374
   81SLPC  C210 7553   6.798   6.447   3.913  0.4439 -0.5250  0.0529
   81SLPC  H10R 7554   6.874   6.495   3.976 -1.1280  3.4841 -0.7856
   81SLPC  C211 7555   6.660   6.416   3.975 -0.0795 -0.1558  0.3632
   81SLPC  H11R 7556   6.578   6.438   3.904  1.3144 -0.2523 -1.3387
   81SLPC  H11S 7557   6.646   6.505   4.039 -0.1280  2.1258 -2.6144
   81SLPC  C212 7558   6.649   6.277   4.031  0.1313 -0.2076 -0.2167
   81SLPC  H12R 7559   6.706   6.199   3.978  0.4374  0.0349 -0.2419
   81SLPC  C213 7560   6.571   6.239   4.134 -1.0802  0.5177 -0.3803
   81SLPC  H13R 7561   6.555   6.132   4.154 -0.4752  1.0086  3.4058
   81SLPC  C214 7562   6.501   6.332   4.229 -0.1966 -0.2114 -0.0348
   81SLPC  H14R 7563   6.403   6.282   4.246 -0.4075 -0.0484 -0.7308
   81SLPC  H14S 7564   6.473   6.432   4.191 -0.6679  0.1626  1.2310
   81SLPC  C215 7565   6.563   6.348   4.369 -0.2945 -0.7837 -0.1105
   81SLPC  H15R 7566   6.663   6.386   4.341 -0.9541 -0.7363 -2.6845
   81SLPC  H15S 7567   6.574   6.250   4.420 -1.4310 -0.3341  1.0530
   81SLPC  C216 7568   6.500   6.453   4.462 -0.4780 -0.0617  0.2347
   81SLPC  H16R 7569   6.391   6.432   4.462 -0.5307  0.0296 -1.3278
   81SLPC  H16S 7570   6.509   6.556   4.421 -0.6942 -1.0396 -2.4590
   81SLPC  C217 7571   6.554   6.460   4.606 -0.3594 -0.1896 -0.1663
   81SLPC  H17R 7572   6.665   6.458   4.609 -0.3813 -1.0378  1.9284
   81SLPC  H17S 7573   6.527   6.367   4.660 -1.7145  0.7778  0.8933
   81SLPC  C218 7574   6.495   6.589   4.674  0.5267  0.5013 -0.2735
   81SLPC  H18R 7575   6.538   6.583   4.776  0.3085 -2.0777 -0.2704
   81SLPC  H18S 7576   6.384   6.590   4.665  0.5489  0.9319 -0.5655
   81SLPC  H18T 7577   6.535   6.683   4.630 -0.0677  1.4028  1.0417
   81SLPC   C33 7578   6.798   5.995   3.237 -0.5675  0.3124  0.6854
   81SLPC   H3X 7579   6.710   5.931   3.215 -0.8710  0.6231  0.9739
   81SLPC   H3Y 7580   6.762   6.094   3.272  2.4080  2.8863 -2.8515
   81SLPC   C34 7581   6.901   5.932   3.339  0.6372 -0.0983 -0.4341
   81SLPC   H4X 7582   6.940   5.833   3.305  1.9623 -0.2003  1.2542
   81SLPC   H4Y 7583   6.839   5.921   3.430  0.0084  0.2874 -0.8095
   81SLPC   C35 7584   7.022   6.025   3.380  0.3233  0.3525 -0.3575
   81SLPC   H5X 7585   6.976   6.124   3.401  2.5783  1.3208  0.3519
   81SLPC   H5Y 7586   7.100   6.021   3.301 -1.1214 -0.2031 -1.8033
   81SLPC   C36 7587   7.088   5.984   3.517 -0.0954 -0.5271  0.1122
   81SLPC   H6X 7588   7.160   6.066   3.539  0.7267 -0.3201 -2.8837
   81SLPC   H6Y 7589   7.138   5.885   3.510  0.0408 -0.7746  3.1722
   81SLPC   C37 7590   6.987   5.971   3.627 -0.5930 -0.3958 -0.3557
   81SLPC   H7X 7591   6.930   5.876   3.613  0.7796 -1.1851 -0.7187
   81SLPC   H7Y 7592   6.914   6.054   3.637  1.1266  1.2848 -1.1996
   81SLPC   C38 7593   7.065   5.960   3.763  0.0648  0.4552 -0.3192
   81SLPC   H8X 7594   7.147   5.889   3.740 -0.5952  0.4782 -3.1243
   81SLPC   H8Y 7595   6.998   5.901   3.828 -0.5397  0.2683 -1.0883
   81SLPC   C39 7596   7.131   6.092   3.819 -0.3801 -0.1749  0.5885
   81SLPC   H9X 7597   7.046   6.164   3.825 -0.2897 -0.0335  0.1876
   81SLPC   H9Y 7598   7.211   6.125   3.750 -1.5635 -0.0729 -0.7919
   81SLPC  C310 7599   7.183   6.058   3.952 -0.0229  0.2332 -0.3433
   81SLPC  H10X 7600   7.254   5.974   3.941 -1.6469 -1.2151 -0.1921
   81SLPC  H10Y 7601   7.097   6.012   4.005 -1.3871  1.4630 -1.3788
   81SLPC  C311 7602   7.246   6.174   4.028  0.0337 -0.2584 -0.2761
   81SLPC  H11X 7603   7.172   6.257   4.028  0.2739  0.0060 -2.1463
   81SLPC  H11Y 7604   7.339   6.202   3.974  1.1565 -0.2767  1.5779
   81SLPC  C312 7605   7.283   6.138   4.177  0.1174  0.4880 -0.3651
   81SLPC  H12X 7606   7.330   6.222   4.233  1.9760 -1.8729  1.8397
   81SLPC  H12Y 7607   7.350   6.050   4.168  0.8517  1.1003 -1.0416
   81SLPC  C313 7608   7.162   6.089   4.259 -0.2270  0.1441  0.5163
   81SLPC  H13X 7609   7.102   6.017   4.200 -1.0963  0.7967  0.5935
   81SLPC  H13Y 7610   7.097   6.172   4.292 -3.3481 -1.9231 -0.0674
   81SLPC  C314 7611   7.207   6.031   4.400  0.4696 -0.2156  0.5755
   81SLPC  H14X 7612   7.291   6.095   4.434  1.3205 -1.4877  0.9549
   81SLPC  H14Y 7613   7.254   5.932   4.381  1.1577  0.4856 -1.7441
   81SLPC  C315 7614   7.093   6.047   4.509  0.3820  0.8117 -0.0713
   81SLPC  H15X 7615   7.040   5.949   4.513  0.6182  0.5020 -2.7818
   81SLPC  H15Y 7616   7.017   6.122   4.478 -1.8586 -0.5424  1.7878
   81SLPC  C316 7617   7.143   6.093   4.645 -0.0280  0.1422 -0.6766
   81SLPC  H16X 7618   7.180   6.197   4.631 -0.6575  0.7736  1.9063
   81SLPC  H16Y 7619   7.218   6.017   4.674 -0.0320 -0.2378 -1.6280
   81SLPC  C317 7620   7.028   6.105   4.743 -0.1448  0.2185 -0.4579
   81SLPC  H17X 7621   6.945   6.156   4.690 -0.8744 -0.4842 -0.0174
   81SLPC  H17Y 7622   7.067   6.170   4.824 -1.3393  0.7687 -0.3146
   81SLPC  C318 7623   6.991   5.972   4.824 -0.1185 -0.1812  0.5194
   81SLPC  H18X 7624   7.083   5.927   4.867 -0.0584 -1.2251 -0.6689
   81SLPC  H18Y 7625   6.937   5.900   4.759  2.0437 -1.2878 -0.1344
   81SLPC  H18Z 7626   6.926   6.012   4.905 -0.0611  1.4944 -0.2034
   82SLPC     N 7627   3.289   6.812   2.214 -0.3557 -0.1361  0.2611
   82SLPC   C13 7628   3.226   6.824   2.083 -0.2700  0.0212 -0.0438
   82SLPC  H13A 7629   3.271   6.909   2.035  1.0286 -0.6944 -0.1528
   82SLPC  H13B 7630   3.247   6.735   2.026  0.8255  0.3385 -0.1683
   82SLPC  H13C 7631   3.122   6.829   2.110 -0.7115 -0.4929 -1.5952
   82SLPC   C14 7632   3.234   6.690   2.276  0.5717  0.5848 -0.5876
   82SLPC  H14A 7633   3.287   6.613   2.221 -0.5994  1.2644 -2.8049
   82SLPC  H14B 7634   3.256   6.687   2.381 -0.3031  0.3088 -0.4026
   82SLPC  H14C 7635   3.128   6.684   2.256  0.7380  1.0752 -1.6969
   82SLPC   C15 7636   3.237   6.934   2.293 -0.1281 -0.3006 -0.1685
   82SLPC  H15A 7637   3.255   6.926   2.399 -1.2716 -0.5476  0.0257
   82SLPC  H15B 7638   3.291   7.017   2.250  0.5835 -0.3365  0.6279
   82SLPC  H15C 7639   3.131   6.947   2.274  0.5537  0.9957 -3.9232
   82SLPC   C12 7640   3.444   6.813   2.209 -0.1224 -0.5100 -0.0078
   82SLPC  H12A 7641   3.478   6.891   2.143 -1.4557 -1.4457 -1.9088
   82SLPC  H12B 7642   3.475   6.726   2.153 -0.0423  0.4700 -1.5401
   82SLPC   C11 7643   3.517   6.818   2.341  0.4920 -0.0199 -0.5642
   82SLPC  H11A 7644   3.625   6.794   2.331  0.7641  0.4580  0.9655
   82SLPC  H11B 7645   3.473   6.740   2.406  1.0743  0.3105  0.2509
   82SLPC     P 7646   3.570   7.069   2.341  0.3126  0.0003  0.0291
   82SLPC   O13 7647   3.629   7.035   2.211 -0.3706 -0.3711  0.4475
   82SLPC   O14 7648   3.473   7.188   2.334  0.7276 -0.0222 -0.3813
   82SLPC   O12 7649   3.493   6.945   2.397  0.0528 -0.4111  0.3012
   82SLPC   O11 7650   3.691   7.097   2.441 -0.0209  0.0016  0.1954
   82SLPC    C1 7651   3.679   7.047   2.575  0.8292 -0.2775  0.4000
   82SLPC    HA 7652   3.660   6.937   2.575  2.6840 -0.6899  3.2384
   82SLPC    HB 7653   3.772   7.072   2.629 -0.5811  0.1285  2.7929
   82SLPC    C2 7654   3.576   7.115   2.667 -0.1790  0.4411 -0.3197
   82SLPC    HS 7655   3.481   7.103   2.609 -1.7369 -0.5989  2.2846
   82SLPC   O21 7656   3.610   7.246   2.697 -0.0830 -0.2855 -0.1248
   82SLPC   C21 7657   3.511   7.334   2.710  0.1210  0.4292 -0.0619
   82SLPC   O22 7658   3.392   7.309   2.696  0.1861  0.2068 -0.3183
   82SLPC   C22 7659   3.562   7.463   2.754  0.4590 -0.1106  0.3931
   82SLPC   H2R 7660   3.634   7.508   2.683  0.2870 -2.5932 -1.4886
   82SLPC   H2S 7661   3.484   7.542   2.757  0.2845 -0.2365 -0.5634
   82SLPC    C3 7662   3.558   7.043   2.810 -0.2866  0.4054 -0.1433
   82SLPC    HX 7663   3.644   7.072   2.874 -1.6483  0.1153  1.9516
   82SLPC    HY 7664   3.574   6.933   2.817 -2.3377  0.1456  1.6780
   82SLPC   O31 7665   3.444   7.094   2.871 -0.4050  0.7067 -0.2957
   82SLPC   C31 7666   3.334   7.029   2.868 -0.5351  0.0830 -0.7120
   82SLPC   O32 7667   3.316   6.916   2.824 -0.7427  0.5218 -0.2389
   82SLPC   C32 7668   3.219   7.123   2.913 -0.4825 -0.6071  0.1289
   82SLPC   H2X 7669   3.181   7.184   2.828  0.4271 -1.8607 -1.2234
   82SLPC   H2Y 7670   3.255   7.183   2.999  0.8405 -1.1665 -0.0176
   82SLPC   C23 7671   3.629   7.451   2.892  0.5242  0.1058 -0.5661
   82SLPC   H3R 7672   3.696   7.539   2.908 -2.1068  2.0722  0.3426
   82SLPC   H3S 7673   3.697   7.363   2.893  4.1257  2.6507 -1.4054
   82SLPC   C24 7674   3.534   7.445   3.027 -0.1516 -0.8342 -0.0698
   82SLPC   H4R 7675   3.462   7.361   3.011 -0.0202 -0.8498 -0.5924
   82SLPC   H4S 7676   3.477   7.540   3.021  1.7292  0.2388 -1.6769
   82SLPC   C25 7677   3.623   7.441   3.150  0.0274  0.0967 -0.5276
   82SLPC   H5R 7678   3.557   7.479   3.231 -0.1008  0.3090 -0.7304
   82SLPC   H5S 7679   3.708   7.511   3.137  0.3333 -0.6056 -2.8632
   82SLPC   C26 7680   3.680   7.304   3.182 -0.4445  0.5970  0.9947
   82SLPC   H6R 7681   3.725   7.270   3.086 -2.1960 -1.0977  0.7131
   82SLPC   H6S 7682   3.600   7.228   3.197  1.3432 -1.3690  1.0862
   82SLPC   C27 7683   3.781   7.289   3.294 -0.4370 -0.1069  0.2843
   82SLPC   H7R 7684   3.870   7.353   3.270 -0.7644  0.2051 -0.1157
   82SLPC   H7S 7685   3.818   7.184   3.294 -1.5990 -0.5399  1.8578
   82SLPC   C28 7686   3.730   7.306   3.438  0.0663 -0.1808  0.1249
   82SLPC   H8R 7687   3.711   7.414   3.455 -1.9192 -0.3513 -0.7557
   82SLPC   H8S 7688   3.827   7.280   3.487  0.1315 -1.6015 -0.6941
   82SLPC   C29 7689   3.617   7.217   3.486  0.3617  0.8558 -0.3174
   82SLPC   H9R 7690   3.626   7.109   3.467 -0.0354  0.3544  1.9841
   82SLPC  C210 7691   3.497   7.250   3.545  0.1482 -0.2159  0.1182
   82SLPC  H10R 7692   3.431   7.172   3.586 -0.5662  0.3023 -0.0225
   82SLPC  C211 7693   3.463   7.397   3.573 -0.1617 -0.2359  0.1622
   82SLPC  H11R 7694   3.504   7.465   3.495 -0.8172  0.0836  0.0897
   82SLPC  H11S 7695   3.520   7.414   3.667  2.3770  1.3056 -1.5306
   82SLPC  C212 7696   3.309   7.410   3.591 -0.3459  0.2430 -0.1557
   82SLPC  H12R 7697   3.254   7.398   3.496 -1.0467  1.6491  0.0344
   82SLPC  C213 7698   3.234   7.388   3.703  0.3133 -0.5567 -0.3817
   82SLPC  H13R 7699   3.125   7.391   3.691  0.2547  0.7921  0.2342
   82SLPC  C214 7700   3.284   7.351   3.837  0.0948  0.3646  0.4493
   82SLPC  H14R 7701   3.389   7.318   3.821  0.0341  0.1450  0.5051
   82SLPC  H14S 7702   3.227   7.262   3.871 -1.9020  1.0613 -0.8860
   82SLPC  C215 7703   3.267   7.469   3.946 -0.0717  0.6027 -0.6638
   82SLPC  H15R 7704   3.163   7.508   3.956 -0.2538  0.0140 -0.2548
   82SLPC  H15S 7705   3.328   7.559   3.923 -0.4491  1.9557  3.0095
   82SLPC  C216 7706   3.322   7.406   4.079 -0.0701 -0.5322 -0.8173
   82SLPC  H16R 7707   3.424   7.361   4.074 -0.3725 -1.6160  1.5338
   82SLPC  H16S 7708   3.246   7.332   4.111  0.8888 -1.5179 -0.7471
   82SLPC  C217 7709   3.311   7.497   4.199 -0.2322 -0.0765 -0.0147
   82SLPC  H17R 7710   3.220   7.560   4.188  1.0299  1.5997 -1.3490
   82SLPC  H17S 7711   3.396   7.569   4.195  0.9672 -1.2699  1.9809
   82SLPC  C218 7712   3.318   7.433   4.333 -0.4254  0.3529  0.3395
   82SLPC  H18R 7713   3.356   7.501   4.412  0.1942  0.9770 -0.4787
   82SLPC  H18S 7714   3.400   7.359   4.323  0.2674  1.2143 -0.5998
   82SLPC  H18T 7715   3.223   7.379   4.357 -1.5763  1.9775 -0.3416
   82SLPC   C33 7716   3.100   7.042   2.976  0.1328  0.9389  0.2155
   82SLPC   H3X 7717   3.062   6.973   2.898 -0.9615 -0.2223  1.7244
   82SLPC   H3Y 7718   3.025   7.124   2.990 -0.3196  0.7461 -0.9263
   82SLPC   C34 7719   3.122   6.969   3.108 -0.3880  0.1107 -0.1479
   82SLPC   H4X 7720   3.170   6.872   3.080  1.1572  0.3264  1.5722
   82SLPC   H4Y 7721   3.028   6.948   3.163 -0.8445  0.0920 -0.9120
   82SLPC   C35 7722   3.204   7.057   3.208 -0.1085 -0.1723 -0.3388
   82SLPC   H5X 7723   3.175   7.164   3.204 -1.8016 -0.5450  1.0828
   82SLPC   H5Y 7724   3.310   7.035   3.181 -0.1637 -3.5207  1.6615
   82SLPC   C36 7725   3.203   7.011   3.353  0.0389  0.1841 -0.1140
   82SLPC   H6X 7726   3.292   7.046   3.410 -0.7090 -0.6176  1.6079
   82SLPC   H6Y 7727   3.210   6.900   3.347 -0.6654  0.2029 -1.5087
   82SLPC   C37 7728   3.080   7.057   3.426  0.1403  0.0329 -0.6046
   82SLPC   H7X 7729   2.992   7.013   3.375  2.3424 -3.8928 -1.4095
   82SLPC   H7Y 7730   3.065   7.167   3.421 -1.1629  0.0183  1.5859
   82SLPC   C38 7731   3.083   7.007   3.569  0.1454  0.5244 -0.3025
   82SLPC   H8X 7732   3.128   7.088   3.629  0.4603  0.1501 -0.0310
   82SLPC   H8Y 7733   3.148   6.917   3.570 -0.2522  0.2154  1.7847
   82SLPC   C39 7734   2.945   6.962   3.612 -0.1885  0.2692  1.0489
   82SLPC   H9X 7735   2.918   6.870   3.555 -1.3864  1.4132 -0.3329
   82SLPC   H9Y 7736   2.878   7.041   3.571  3.3267  1.8901 -2.2477
   82SLPC  C310 7737   2.937   6.931   3.760  0.4120  0.0230 -0.1296
   82SLPC  H10X 7738   2.992   6.836   3.775 -1.3414 -1.2632 -1.4205
   82SLPC  H10Y 7739   2.834   6.906   3.793  0.3607 -0.7930 -0.8595
   82SLPC  C311 7740   2.993   7.034   3.854 -0.1337  0.1485 -0.4862
   82SLPC  H11X 7741   3.098   7.062   3.833  0.8361 -2.7462  0.1083
   82SLPC  H11Y 7742   2.982   6.984   3.952 -0.3431 -0.2170 -0.6950
   82SLPC  C312 7743   2.917   7.160   3.863 -0.5678  0.3270 -0.7926
   82SLPC  H12X 7744   2.810   7.131   3.862 -1.0399  1.9068 -0.2215
   82SLPC  H12Y 7745   2.945   7.228   3.780  0.9358  0.0707 -0.5136
   82SLPC  C313 7746   2.930   7.221   4.011 -0.2949 -0.6821  0.2423
   82SLPC  H13X 7747   3.034   7.229   4.048 -1.0041  2.2446  1.8921
   82SLPC  H13Y 7748   2.884   7.155   4.088 -0.2393 -0.1904  0.7045
   82SLPC  C314 7749   2.863   7.362   4.049  0.7279  0.1094 -0.0740
   82SLPC  H14X 7750   2.752   7.360   4.044  0.5548  1.4778  2.2124
   82SLPC  H14Y 7751   2.890   7.452   3.990  0.4235  0.8848  0.9515
   82SLPC  C315 7752   2.889   7.389   4.199  0.6605 -0.2013  0.4861
   82SLPC  H15X 7753   3.000   7.383   4.211  0.9329  1.0699 -0.9837
   82SLPC  H15Y 7754   2.849   7.311   4.267  2.5621  0.2078  2.1721
   82SLPC  C316 7755   2.834   7.531   4.234  0.4787  1.0692 -0.5555
   82SLPC  H16X 7756   2.725   7.519   4.251  1.0731 -1.9889  2.1816
   82SLPC  H16Y 7757   2.860   7.606   4.156 -0.9328  2.0556 -0.1157
   82SLPC  C317 7758   2.902   7.583   4.363 -0.1492 -0.2748 -0.1893
   82SLPC  H17X 7759   3.012   7.582   4.348  0.1787 -1.5623  1.9529
   82SLPC  H17Y 7760   2.883   7.509   4.444 -1.3153 -0.5434 -0.6801
   82SLPC  C318 7761   2.857   7.724   4.392  0.2427  0.7095  0.3697
   82SLPC  H18X 7762   2.907   7.770   4.480  1.9408 -0.7909  0.2413
   82SLPC  H18Y 7763   2.746   7.724   4.404  0.4021 -1.1527  2.5074
   82SLPC  H18Z 7764   2.879   7.790   4.305 -0.1741 -0.3509 -0.5644
   83SLPC     N 7765   5.893   0.665   2.640  0.5710 -0.3975 -0.2959
   83SLPC   C13 7766   5.953   0.623   2.507  0.5950 -0.6091  0.7822
   83SLPC  H13A 7767   6.061   0.633   2.508  0.4439  2.1675 -0.6601
   83SLPC  H13B 7768   5.933   0.518   2.497 -0.9971 -0.4579  1.9361
   83SLPC  H13C 7769   5.910   0.685   2.430  0.1028 -1.5860  0.2626
   83SLPC   C14 7770   5.740   0.667   2.622 -0.7071 -0.3681  0.2068
   83SLPC  H14A 7771   5.705   0.572   2.584 -0.3386 -0.4140 -0.0152
   83SLPC  H14B 7772   5.687   0.673   2.716 -0.0386  0.4089  0.5485
   83SLPC  H14C 7773   5.710   0.752   2.561 -0.4855 -0.4114  0.0380
   83SLPC   C15 7774   5.926   0.810   2.677  0.8650 -0.2169  0.6576
   83SLPC  H15A 7775   6.031   0.833   2.691  0.8063  1.7281 -1.4951
   83SLPC  H15B 7776   5.914   0.862   2.584 -0.4423 -1.0372  0.3380
   83SLPC  H15C 7777   5.855   0.838   2.754 -0.9704 -0.3169 -0.9204
   83SLPC   C12 7778   5.931   0.570   2.743 -0.0630 -0.4971  0.6026
   83SLPC  H12A 7779   5.882   0.606   2.832  1.0104  0.1615  0.9538
   83SLPC  H12B 7780   6.038   0.575   2.755  0.4270 -2.0827 -2.0944
   83SLPC   C11 7781   5.893   0.420   2.731 -0.3540  0.2091  0.6862
   83SLPC  H11A 7782   5.783   0.419   2.751 -0.4659  0.0162  0.0921
   83SLPC  H11B 7783   5.943   0.372   2.817  3.1232  1.7101 -0.3394
   83SLPC     P 7784   5.825   0.261   2.531  0.0336  0.0169  0.4019
   83SLPC   O13 7785   5.723   0.348   2.457 -0.5560 -0.1451  0.1516
   83SLPC   O14 7786   5.906   0.171   2.448 -0.3918 -0.5873  0.0633
   83SLPC   O12 7787   5.925   0.361   2.609  0.3289  0.2771  0.6715
   83SLPC   O11 7788   5.762   0.177   2.657 -0.3425  0.2748  0.0719
   83SLPC    C1 7789   5.849   0.091   2.732 -0.0801 -0.1961 -0.4707
   83SLPC    HA 7790   5.878   0.000   2.674 -0.9375 -1.0681  0.4328
   83SLPC    HB 7791   5.944   0.141   2.761 -1.0590  0.9034  0.9446
   83SLPC    C2 7792   5.779   0.039   2.866  0.8860 -0.5998 -0.6005
   83SLPC    HS 7793   5.682   0.000   2.826  1.0539 -0.9056 -0.7102
   83SLPC   O21 7794   5.769   0.153   2.961  0.0155 -0.2214  0.2360
   83SLPC   C21 7795   5.643   0.178   3.007 -0.7045  0.3378 -0.6354
   83SLPC   O22 7796   5.541   0.121   2.975  0.1622  0.0184  0.0509
   83SLPC   C22 7797   5.648   0.278   3.121 -0.7732  0.2080  1.0916
   83SLPC   H2R 7798   5.709   0.365   3.088 -1.5078  0.2403 -0.2318
   83SLPC   H2S 7799   5.545   0.318   3.138 -0.8552  0.8860 -0.7519
   83SLPC    C3 7800   5.856  -0.082   2.925  0.8512  0.2842  0.2222
   83SLPC    HX 7801   5.960  -0.043   2.930  1.0204  0.6462 -3.2774
   83SLPC    HY 7802   5.863  -0.167   2.854 -0.1234 -0.9257  1.5414
   83SLPC   O31 7803   5.813  -0.115   3.061 -0.0303  0.2561  0.2967
   83SLPC   C31 7804   5.721  -0.212   3.063 -0.1461 -0.1461 -0.3492
   83SLPC   O32 7805   5.680  -0.277   2.966 -0.0759  0.6049 -0.0877
   83SLPC   C32 7806   5.678  -0.233   3.210  0.3217  0.1356 -0.2390
   83SLPC   H2X 7807   5.577  -0.185   3.210 -1.1707 -2.7595  0.3070
   83SLPC   H2Y 7808   5.735  -0.172   3.284 -0.7712 -0.4363  1.1166
   83SLPC   C23 7809   5.712   0.224   3.252  0.5419  0.1507 -0.0296
   83SLPC   H3R 7810   5.753   0.310   3.310  0.8251  0.4486 -0.6621
   83SLPC   H3S 7811   5.793   0.152   3.226  0.1454 -0.2617 -0.1368
   83SLPC   C24 7812   5.614   0.156   3.353  0.9443  0.0066  0.7481
   83SLPC   H4R 7813   5.621   0.046   3.351 -1.0214 -0.1507  0.7499
   83SLPC   H4S 7814   5.507   0.171   3.328  1.3631 -0.9247 -1.8395
   83SLPC   C25 7815   5.630   0.208   3.501 -0.4592 -0.3937  0.4150
   83SLPC   H5R 7816   5.607   0.316   3.514 -2.5124 -0.5616 -1.1481
   83SLPC   H5S 7817   5.739   0.203   3.521 -0.3187  0.7470  0.0367
   83SLPC   C26 7818   5.564   0.113   3.608 -0.4513 -0.1535  0.0330
   83SLPC   H6R 7819   5.612   0.013   3.601  2.4564  1.1100  0.3650
   83SLPC   H6S 7820   5.458   0.106   3.574 -0.5518  0.0006  0.3161
   83SLPC   C27 7821   5.570   0.171   3.750 -0.0416  0.1957 -0.6137
   83SLPC   H7R 7822   5.525   0.272   3.742 -0.8200 -0.1752 -0.9856
   83SLPC   H7S 7823   5.677   0.191   3.773  0.5676 -1.2518 -1.9807
   83SLPC   C28 7824   5.512   0.085   3.861 -0.8343 -0.0835  0.4559
   83SLPC   H8R 7825   5.585   0.003   3.875 -1.0264 -0.1317  1.1849
   83SLPC   H8S 7826   5.421   0.038   3.819  0.2390 -1.2106 -0.7171
   83SLPC   C29 7827   5.468   0.154   3.988 -0.5622 -0.9597 -0.8724
   83SLPC   H9R 7828   5.408   0.246   3.979 -1.2296 -1.3919 -0.8807
   83SLPC  C210 7829   5.489   0.115   4.114  0.0626  0.0190 -0.2469
   83SLPC  H10R 7830   5.464   0.184   4.195  1.0459  0.7039 -0.5138
   83SLPC  C211 7831   5.565  -0.008   4.160 -0.2651  0.2799  0.0832
   83SLPC  H11R 7832   5.609   0.008   4.261  0.4265  0.0421 -0.1755
   83SLPC  H11S 7833   5.643  -0.035   4.086  0.0148  1.6314 -0.1342
   83SLPC  C212 7834   5.470  -0.129   4.153  0.1933  0.0054  0.5204
   83SLPC  H12R 7835   5.404  -0.133   4.065  3.0324 -0.1733 -1.7682
   83SLPC  C213 7836   5.463  -0.225   4.246  0.1636 -0.1742  0.2828
   83SLPC  H13R 7837   5.390  -0.307   4.232 -1.7885  1.5736 -0.3514
   83SLPC  C214 7838   5.548  -0.236   4.372 -0.3596 -0.3564  0.3456
   83SLPC  H14R 7839   5.617  -0.149   4.378  0.9805 -1.4530  1.7556
   83SLPC  H14S 7840   5.609  -0.329   4.366 -0.0825 -0.0899 -2.9018
   83SLPC  C215 7841   5.439  -0.259   4.482 -0.1745  0.2079  0.2178
   83SLPC  H15R 7842   5.486  -0.298   4.574  0.5112  0.0899 -0.1777
   83SLPC  H15S 7843   5.365  -0.337   4.454 -0.2544 -0.4646  2.1968
   83SLPC  C216 7844   5.365  -0.132   4.526 -0.8159  0.9141 -0.3131
   83SLPC  H16R 7845   5.284  -0.108   4.454 -1.1165  1.2491  0.1309
   83SLPC  H16S 7846   5.438  -0.050   4.512 -0.1686  0.8794  2.2722
   83SLPC  C217 7847   5.301  -0.143   4.657  0.6059 -0.8528 -0.5752
   83SLPC  H17R 7848   5.252  -0.046   4.682  2.2926 -0.3366  0.9929
   83SLPC  H17S 7849   5.369  -0.148   4.745 -2.1336 -1.0006  1.6982
   83SLPC  C218 7850   5.198  -0.256   4.690 -0.1143 -0.2281  0.5050
   83SLPC  H18R 7851   5.229  -0.352   4.643  1.2711  0.7393 -0.6653
   83SLPC  H18S 7852   5.099  -0.231   4.645 -0.3567  1.3003  1.8113
   83SLPC  H18T 7853   5.187  -0.271   4.799 -1.3962  1.6037  0.6770
   83SLPC   C33 7854   5.666  -0.387   3.246  0.0413 -0.6867 -0.7392
   83SLPC   H3X 7855   5.769  -0.421   3.219 -0.2284 -1.0816 -1.3024
   83SLPC   H3Y 7856   5.592  -0.439   3.181 -0.2335 -1.0884 -0.1140
   83SLPC   C34 7857   5.651  -0.422   3.396  0.5973 -0.5480 -0.2354
   83SLPC   H4X 7858   5.747  -0.446   3.447  0.7245 -0.6872 -0.5353
   83SLPC   H4Y 7859   5.590  -0.515   3.399 -4.0227  2.2131  1.0530
   83SLPC   C35 7860   5.585  -0.311   3.485  0.2494  0.0662  0.3231
   83SLPC   H5X 7861   5.509  -0.258   3.424  1.6908  0.4991 -1.1717
   83SLPC   H5Y 7862   5.678  -0.254   3.506  0.5631 -1.3786  3.4784
   83SLPC   C36 7863   5.534  -0.361   3.619  0.1971  0.2769  0.6889
   83SLPC   H6X 7864   5.437  -0.410   3.596  0.6308  0.0564 -0.7668
   83SLPC   H6Y 7865   5.501  -0.276   3.683  0.5914 -0.0635  1.3462
   83SLPC   C37 7866   5.625  -0.450   3.711 -0.9243 -0.4277  0.2542
   83SLPC   H7X 7867   5.721  -0.394   3.702 -2.5308  2.4663 -0.2705
   83SLPC   H7Y 7868   5.638  -0.550   3.665 -0.0198 -0.8950  1.4822
   83SLPC   C38 7869   5.574  -0.475   3.853 -0.1063  0.3088 -0.0883
   83SLPC   H8X 7870   5.488  -0.546   3.848 -1.2547  1.7407 -2.8482
   83SLPC   H8Y 7871   5.539  -0.381   3.901  3.5731  1.0309  1.5229
   83SLPC   C39 7872   5.680  -0.537   3.939 -0.5317  0.0845 -0.3128
   83SLPC   H9X 7873   5.767  -0.469   3.939 -1.3985  1.2321 -0.2090
   83SLPC   H9Y 7874   5.708  -0.638   3.903  0.3039  0.0305  0.4532
   83SLPC  C310 7875   5.640  -0.560   4.087 -0.2929 -0.0155  0.0655
   83SLPC  H10X 7876   5.559  -0.636   4.094 -1.0564  0.9159  1.8536
   83SLPC  H10Y 7877   5.603  -0.464   4.128  0.9001  0.6677 -0.4034
   83SLPC  C311 7878   5.749  -0.620   4.183 -0.2948  0.1023  0.5642
   83SLPC  H11X 7879   5.826  -0.541   4.191  1.8393 -1.5947 -1.8279
   83SLPC  H11Y 7880   5.798  -0.709   4.140  0.4647  0.3452  0.9016
   83SLPC  C312 7881   5.707  -0.657   4.324 -0.1359 -0.1883  0.8011
   83SLPC  H12X 7882   5.651  -0.753   4.316 -0.1564 -0.4646  3.3514
   83SLPC  H12Y 7883   5.638  -0.589   4.378  0.2572  0.4205  0.5455
   83SLPC  C313 7884   5.820  -0.673   4.422 -0.7664  0.0138  0.5164
   83SLPC  H13X 7885   5.875  -0.578   4.438 -0.7288 -0.2266  1.9222
   83SLPC  H13Y 7886   5.883  -0.754   4.379 -3.4561 -1.2900 -1.2629
   83SLPC  C314 7887   5.783  -0.721   4.561 -0.6602  0.1320  0.1681
   83SLPC  H14X 7888   5.713  -0.648   4.609  2.2551  1.3557  2.8709
   83SLPC  H14Y 7889   5.870  -0.709   4.629  1.4459  0.6495 -2.4443
   83SLPC  C315 7890   5.721  -0.860   4.564  0.4341  0.0265  0.2768
   83SLPC  H15X 7891   5.798  -0.938   4.547  0.9064 -0.2026  2.9582
   83SLPC  H15Y 7892   5.645  -0.860   4.484  1.3455  2.4794 -0.6706
   83SLPC  C316 7893   5.657  -0.904   4.700  0.4966  0.7605  0.3194
   83SLPC  H16X 7894   5.561  -0.847   4.701  1.2642  2.0954  0.4991
   83SLPC  H16Y 7895   5.729  -0.882   4.781  1.9997  0.9879 -1.0160
   83SLPC  C317 7896   5.617  -1.054   4.700 -0.0552 -0.2612 -0.3420
   83SLPC  H17X 7897   5.702  -1.110   4.655  1.1094  1.2538 -0.0884
   83SLPC  H17Y 7898   5.526  -1.066   4.637  0.3065 -0.5452 -0.8246
   83SLPC  C318 7899   5.607  -1.098   4.848 -0.3188 -0.2795  0.2734
   83SLPC  H18X 7900   5.605  -1.208   4.860 -1.0747 -0.2052  0.8682
   83SLPC  H18Y 7901   5.517  -1.061   4.900  0.0783  0.9011  0.1656
   83SLPC  H18Z 7902   5.695  -1.054   4.901 -1.0707  1.7999 -0.1102
   84SLPC     N 7903   6.380   3.355   2.331  0.3671 -0.0756 -0.2208
   84SLPC   C13 7904   6.246   3.299   2.285  0.3528  0.3446 -0.0363
   84SLPC  H13A 7905   6.252   3.192   2.297  0.0302  0.3084 -0.2024
   84SLPC  H13B 7906   6.170   3.334   2.353 -0.5643 -0.1824 -0.7728
   84SLPC  H13C 7907   6.223   3.322   2.182 -3.1124 -0.4963  0.4072
   84SLPC   C14 7908   6.386   3.494   2.284 -0.0851 -0.0930  0.4744
   84SLPC  H14A 7909   6.386   3.504   2.177 -3.5011 -2.9332  0.0145
   84SLPC  H14B 7910   6.310   3.561   2.321  2.9291  2.5598  2.4236
   84SLPC  H14C 7911   6.475   3.534   2.332 -0.1387 -0.1366  0.6106
   84SLPC   C15 7912   6.486   3.280   2.265  0.4977 -1.6490 -0.6468
   84SLPC  H15A 7913   6.455   3.256   2.165 -0.9343  0.1390 -0.6758
   84SLPC  H15B 7914   6.572   3.343   2.252 -0.6961 -0.0398 -0.9732
   84SLPC  H15C 7915   6.516   3.181   2.297  0.6348 -1.8828 -1.4910
   84SLPC   C12 7916   6.393   3.361   2.482  0.0979 -0.6677 -0.6417
   84SLPC  H12A 7917   6.485   3.416   2.497 -1.2116  1.8940 -1.2531
   84SLPC  H12B 7918   6.401   3.262   2.525  0.6732 -0.3534  0.0004
   84SLPC   C11 7919   6.280   3.428   2.564  0.0445  0.6627  0.3526
   84SLPC  H11A 7920   6.294   3.407   2.672 -0.7650 -3.9850 -0.2303
   84SLPC  H11B 7921   6.182   3.380   2.540 -0.3140  2.8253 -3.3510
   84SLPC     P 7922   6.347   3.681   2.595  0.4200  0.3456  0.2952
   84SLPC   O13 7923   6.491   3.660   2.589 -0.4698  0.2011 -0.4809
   84SLPC   O14 7924   6.293   3.803   2.526 -0.6983  0.3019 -0.2313
   84SLPC   O12 7925   6.270   3.563   2.527  0.5009 -0.2631 -0.1052
   84SLPC   O11 7926   6.307   3.673   2.749  0.5625 -0.5220 -0.3472
   84SLPC    C1 7927   6.166   3.707   2.778  0.3363  0.4259 -0.1662
   84SLPC    HA 7928   6.144   3.815   2.763 -0.3488  0.3605  0.3176
   84SLPC    HB 7929   6.104   3.636   2.719  2.7884 -2.9401  1.0174
   84SLPC    C2 7930   6.136   3.685   2.929  0.3204  0.5541 -0.6352
   84SLPC    HS 7931   6.029   3.709   2.943  0.4257  1.3672 -1.0936
   84SLPC   O21 7932   6.227   3.771   2.998 -0.1398  0.1783  0.2995
   84SLPC   C21 7933   6.199   3.792   3.122 -0.1102  0.4138  0.2948
   84SLPC   O22 7934   6.097   3.759   3.177  0.3735 -0.3915  0.1394
   84SLPC   C22 7935   6.306   3.883   3.177 -0.7460  0.1351 -0.3970
   84SLPC   H2R 7936   6.399   3.873   3.117  0.0560  0.2715  0.7908
   84SLPC   H2S 7937   6.266   3.986   3.169  0.2581  0.4665 -1.4982
   84SLPC    C3 7938   6.170   3.533   2.961 -0.0422  0.2518  0.3435
   84SLPC    HX 7939   6.276   3.519   2.931 -0.0146  1.3918 -0.1101
   84SLPC    HY 7940   6.114   3.478   2.883 -1.7490  3.0508 -0.5407
   84SLPC   O31 7941   6.134   3.478   3.087 -0.2438  0.4249  0.4487
   84SLPC   C31 7942   6.235   3.447   3.170  0.3746 -0.0069 -0.2375
   84SLPC   O32 7943   6.353   3.445   3.150 -0.6890 -0.3205  0.5599
   84SLPC   C32 7944   6.179   3.428   3.311  0.3040 -0.7574  0.2997
   84SLPC   H2X 7945   6.084   3.371   3.312 -0.1935 -0.0192  2.9562
   84SLPC   H2Y 7946   6.154   3.528   3.352  0.1291 -0.8043  0.3060
   84SLPC   C23 7947   6.348   3.843   3.325 -0.2857 -0.1918  0.0553
   84SLPC   H3R 7948   6.445   3.892   3.349  0.3308 -2.0320  1.5470
   84SLPC   H3S 7949   6.364   3.733   3.324 -2.2030 -0.5143  0.7376
   84SLPC   C24 7950   6.257   3.879   3.438 -0.3308 -0.3686  0.3543
   84SLPC   H4R 7951   6.165   3.818   3.426 -2.2294  2.1266  1.4274
   84SLPC   H4S 7952   6.241   3.988   3.432  1.3395 -0.1755 -2.2850
   84SLPC   C25 7953   6.331   3.848   3.574 -0.0184 -0.2505 -0.2984
   84SLPC   H5R 7954   6.430   3.899   3.573 -0.9429  1.6625 -1.7279
   84SLPC   H5S 7955   6.354   3.740   3.582 -0.1179 -0.1913  0.8814
   84SLPC   C26 7956   6.249   3.891   3.702  0.1091  0.3476  0.2523
   84SLPC   H6R 7957   6.152   3.838   3.712  0.8844 -0.7935  2.3664
   84SLPC   H6S 7958   6.223   3.998   3.690 -0.3316  0.2460  0.3073
   84SLPC   C27 7959   6.321   3.875   3.837 -0.1315  0.0947 -0.3305
   84SLPC   H7R 7960   6.406   3.946   3.838 -1.2901  1.6289 -2.4938
   84SLPC   H7S 7961   6.364   3.773   3.847  2.0642  0.8420 -1.4189
   84SLPC   C28 7962   6.227   3.908   3.957  0.2341 -0.5998  0.3030
   84SLPC   H8R 7963   6.130   3.855   3.949  0.7624 -1.7168  0.9845
   84SLPC   H8S 7964   6.202   4.016   3.950  0.5941 -0.5763 -0.7575
   84SLPC   C29 7965   6.281   3.878   4.094 -0.2710 -0.3969  0.5108
   84SLPC   H9R 7966   6.377   3.933   4.098 -0.1179 -0.3488 -2.1941
   84SLPC  C210 7967   6.218   3.823   4.202 -0.4825  0.0122 -0.4316
   84SLPC  H10R 7968   6.280   3.809   4.291  0.6390  1.8403 -0.8602
   84SLPC  C211 7969   6.076   3.778   4.214  1.1535  0.5943  0.1226
   84SLPC  H11R 7970   6.075   3.667   4.219  2.5413  0.5928  0.8423
   84SLPC  H11S 7971   6.016   3.809   4.126  0.2131 -1.2598  0.0464
   84SLPC  C212 7972   6.001   3.835   4.326 -0.9265 -0.2704  0.1758
   84SLPC  H12R 7973   5.924   3.907   4.294 -1.6725 -1.1703 -0.0944
   84SLPC  C213 7974   6.009   3.805   4.454  0.2067  0.6801 -0.5005
   84SLPC  H13R 7975   5.944   3.861   4.523 -0.4743 -1.6828  0.8715
   84SLPC  C214 7976   6.099   3.699   4.514 -0.2148  0.3014 -0.1617
   84SLPC  H14R 7977   6.101   3.709   4.625 -1.1699 -0.2983 -0.0765
   84SLPC  H14S 7978   6.203   3.717   4.478  0.5959 -0.2149  1.7848
   84SLPC  C215 7979   6.066   3.552   4.476  0.0247 -0.1612 -0.3798
   84SLPC  H15R 7980   6.132   3.513   4.396  1.5224  0.2617  0.6167
   84SLPC  H15S 7981   5.969   3.560   4.422 -1.1340 -0.6316  1.5480
   84SLPC  C216 7982   6.078   3.446   4.588  0.2899  0.3694 -0.1114
   84SLPC  H16R 7983   6.045   3.345   4.556  1.3004 -1.2843  3.5241
   84SLPC  H16S 7984   6.019   3.484   4.673 -1.2350 -0.7286 -0.6499
   84SLPC  C217 7985   6.220   3.423   4.641 -0.2880  0.2236 -0.1284
   84SLPC  H17R 7986   6.266   3.518   4.673 -0.1906  0.2121 -0.2352
   84SLPC  H17S 7987   6.275   3.393   4.549 -0.4087 -2.9766  0.7185
   84SLPC  C218 7988   6.232   3.306   4.743 -0.9273  0.2818 -0.1447
   84SLPC  H18R 7989   6.196   3.212   4.697 -0.1758 -0.0926  0.0125
   84SLPC  H18S 7990   6.173   3.325   4.834  0.0906 -1.5791  0.9739
   84SLPC  H18T 7991   6.334   3.293   4.786 -1.2906 -1.7761  0.1958
   84SLPC   C33 7992   6.273   3.351   3.407  0.6562  0.0500 -0.1782
   84SLPC   H3X 7993   6.374   3.393   3.424  1.8618 -1.3880 -3.1789
   84SLPC   H3Y 7994   6.298   3.248   3.372 -2.7529 -0.6678 -0.9302
   84SLPC   C34 7995   6.218   3.318   3.545 -0.2403  0.2532 -0.0653
   84SLPC   H4X 7996   6.121   3.265   3.533 -1.5602  2.4805  0.3244
   84SLPC   H4Y 7997   6.209   3.407   3.610 -0.1593  0.1011  0.1528
   84SLPC   C35 7998   6.311   3.223   3.617 -0.2934 -0.0301 -0.2908
   84SLPC   H5X 7999   6.413   3.266   3.630 -1.1772  1.6967  1.6579
   84SLPC   H5Y 8000   6.315   3.124   3.567 -1.9755  0.3318 -1.2141
   84SLPC   C36 8001   6.262   3.182   3.755 -0.9587 -0.4927 -0.0057
   84SLPC   H6X 8002   6.305   3.085   3.786  3.5713  1.8697  2.0884
   84SLPC   H6Y 8003   6.152   3.167   3.758 -0.7809 -2.0449 -0.3107
   84SLPC   C37 8004   6.312   3.282   3.857 -0.2877 -0.1543 -0.0622
   84SLPC   H7X 8005   6.264   3.376   3.823 -0.6669 -1.1157 -2.4213
   84SLPC   H7Y 8006   6.422   3.279   3.846 -0.2230 -1.3221  0.7024
   84SLPC   C38 8007   6.269   3.254   4.007 -1.1898  0.2441 -0.1255
   84SLPC   H8X 8008   6.270   3.143   4.011  0.2793  0.2167 -0.4260
   84SLPC   H8Y 8009   6.164   3.287   4.021 -0.8092  0.8868  1.4185
   84SLPC   C39 8010   6.359   3.329   4.110 -0.0387 -0.3767  0.2794
   84SLPC   H9X 8011   6.351   3.438   4.093 -2.2062 -0.4728  0.4387
   84SLPC   H9Y 8012   6.461   3.284   4.110 -0.7219 -2.0260  1.4661
   84SLPC  C310 8013   6.315   3.305   4.258 -0.1886  0.6786 -0.1036
   84SLPC  H10X 8014   6.218   3.350   4.288 -0.0365  0.0753  1.3715
   84SLPC  H10Y 8015   6.403   3.346   4.312 -1.1393 -0.9028  2.8753
   84SLPC  C311 8016   6.317   3.156   4.293  0.1432  0.8237 -0.0015
   84SLPC  H11X 8017   6.389   3.098   4.230 -1.7098 -1.0864 -0.4697
   84SLPC  H11Y 8018   6.219   3.116   4.261  0.3801 -0.0619  0.3477
   84SLPC  C312 8019   6.355   3.135   4.439  0.6739  0.1330 -0.9889
   84SLPC  H12X 8020   6.273   3.186   4.494  0.7958 -1.9698  1.2907
   84SLPC  H12Y 8021   6.454   3.176   4.467  1.2383 -1.4771 -0.5476
   84SLPC  C313 8022   6.345   2.984   4.487 -0.3037  0.4445  0.3524
   84SLPC  H13X 8023   6.391   2.917   4.411 -2.0322 -0.1545 -0.2063
   84SLPC  H13Y 8024   6.236   2.969   4.504 -0.3160  1.2805  1.1018
   84SLPC  C314 8025   6.409   2.950   4.630  0.0381  0.1992 -1.0409
   84SLPC  H14X 8026   6.351   3.010   4.702  3.5205  1.3167  1.0362
   84SLPC  H14Y 8027   6.513   2.986   4.617  0.4404 -0.8160 -0.7001
   84SLPC  C315 8028   6.405   2.801   4.669  0.2748  0.5220  0.9127
   84SLPC  H15X 8029   6.299   2.775   4.650 -0.7769  3.4156  2.1605
   84SLPC  H15Y 8030   6.430   2.801   4.778  0.9227 -1.8698  0.8103
   84SLPC  C316 8031   6.503   2.707   4.589 -0.0509 -0.3772  0.3339
   84SLPC  H16X 8032   6.608   2.737   4.609  0.2312  0.1879 -1.7626
   84SLPC  H16Y 8033   6.481   2.726   4.481  1.6772  0.3867  0.0923
   84SLPC  C317 8034   6.497   2.559   4.607 -0.3835  0.8986 -0.0563
   84SLPC  H17X 8035   6.569   2.507   4.540 -0.9745 -2.7530  1.8390
   84SLPC  H17Y 8036   6.397   2.521   4.578 -1.0699  1.1058  1.9049
   84SLPC  C318 8037   6.514   2.510   4.757  0.0397 -0.7998  0.5225
   84SLPC  H18X 8038   6.425   2.542   4.815 -0.2474 -0.4178 -0.1216
   84SLPC  H18Y 8039   6.604   2.553   4.806  0.7446 -0.8965 -0.6490
   84SLPC  H18Z 8040   6.505   2.399   4.763 -0.7802 -0.7437  0.4793
   85SLPC     N 8041   2.160   3.538   2.386 -0.3943  0.0515  0.2980
   85SLPC   C13 8042   2.237   3.642   2.311 -0.0040  0.7243 -0.1162
   85SLPC  H13A 8043   2.244   3.614   2.207  2.1777  0.5391  0.0351
   85SLPC  H13B 8044   2.188   3.738   2.310  0.8418  1.1645 -0.7345
   85SLPC  H13C 8045   2.338   3.660   2.345 -0.7750  1.5088  1.9024
   85SLPC   C14 8046   2.222   3.405   2.372  0.0678  0.0125  0.3312
   85SLPC  H14A 8047   2.167   3.325   2.420 -0.0483 -0.2310 -0.2000
   85SLPC  H14B 8048   2.224   3.380   2.266 -0.6753  1.7658 -0.1246
   85SLPC  H14C 8049   2.326   3.401   2.398 -0.1271  1.2083  1.3497
   85SLPC   C15 8050   2.019   3.539   2.327  0.2024  0.4707 -0.5343
   85SLPC  H15A 8051   1.951   3.477   2.383 -0.0342  0.0541 -1.2699
   85SLPC  H15B 8052   1.980   3.640   2.333  1.1432  0.8215 -0.1202
   85SLPC  H15C 8053   2.020   3.513   2.222 -1.5577  0.3089 -0.5460
   85SLPC   C12 8054   2.137   3.573   2.538  0.0462 -0.6676  0.2135
   85SLPC  H12A 8055   2.098   3.673   2.551 -0.0166 -0.8105  1.2594
   85SLPC  H12B 8056   2.231   3.567   2.591 -0.2845 -2.2323  0.6472
   85SLPC   C11 8057   2.033   3.493   2.613 -0.6016 -0.2452 -0.2875
   85SLPC  H11A 8058   1.936   3.481   2.560 -0.7022 -1.1341  0.0810
   85SLPC  H11B 8059   1.994   3.530   2.711  0.2482 -0.3639  0.0996
   85SLPC     P 8060   2.185   3.336   2.761 -0.3189  0.1571 -0.5392
   85SLPC   O13 8061   2.119   3.322   2.890  0.3271  0.1290 -0.1420
   85SLPC   O14 8062   2.263   3.223   2.711 -0.0119  0.3461 -0.2987
   85SLPC   O12 8063   2.082   3.369   2.651  0.5356  0.1178 -0.2654
   85SLPC   O11 8064   2.275   3.463   2.754  0.0909 -0.0180 -0.0130
   85SLPC    C1 8065   2.418   3.459   2.741 -0.0755 -0.2740 -0.4420
   85SLPC    HA 8066   2.457   3.356   2.724 -1.8387 -1.3841  1.6807
   85SLPC    HB 8067   2.445   3.518   2.651  1.0125  0.2628  0.2115
   85SLPC    C2 8068   2.489   3.525   2.858  0.0010  0.8093  0.0999
   85SLPC    HS 8069   2.599   3.513   2.858  0.1608  2.1787  0.3593
   85SLPC   O21 8070   2.438   3.473   2.981 -0.3464 -0.0274  0.3289
   85SLPC   C21 8071   2.456   3.337   2.991  1.1123 -0.5563 -0.4001
   85SLPC   O22 8072   2.529   3.272   2.921 -0.2314 -0.0657  0.1066
   85SLPC   C22 8073   2.401   3.299   3.130 -0.4423 -0.5589  0.5546
   85SLPC   H2R 8074   2.311   3.360   3.156  0.1684  1.0915 -1.0192
   85SLPC   H2S 8075   2.362   3.195   3.122 -0.0069 -0.7118  0.3841
   85SLPC    C3 8076   2.454   3.679   2.851 -0.0814  0.0053  0.1756
   85SLPC    HX 8077   2.344   3.686   2.863 -0.0429 -0.5181  0.8921
   85SLPC    HY 8078   2.489   3.714   2.752  0.2156  0.3483  0.3980
   85SLPC   O31 8079   2.531   3.752   2.950 -0.0539  0.4004  0.3766
   85SLPC   C31 8080   2.496   3.881   2.967 -0.4445  0.1325  0.2169
   85SLPC   O32 8081   2.429   3.942   2.886  0.1719  0.5822  0.2998
   85SLPC   C32 8082   2.598   3.950   3.050 -0.2719  0.2203 -0.1566
   85SLPC   H2X 8083   2.603   4.051   3.003 -0.8352  0.5094  0.3894
   85SLPC   H2Y 8084   2.695   3.899   3.034 -0.6355 -0.7280  0.5973
   85SLPC   C23 8085   2.509   3.300   3.251  0.1432  1.0375 -0.2975
   85SLPC   H3R 8086   2.603   3.256   3.209 -0.9090 -1.0291 -0.6311
   85SLPC   H3S 8087   2.472   3.244   3.339  0.1679 -2.0611 -2.1230
   85SLPC   C24 8088   2.546   3.436   3.299 -0.4428  0.5588 -1.0227
   85SLPC   H4R 8089   2.458   3.502   3.314  0.3450  1.5063 -0.4061
   85SLPC   H4S 8090   2.593   3.477   3.207 -0.2428 -0.2455 -1.2875
   85SLPC   C25 8091   2.653   3.449   3.420  0.7296 -0.6453  0.0097
   85SLPC   H5R 8092   2.743   3.396   3.384  2.8347  1.2594  2.1462
   85SLPC   H5S 8093   2.674   3.557   3.432  0.6201 -0.5288 -0.7864
   85SLPC   C26 8094   2.597   3.394   3.551  0.6371  0.3425 -0.0152
   85SLPC   H6R 8095   2.683   3.365   3.614 -1.5684 -4.2734  1.3095
   85SLPC   H6S 8096   2.536   3.303   3.529  1.5198 -0.5123  0.9984
   85SLPC   C27 8097   2.499   3.492   3.628  0.2101  0.2705 -0.0190
   85SLPC   H7R 8098   2.405   3.519   3.575  0.2795  0.3150 -0.1199
   85SLPC   H7S 8099   2.556   3.580   3.665  2.3853 -1.8220  1.9821
   85SLPC   C28 8100   2.458   3.438   3.767 -0.1672  0.6329 -0.1219
   85SLPC   H8R 8101   2.392   3.349   3.764  0.7592 -0.0614 -0.1386
   85SLPC   H8S 8102   2.394   3.520   3.806 -0.0713  0.2595  0.8409
   85SLPC   C29 8103   2.581   3.431   3.854 -0.0017 -0.2428 -0.0442
   85SLPC   H9R 8104   2.628   3.331   3.857 -1.3650 -1.0027 -2.0914
   85SLPC  C210 8105   2.630   3.525   3.942 -0.2002  0.4621  0.1164
   85SLPC  H10R 8106   2.706   3.495   4.015 -0.6480  0.1227  0.4476
   85SLPC  C211 8107   2.561   3.658   3.963  0.3976  0.0943 -0.2106
   85SLPC  H11R 8108   2.474   3.646   4.031  0.7566  2.2470  0.6870
   85SLPC  H11S 8109   2.514   3.692   3.868  0.4896 -1.4030 -0.8351
   85SLPC  C212 8110   2.646   3.771   4.019 -0.0779 -0.6477 -0.0367
   85SLPC  H12R 8111   2.696   3.833   3.943 -0.5901 -1.6161 -1.1830
   85SLPC  C213 8112   2.676   3.781   4.152 -0.4443 -0.3544 -0.5707
   85SLPC  H13R 8113   2.765   3.838   4.185 -0.1278  0.0174 -1.9886
   85SLPC  C214 8114   2.623   3.687   4.259  0.0656 -0.3287  0.1776
   85SLPC  H14R 8115   2.709   3.650   4.319  0.2029  1.1022  0.9290
   85SLPC  H14S 8116   2.574   3.603   4.206 -3.2877  1.4157  0.2616
   85SLPC  C215 8117   2.518   3.748   4.347 -0.2837 -0.5099 -0.1136
   85SLPC  H15R 8118   2.460   3.683   4.416 -0.4381  1.7351  1.9910
   85SLPC  H15S 8119   2.451   3.800   4.275  0.3994 -0.5636 -0.8057
   85SLPC  C216 8120   2.588   3.853   4.446 -0.0580 -0.3952  0.3511
   85SLPC  H16R 8121   2.624   3.932   4.377 -2.8247  0.7586  0.0688
   85SLPC  H16S 8122   2.670   3.805   4.503 -0.8700 -0.6146  1.3823
   85SLPC  C217 8123   2.486   3.912   4.538 -0.4846  0.6482  0.5016
   85SLPC  H17R 8124   2.419   3.838   4.588  2.9642 -1.2644  2.7270
   85SLPC  H17S 8125   2.430   3.984   4.475  1.4645  1.6806 -0.1071
   85SLPC  C218 8126   2.555   3.983   4.660  0.8418 -0.2933  0.2660
   85SLPC  H18R 8127   2.600   3.917   4.737  2.3729  0.2646 -0.1200
   85SLPC  H18S 8128   2.485   4.043   4.722  0.4969  0.4524 -0.8042
   85SLPC  H18T 8129   2.631   4.055   4.624  0.0168  0.8231  0.7213
   85SLPC   C33 8130   2.563   3.957   3.196  0.9423  0.6488  0.1804
   85SLPC   H3X 8131   2.553   3.860   3.248  1.6016 -0.2474 -1.3131
   85SLPC   H3Y 8132   2.462   4.002   3.204  0.2888 -0.8744  0.7835
   85SLPC   C34 8133   2.648   4.047   3.288 -0.9770 -0.0205  0.3857
   85SLPC   H4X 8134   2.663   4.147   3.242  1.3849  0.0890  1.2830
   85SLPC   H4Y 8135   2.749   4.004   3.302 -0.3274  1.5715  0.8334
   85SLPC   C35 8136   2.591   4.066   3.439 -0.1179 -0.4224  0.6834
   85SLPC   H5X 8137   2.562   3.963   3.469 -0.1207 -0.4014  0.7527
   85SLPC   H5Y 8138   2.497   4.125   3.431 -0.7312 -1.1083  2.3890
   85SLPC   C36 8139   2.686   4.109   3.552  0.0053  0.3597  0.1086
   85SLPC   H6X 8140   2.727   4.210   3.533  1.7869 -0.0060  1.7029
   85SLPC   H6Y 8141   2.776   4.044   3.556  0.6905  0.9497 -3.0711
   85SLPC   C37 8142   2.601   4.100   3.684  0.8834  0.1789  0.3100
   85SLPC   H7X 8143   2.574   3.993   3.691 -0.2270  0.0961 -3.2575
   85SLPC   H7Y 8144   2.508   4.157   3.661 -0.3860 -2.6244 -2.0581
   85SLPC   C38 8145   2.675   4.155   3.806  0.1328  0.3266 -0.1863
   85SLPC   H8X 8146   2.692   4.264   3.799  0.7414  0.3843  1.6410
   85SLPC   H8Y 8147   2.776   4.108   3.808 -1.0217 -2.3138 -0.1278
   85SLPC   C39 8148   2.610   4.126   3.945 -0.1792 -0.3754 -0.0019
   85SLPC   H9X 8149   2.570   4.025   3.970 -2.5231  0.1917 -1.0856
   85SLPC   H9Y 8150   2.518   4.188   3.944 -0.0904 -0.2094  1.0926
   85SLPC  C310 8151   2.689   4.173   4.072 -0.1996  0.3623  0.2343
   85SLPC  H10X 8152   2.753   4.261   4.051  2.2389 -1.2513  0.3938
   85SLPC  H10Y 8153   2.754   4.099   4.125  0.7872  0.3211 -0.9782
   85SLPC  C311 8154   2.587   4.213   4.177 -0.8784 -0.2823  0.2201
   85SLPC  H11X 8155   2.507   4.136   4.174  0.8530 -2.1793  0.5540
   85SLPC  H11Y 8156   2.547   4.315   4.160  1.8090  1.4721  3.2514
   85SLPC  C312 8157   2.642   4.219   4.325  0.1764 -0.6254  0.6182
   85SLPC  H12X 8158   2.749   4.252   4.328  0.4222 -0.9551 -2.2655
   85SLPC  H12Y 8159   2.648   4.118   4.371  1.2017 -0.9912 -0.2588
   85SLPC  C313 8160   2.544   4.299   4.416  0.1729 -0.6012 -0.5031
   85SLPC  H13X 8161   2.464   4.230   4.451  0.3646 -1.2874 -1.3818
   85SLPC  H13Y 8162   2.503   4.384   4.357  0.2901  0.0007  0.2701
   85SLPC  C314 8163   2.622   4.351   4.542  0.3663 -0.0385  0.2696
   85SLPC  H14X 8164   2.717   4.401   4.515 -0.1085  1.3551  1.0581
   85SLPC  H14Y 8165   2.657   4.267   4.605 -0.3119 -0.8748 -0.4228
   85SLPC  C315 8166   2.530   4.447   4.626  0.8679 -0.1430 -0.4742
   85SLPC  H15X 8167   2.453   4.386   4.679 -0.9260  2.1447 -0.3073
   85SLPC  H15Y 8168   2.484   4.519   4.555 -0.0339 -0.6551 -0.4243
   85SLPC  C316 8169   2.613   4.521   4.733 -0.1767  0.2396  0.7352
   85SLPC  H16X 8170   2.550   4.593   4.790  0.9745  1.3937  0.5807
   85SLPC  H16Y 8171   2.681   4.587   4.675  1.3800  0.0194  2.2347
   85SLPC  C317 8172   2.698   4.437   4.827  0.0972  0.4018  0.8874
   85SLPC  H17X 8173   2.758   4.497   4.898  2.2462 -3.0139  2.1586
   85SLPC  H17Y 8174   2.778   4.396   4.762  0.6339  2.6609  0.0148
   85SLPC  C318 8175   2.617   4.337   4.912 -1.0835  0.6390  0.7955
   85SLPC  H18X 8176   2.666   4.278   4.992 -0.0318  0.1888 -0.1657
   85SLPC  H18Y 8177   2.551   4.269   4.854 -0.3057 -1.1695  1.9537
   85SLPC  H18Z 8178   2.552   4.410   4.965 -1.2311 -0.9110  2.8791
   86SLPC     N 8179   4.138   6.136   2.192 -0.0185 -0.4967 -0.5206
   86SLPC   C13 8180   3.994   6.159   2.215 -0.0739  0.0756 -0.7943
   86SLPC  H13A 8181   3.938   6.087   2.158  1.3965 -0.4796 -1.5777
   86SLPC  H13B 8182   3.974   6.150   2.320  0.3891 -1.0628 -0.7884
   86SLPC  H13C 8183   3.953   6.258   2.200 -1.0877 -0.3211 -0.7249
   86SLPC   C14 8184   4.162   6.139   2.047  0.3322 -0.0190 -0.0642
   86SLPC  H14A 8185   4.264   6.117   2.020  0.8059  0.1035  1.4996
   86SLPC  H14B 8186   4.108   6.056   2.004 -0.9009  0.0352  1.2854
   86SLPC  H14C 8187   4.127   6.234   2.011 -0.4933  0.0204  0.7993
   86SLPC   C15 8188   4.188   6.007   2.248  0.3466  0.4401  0.2044
   86SLPC  H15A 8189   4.164   6.001   2.353 -1.6077 -2.6922 -0.2682
   86SLPC  H15B 8190   4.141   5.922   2.199  1.4102 -0.2495  0.3420
   86SLPC  H15C 8191   4.294   6.008   2.232  0.5053  1.2914  1.2666
   86SLPC   C12 8192   4.205   6.253   2.260  0.3020 -0.6336 -0.7118
   86SLPC  H12A 8193   4.155   6.346   2.235  1.0175  0.2516  0.9366
   86SLPC  H12B 8194   4.304   6.271   2.221  0.3552 -0.1213 -0.3546
   86SLPC   C11 8195   4.198   6.277   2.416 -0.0043  0.2600  0.8970
   86SLPC  H11A 8196   4.094   6.296   2.451  0.8911 -0.5211  4.3389
   86SLPC  H11B 8197   4.252   6.371   2.441 -0.6148  0.3240  2.0208
   86SLPC     P 8198   4.195   6.089   2.596 -0.1131  0.1892 -0.2816
   86SLPC   O13 8199   4.054   6.064   2.553 -0.5931  0.3935 -0.2759
   86SLPC   O14 8200   4.287   5.980   2.619 -0.0096  0.0829  0.6670
   86SLPC   O12 8201   4.267   6.178   2.483 -0.5890 -0.0497  0.0001
   86SLPC   O11 8202   4.202   6.195   2.716  0.2465 -0.0745 -0.5675
   86SLPC    C1 8203   4.329   6.224   2.775 -0.7021  0.0477 -0.3010
   86SLPC    HA 8204   4.413   6.169   2.728  1.2169  0.7025  2.1562
   86SLPC    HB 8205   4.349   6.332   2.761  1.2580 -0.2553 -0.1360
   86SLPC    C2 8206   4.329   6.192   2.928  0.2527 -0.3945 -0.2612
   86SLPC    HS 8207   4.359   6.085   2.931 -0.9708 -0.8297 -1.9195
   86SLPC   O21 8208   4.200   6.225   2.982 -0.3919  0.5632 -0.2102
   86SLPC   C21 8209   4.135   6.109   3.012  0.1388  0.1349  0.0251
   86SLPC   O22 8210   4.169   6.000   2.981 -0.3261  0.5442  0.0654
   86SLPC   C22 8211   4.004   6.154   3.074  0.2240  0.2542 -0.4834
   86SLPC   H2R 8212   3.937   6.191   2.994 -2.0240  0.4744  1.3905
   86SLPC   H2S 8213   3.950   6.068   3.120  0.0564  0.6809  0.1306
   86SLPC    C3 8214   4.441   6.274   2.995  0.2740 -0.4859 -0.5184
   86SLPC    HX 8215   4.429   6.384   2.987  0.8815 -0.3720  0.0559
   86SLPC    HY 8216   4.531   6.258   2.932 -0.7164  0.1568 -2.1795
   86SLPC   O31 8217   4.461   6.252   3.143 -0.2909  0.4399 -0.1422
   86SLPC   C31 8218   4.502   6.131   3.171 -0.8703  0.1794  0.5956
   86SLPC   O32 8219   4.541   6.048   3.088  0.1978  0.1608 -0.9347
   86SLPC   C32 8220   4.499   6.109   3.320 -0.2660  0.0240  0.5005
   86SLPC   H2X 8221   4.392   6.106   3.351  0.2880  1.0799  2.7217
   86SLPC   H2Y 8222   4.539   6.199   3.372  1.0028 -0.0495 -0.3049
   86SLPC   C23 8223   4.010   6.254   3.186  0.7751 -0.7703  0.1576
   86SLPC   H3R 8224   3.908   6.294   3.205  0.1979 -3.5424  4.3049
   86SLPC   H3S 8225   4.061   6.350   3.162  0.7460 -0.7470  0.1869
   86SLPC   C24 8226   4.069   6.194   3.315  0.1509  0.0471  0.2515
   86SLPC   H4R 8227   4.145   6.123   3.278 -1.0047 -0.0389 -2.1045
   86SLPC   H4S 8228   3.995   6.123   3.357  1.9637 -0.2751  3.2470
   86SLPC   C25 8229   4.104   6.296   3.423  0.2981 -0.8048  0.3113
   86SLPC   H5R 8230   4.018   6.365   3.416  1.8761  1.2164 -0.3736
   86SLPC   H5S 8231   4.190   6.362   3.396 -0.6193  0.3951  0.2755
   86SLPC   C26 8232   4.131   6.250   3.561 -0.0770  0.0390  0.8993
   86SLPC   H6R 8233   4.188   6.155   3.554 -0.4905 -0.0669 -2.7877
   86SLPC   H6S 8234   4.031   6.222   3.601 -0.1505 -0.3203  0.4657
   86SLPC   C27 8235   4.190   6.360   3.648 -0.3502  0.6736 -0.3516
   86SLPC   H7R 8236   4.119   6.443   3.671 -0.2868  0.9381 -1.1039
   86SLPC   H7S 8237   4.265   6.415   3.588  0.0834  1.0325  0.5074
   86SLPC   C28 8238   4.241   6.302   3.782 -0.7448  0.3854  0.8260
   86SLPC   H8R 8239   4.319   6.362   3.833 -0.1733 -0.0812  0.5170
   86SLPC   H8S 8240   4.290   6.206   3.756  1.4375  1.6089  0.1999
   86SLPC   C29 8241   4.118   6.267   3.870 -0.8170  0.0912  0.6066
   86SLPC   H9R 8242   4.063   6.176   3.843 -2.3823  0.2424  3.0212
   86SLPC  C210 8243   4.078   6.344   3.972 -0.1304 -0.4972 -0.9886
   86SLPC  H10R 8244   3.993   6.306   4.030  0.2061 -0.7081 -0.6311
   86SLPC  C211 8245   4.134   6.481   4.020 -0.6055  0.4194 -0.2059
   86SLPC  H11R 8246   4.051   6.548   4.049 -1.1644 -0.1817 -0.3803
   86SLPC  H11S 8247   4.185   6.531   3.935 -0.2104 -2.1740 -1.6122
   86SLPC  C212 8248   4.223   6.476   4.137  0.1223 -0.7151 -0.4030
   86SLPC  H12R 8249   4.330   6.484   4.113  0.3062  0.3169  0.7030
   86SLPC  C213 8250   4.179   6.488   4.265 -0.3719  0.3216 -0.7925
   86SLPC  H13R 8251   4.247   6.480   4.351  0.2760 -0.1686 -1.3504
   86SLPC  C214 8252   4.034   6.500   4.309 -0.1651  0.0005  0.1736
   86SLPC  H14R 8253   3.963   6.455   4.237 -1.5536  0.9668  0.8921
   86SLPC  H14S 8254   3.996   6.602   4.335  1.3495  0.9761 -1.2066
   86SLPC  C215 8255   4.011   6.400   4.422 -0.0708  0.4781  0.6495
   86SLPC  H15R 8256   4.092   6.418   4.496  0.1120 -1.0148  0.8459
   86SLPC  H15S 8257   4.015   6.293   4.392  0.0324 -0.5330  3.9034
   86SLPC  C216 8258   3.874   6.423   4.490  0.1261 -0.3276 -0.3719
   86SLPC  H16R 8259   3.799   6.384   4.418 -0.3045  1.2263 -0.8029
   86SLPC  H16S 8260   3.855   6.529   4.516  1.4360 -0.3223  0.6672
   86SLPC  C217 8261   3.872   6.348   4.619  0.1736  0.0078 -0.4865
   86SLPC  H17R 8262   3.952   6.382   4.688 -0.0381  0.4716 -0.4634
   86SLPC  H17S 8263   3.886   6.240   4.602 -0.3641 -0.0736 -0.4139
   86SLPC  C218 8264   3.745   6.368   4.695  0.0308 -0.0198 -0.1230
   86SLPC  H18R 8265   3.654   6.341   4.637  0.1935 -0.1758 -0.3079
   86SLPC  H18S 8266   3.736   6.472   4.731  1.9129 -0.2930  1.2758
   86SLPC  H18T 8267   3.749   6.309   4.789  3.0521  1.2452  0.6412
   86SLPC   C33 8268   4.592   5.997   3.361  0.2498  0.2380 -0.3252
   86SLPC   H3X 8269   4.697   6.013   3.331  0.6530  2.6233  2.0263
   86SLPC   H3Y 8270   4.548   5.897   3.339  0.4661  0.5907 -2.6340
   86SLPC   C34 8271   4.602   6.003   3.517  0.2732 -0.2746 -0.2195
   86SLPC   H4X 8272   4.502   6.028   3.558  0.9480 -0.8575  1.8995
   86SLPC   H4Y 8273   4.672   6.084   3.546 -0.8795  0.3120  1.0483
   86SLPC   C35 8274   4.646   5.872   3.573 -0.4496  0.7291 -0.6204
   86SLPC   H5X 8275   4.739   5.837   3.523  1.5607  0.7969  2.7293
   86SLPC   H5Y 8276   4.568   5.795   3.556 -1.3193  1.5912 -0.5756
   86SLPC   C36 8277   4.695   5.880   3.721 -0.1905 -0.2791  0.2545
   86SLPC   H6X 8278   4.635   5.960   3.769  1.2307  1.8713 -1.3367
   86SLPC   H6Y 8279   4.800   5.919   3.725 -0.3783  0.6027 -1.9089
   86SLPC   C37 8280   4.698   5.743   3.800 -0.9637 -0.1412 -1.3918
   86SLPC   H7X 8281   4.776   5.677   3.756  1.6010  2.6099 -1.2505
   86SLPC   H7Y 8282   4.607   5.682   3.781  0.5197 -3.2867  0.7183
   86SLPC   C38 8283   4.720   5.770   3.950  0.1350 -0.0534 -0.3494
   86SLPC   H8X 8284   4.647   5.847   3.983 -0.0292 -0.7472  0.9919
   86SLPC   H8Y 8285   4.820   5.818   3.957  0.1373  0.6259 -3.6542
   86SLPC   C39 8286   4.695   5.649   4.040  0.0250  0.2700 -1.0029
   86SLPC   H9X 8287   4.590   5.614   4.037 -0.3655  0.8016  2.2781
   86SLPC   H9Y 8288   4.697   5.682   4.146  2.3071  0.4416 -1.0567
   86SLPC  C310 8289   4.790   5.523   4.016  0.3641 -1.1361  0.2426
   86SLPC  H10X 8290   4.896   5.552   4.031  0.2280  0.7847 -2.0157
   86SLPC  H10Y 8291   4.786   5.489   3.910  1.4710  1.6749 -0.7810
   86SLPC  C311 8292   4.764   5.419   4.115  0.1114 -0.5297  0.6452
   86SLPC  H11X 8293   4.669   5.372   4.082 -0.9019  1.8981 -0.1116
   86SLPC  H11Y 8294   4.745   5.464   4.214  0.8925  0.2642  0.4455
   86SLPC  C312 8295   4.883   5.320   4.117  0.1910  0.0414 -0.6072
   86SLPC  H12X 8296   4.968   5.373   4.166 -0.6643 -0.8148  1.9675
   86SLPC  H12Y 8297   4.900   5.290   4.012  1.1921 -1.8808  0.0542
   86SLPC  C313 8298   4.852   5.202   4.211  0.1975  0.4724 -0.6005
   86SLPC  H13X 8299   4.772   5.142   4.163 -0.4177  0.2622  0.6631
   86SLPC  H13Y 8300   4.812   5.245   4.305  0.7867 -1.5492  0.6282
   86SLPC  C314 8301   4.968   5.112   4.252 -1.2554 -0.7423 -0.4260
   86SLPC  H14X 8302   4.994   5.065   4.155 -1.1741  1.1291 -1.3662
   86SLPC  H14Y 8303   4.921   5.032   4.313 -0.8528 -0.4456  0.2948
   86SLPC  C315 8304   5.089   5.186   4.306 -0.4307 -0.3495 -0.4930
   86SLPC  H15X 8305   5.063   5.254   4.391  2.3431  1.2875 -0.8359
   86SLPC  H15Y 8306   5.130   5.254   4.229 -1.3838  0.9220  0.0730
   86SLPC  C316 8307   5.186   5.079   4.356  0.6884  0.5327  0.2245
   86SLPC  H16X 8308   5.201   5.007   4.273  1.1877 -0.3500  1.0493
   86SLPC  H16Y 8309   5.140   5.010   4.430 -0.3230 -0.4784 -1.2947
   86SLPC  C317 8310   5.311   5.150   4.389 -0.0642  0.6203 -0.1219
   86SLPC  H17X 8311   5.293   5.208   4.482  0.8343 -1.9189  1.7319
   86SLPC  H17Y 8312   5.321   5.231   4.313 -1.5567  0.9337 -0.0192
   86SLPC  C318 8313   5.431   5.056   4.410 -0.3162 -0.7889  0.1680
   86SLPC  H18X 8314   5.424   5.012   4.512  0.2270  2.6264  1.8282
   86SLPC  H18Y 8315   5.518   5.124   4.411 -2.1239  1.7853  3.7316
   86SLPC  H18Z 8316   5.433   4.984   4.326 -0.3400 -0.7382  0.1248
   87SLPC     N 8317   0.828   4.370   2.594 -0.0072  0.0790 -0.3851
   87SLPC   C13 8318   0.795   4.316   2.455 -0.6870  0.3800  0.4319
   87SLPC  H13A 8319   0.698   4.334   2.413 -0.6453 -1.2092 -0.4376
   87SLPC  H13B 8320   0.866   4.350   2.382 -0.1771 -1.3038  0.0917
   87SLPC  H13C 8321   0.813   4.209   2.460  1.4578  0.7347  2.1129
   87SLPC   C14 8322   0.973   4.323   2.628  0.5487 -0.2547  0.5708
   87SLPC  H14A 8323   1.043   4.351   2.551 -0.8369  0.6140 -0.4289
   87SLPC  H14B 8324   1.006   4.365   2.721  2.6633  0.0751 -0.2678
   87SLPC  H14C 8325   0.979   4.216   2.641  0.0627 -0.5319 -1.1823
   87SLPC   C15 8326   0.727   4.299   2.681  0.0982  0.0418  0.3600
   87SLPC  H15A 8327   0.746   4.328   2.783  0.0314  2.6193 -0.2942
   87SLPC  H15B 8328   0.623   4.319   2.658 -0.1692 -2.8700 -1.6094
   87SLPC  H15C 8329   0.738   4.191   2.679 -2.7243 -0.3573  1.1276
   87SLPC   C12 8330   0.817   4.523   2.610  0.1836 -0.1426 -0.0848
   87SLPC  H12A 8331   0.714   4.540   2.582  0.1308  0.3627  0.4177
   87SLPC  H12B 8332   0.880   4.562   2.531  0.6803  1.6501  1.1468
   87SLPC   C11 8333   0.854   4.580   2.750 -0.5277  0.1604  0.4594
   87SLPC  H11A 8334   0.812   4.511   2.827  1.6051 -0.9995  0.6477
   87SLPC  H11B 8335   0.804   4.676   2.775 -0.7324 -0.6529  3.6270
   87SLPC     P 8336   1.081   4.673   2.674  0.1001  0.0389  0.1879
   87SLPC   O13 8337   1.111   4.595   2.548 -0.4626 -0.5331  0.2795
   87SLPC   O14 8338   1.013   4.800   2.655  0.0314 -0.2234  0.0325
   87SLPC   O12 8339   1.000   4.580   2.767  0.1757  0.8385  0.1926
   87SLPC   O11 8340   1.215   4.695   2.755  0.6481  0.4385  0.1288
   87SLPC    C1 8341   1.228   4.619   2.879  1.3602  0.0322  0.4543
   87SLPC    HA 8342   1.164   4.659   2.960 -0.2360 -0.0932 -0.7021
   87SLPC    HB 8343   1.200   4.513   2.861 -1.0439  0.7810 -0.6468
   87SLPC    C2 8344   1.374   4.627   2.925  0.1434 -0.1141 -0.0769
   87SLPC    HS 8345   1.432   4.571   2.849 -0.4961  0.6749 -1.1735
   87SLPC   O21 8346   1.374   4.553   3.054 -0.2085 -0.1777 -0.1116
   87SLPC   C21 8347   1.498   4.520   3.082 -0.4473  0.5021  0.1311
   87SLPC   O22 8348   1.600   4.553   3.021 -0.3836  0.0709 -0.6921
   87SLPC   C22 8349   1.493   4.447   3.214  0.0862 -0.5737  0.8940
   87SLPC   H2R 8350   1.515   4.521   3.294 -1.8554  0.3452  0.6212
   87SLPC   H2S 8351   1.389   4.413   3.230 -0.7602  0.9852 -0.8630
   87SLPC    C3 8352   1.428   4.775   2.938  0.2317 -0.2281 -0.4375
   87SLPC    HX 8353   1.416   4.836   2.846  0.0586  2.3282  1.1898
   87SLPC    HY 8354   1.537   4.762   2.953  0.3958  2.3333  1.2223
   87SLPC   O31 8355   1.367   4.850   3.046  0.2301 -0.1100  0.0341
   87SLPC   C31 8356   1.425   4.967   3.072 -0.4241 -0.0694 -0.3461
   87SLPC   O32 8357   1.525   5.010   3.017  0.0270 -0.1970 -0.1441
   87SLPC   C32 8358   1.364   5.048   3.178  0.2838 -0.3136 -1.2093
   87SLPC   H2X 8359   1.262   5.010   3.198 -0.2766  2.7038  3.0054
   87SLPC   H2Y 8360   1.341   5.150   3.140 -0.2927  0.3145  0.7385
   87SLPC   C23 8361   1.589   4.320   3.209 -0.0371 -0.4420  0.0376
   87SLPC   H3R 8362   1.686   4.365   3.181 -1.5345  2.3006 -1.1576
   87SLPC   H3S 8363   1.542   4.256   3.131  1.6980 -1.3927 -0.2725
   87SLPC   C24 8364   1.597   4.243   3.338  0.3848 -0.4092 -0.2519
   87SLPC   H4R 8365   1.674   4.165   3.319  2.0363  0.8377  1.0000
   87SLPC   H4S 8366   1.497   4.199   3.363  0.6468 -2.0158 -1.8321
   87SLPC   C25 8367   1.642   4.332   3.454  0.3424 -0.3901 -0.6930
   87SLPC   H5R 8368   1.565   4.408   3.483 -0.7143 -1.6969  0.0505
   87SLPC   H5S 8369   1.740   4.379   3.433  1.0065 -0.6055  1.6679
   87SLPC   C26 8370   1.652   4.256   3.591 -0.1201  0.0975  0.3658
   87SLPC   H6R 8371   1.705   4.159   3.578  1.5762  0.8511  1.3231
   87SLPC   H6S 8372   1.552   4.236   3.635 -1.4676  2.0664 -1.6073
   87SLPC   C27 8373   1.726   4.336   3.689 -0.2228 -0.4807 -0.1012
   87SLPC   H7R 8374   1.825   4.363   3.647  0.2856  0.3280  1.5580
   87SLPC   H7S 8375   1.743   4.279   3.782  1.0068 -0.9915 -0.6088
   87SLPC   C28 8376   1.665   4.474   3.737  0.0481  0.3213  0.0895
   87SLPC   H8R 8377   1.557   4.450   3.749 -0.3606  1.9844  0.0678
   87SLPC   H8S 8378   1.667   4.535   3.644 -0.1125 -2.3891 -1.7883
   87SLPC   C29 8379   1.729   4.542   3.855 -0.1010  0.1639  0.0140
   87SLPC   H9R 8380   1.819   4.596   3.825  0.4934 -1.1892 -0.7756
   87SLPC  C210 8381   1.687   4.530   3.981 -0.4187 -0.6449 -0.0955
   87SLPC  H10R 8382   1.756   4.571   4.057  0.2498  0.5931 -1.3261
   87SLPC  C211 8383   1.572   4.451   4.029 -0.3650  1.2233  0.1215
   87SLPC  H11R 8384   1.486   4.450   3.959  1.8520  1.6631 -2.8126
   87SLPC  H11S 8385   1.528   4.496   4.120  1.2577  1.3243  0.8894
   87SLPC  C212 8386   1.621   4.310   4.073 -0.0632 -0.4796 -0.9255
   87SLPC  H12R 8387   1.635   4.239   3.990  2.1985  0.8953 -1.8292
   87SLPC  C213 8388   1.681   4.278   4.187 -0.0617 -0.6305  0.3367
   87SLPC  H13R 8389   1.726   4.178   4.184 -0.2932 -0.8092  2.0275
   87SLPC  C214 8390   1.717   4.375   4.301 -0.5237  0.0302  0.1578
   87SLPC  H14R 8391   1.771   4.462   4.257  0.6813 -0.7901 -0.0322
   87SLPC  H14S 8392   1.794   4.323   4.361 -0.8318 -0.9789 -0.2879
   87SLPC  C215 8393   1.600   4.411   4.394  0.1708 -0.0817  0.3097
   87SLPC  H15R 8394   1.551   4.319   4.431  0.0055 -0.3783 -0.6299
   87SLPC  H15S 8395   1.513   4.448   4.337  1.3332  0.1014 -1.4282
   87SLPC  C216 8396   1.651   4.525   4.492 -0.5434  0.3969  0.2872
   87SLPC  H16R 8397   1.566   4.573   4.545  0.2870 -0.0507  2.1276
   87SLPC  H16S 8398   1.698   4.609   4.437  2.1072 -0.5081  0.9948
   87SLPC  C217 8399   1.750   4.464   4.597 -0.1850 -0.1072  0.5709
   87SLPC  H17R 8400   1.853   4.463   4.557  0.2217  0.1111  1.5785
   87SLPC  H17S 8401   1.723   4.357   4.610  1.1220 -0.8425 -2.2150
   87SLPC  C218 8402   1.748   4.540   4.722  0.4277 -0.8077  0.6936
   87SLPC  H18R 8403   1.643   4.538   4.758 -0.1432 -1.0779 -0.9073
   87SLPC  H18S 8404   1.768   4.649   4.712 -0.4766 -0.6518  0.4681
   87SLPC  H18T 8405   1.813   4.495   4.800  1.2750 -3.0720 -1.2113
   87SLPC   C33 8406   1.447   5.072   3.302 -0.0284 -0.1033  0.1526
   87SLPC   H3X 8407   1.410   5.163   3.354  2.3293  0.7198  0.5248
   87SLPC   H3Y 8408   1.552   5.093   3.272 -0.3605  0.1529 -0.8820
   87SLPC   C34 8409   1.430   4.953   3.393 -0.3739 -0.1412  0.1316
   87SLPC   H4X 8410   1.477   4.863   3.347 -0.9128 -0.4047  0.0908
   87SLPC   H4Y 8411   1.325   4.934   3.424 -0.8622 -0.8922 -1.7752
   87SLPC   C35 8412   1.511   4.985   3.522 -1.1208 -0.5508 -0.0827
   87SLPC   H5X 8413   1.457   5.070   3.569  0.2498 -0.3803  1.2616
   87SLPC   H5Y 8414   1.610   5.032   3.507 -1.7805  0.9530  0.0952
   87SLPC   C36 8415   1.525   4.877   3.629  0.3207  0.0216 -0.6249
   87SLPC   H6X 8416   1.580   4.794   3.578 -2.9977 -1.5193 -1.9685
   87SLPC   H6Y 8417   1.428   4.824   3.643  1.0215 -1.1282  0.0841
   87SLPC   C37 8418   1.597   4.926   3.759  0.0262  0.8266 -0.0628
   87SLPC   H7X 8419   1.703   4.951   3.742  0.3975  0.1962  1.2407
   87SLPC   H7Y 8420   1.590   4.839   3.827  0.5208  0.8313 -0.0021
   87SLPC   C38 8421   1.526   5.034   3.844  0.2086  0.0709  0.8610
   87SLPC   H8X 8422   1.421   5.000   3.854  0.1005  0.4388  0.9910
   87SLPC   H8Y 8423   1.525   5.140   3.809  1.0283  0.2560  1.3673
   87SLPC   C39 8424   1.592   5.031   3.986  0.8374 -0.4832 -0.5342
   87SLPC   H9X 8425   1.699   5.054   3.964  0.8684 -1.2186 -1.1918
   87SLPC   H9Y 8426   1.596   4.928   4.028 -0.9971  0.5122  2.3544
   87SLPC  C310 8427   1.517   5.123   4.086 -0.1097  0.1257 -0.3467
   87SLPC  H10X 8428   1.415   5.082   4.104 -0.1256  1.0147  2.0145
   87SLPC  H10Y 8429   1.505   5.218   4.030 -0.5720 -1.5766 -3.2970
   87SLPC  C311 8430   1.581   5.143   4.232 -0.4990 -0.0937  0.8824
   87SLPC  H11X 8431   1.688   5.165   4.215 -0.2732 -0.5889  1.6191
   87SLPC  H11Y 8432   1.576   5.044   4.281  0.4072 -0.1031  0.9721
   87SLPC  C312 8433   1.493   5.244   4.310 -0.0946 -0.2214 -0.3052
   87SLPC  H12X 8434   1.523   5.229   4.416 -0.9901 -0.9515 -0.1400
   87SLPC  H12Y 8435   1.388   5.211   4.298 -0.6692  1.1601  0.6339
   87SLPC  C313 8436   1.517   5.392   4.271 -0.7517  0.2249  0.3563
   87SLPC  H13X 8437   1.495   5.402   4.163  0.3763  2.8267  0.2993
   87SLPC  H13Y 8438   1.624   5.421   4.267 -0.9527  0.8393 -1.6009
   87SLPC  C314 8439   1.439   5.489   4.357  0.2717 -0.0386 -0.8086
   87SLPC  H14X 8440   1.334   5.458   4.335  1.0247 -1.5252 -2.5106
   87SLPC  H14Y 8441   1.458   5.590   4.314  0.3251  0.9614  1.4339
   87SLPC  C315 8442   1.467   5.494   4.511 -0.3779  0.4865 -0.4305
   87SLPC  H15X 8443   1.576   5.517   4.515 -0.8313  3.0066 -1.2205
   87SLPC  H15Y 8444   1.445   5.394   4.554 -0.3561  1.2800  1.5710
   87SLPC  C316 8445   1.383   5.599   4.585  0.3358 -0.4169 -0.2924
   87SLPC  H16X 8446   1.277   5.565   4.576  0.1905  0.3658 -1.8883
   87SLPC  H16Y 8447   1.399   5.697   4.536  0.8873 -1.2224 -1.7960
   87SLPC  C317 8448   1.417   5.628   4.738 -0.5076  0.1293  0.3031
   87SLPC  H17X 8449   1.527   5.639   4.749 -0.2429  0.0527 -1.7916
   87SLPC  H17Y 8450   1.399   5.534   4.794 -2.5378  0.1191 -0.2880
   87SLPC  C318 8451   1.324   5.735   4.790  0.4302  0.1232 -0.5409
   87SLPC  H18X 8452   1.343   5.821   4.722 -0.4578  1.6410  1.0622
   87SLPC  H18Y 8453   1.342   5.757   4.897 -1.3499 -0.9232  0.0112
   87SLPC  H18Z 8454   1.218   5.714   4.764  1.0030 -0.8681 -2.3414
   88SLPC     N 8455   5.124   4.938   2.475 -0.7061 -0.3647 -0.5988
   88SLPC   C13 8456   5.018   5.048   2.490 -0.1654 -0.5365  0.3474
   88SLPC  H13A 8457   5.068   5.143   2.481 -1.6816  0.1605 -1.0226
   88SLPC  H13B 8458   4.947   5.047   2.409  0.7469  1.9642 -0.5797
   88SLPC  H13C 8459   4.974   5.051   2.589 -0.2017  3.4597  0.3479
   88SLPC   C14 8460   5.213   4.960   2.354  0.6513  0.3451  0.0415
   88SLPC  H14A 8461   5.161   4.924   2.266  0.9520  1.2609 -0.5230
   88SLPC  H14B 8462   5.248   5.059   2.330  0.1115  0.2571 -1.1875
   88SLPC  H14C 8463   5.300   4.896   2.358  0.0983 -0.5454 -1.4679
   88SLPC   C15 8464   5.046   4.811   2.449 -0.0836 -0.2019 -0.0432
   88SLPC  H15A 8465   5.113   4.729   2.431  2.2787  1.7853 -0.8173
   88SLPC  H15B 8466   4.978   4.796   2.532  1.2967  1.8676  1.6019
   88SLPC  H15C 8467   4.984   4.817   2.361 -0.0982  0.1919 -0.0087
   88SLPC   C12 8468   5.210   4.923   2.601 -0.8433 -0.3661  0.3180
   88SLPC  H12A 8469   5.244   4.820   2.603 -0.9219 -0.3885  0.8912
   88SLPC  H12B 8470   5.143   4.919   2.686 -1.3706 -0.6184 -0.1028
   88SLPC   C11 8471   5.320   5.023   2.623  0.2040  0.0656  0.2159
   88SLPC  H11A 8472   5.354   4.998   2.726  0.5360 -0.8134 -0.1028
   88SLPC  H11B 8473   5.283   5.127   2.637  1.7947  1.1447 -2.7156
   88SLPC     P 8474   5.530   4.904   2.497 -0.3303  0.2239  0.1204
   88SLPC   O13 8475   5.474   4.790   2.415  0.0824 -0.3179 -0.1546
   88SLPC   O14 8476   5.652   4.965   2.442 -0.0745 -0.0561 -0.0897
   88SLPC   O12 8477   5.426   5.016   2.518  0.0354 -0.1834 -0.3491
   88SLPC   O11 8478   5.558   4.838   2.638  0.1344  0.3201 -0.3923
   88SLPC    C1 8479   5.643   4.888   2.744  0.6421 -0.0516 -0.1713
   88SLPC    HA 8480   5.736   4.827   2.741 -0.5655 -1.9559 -3.1181
   88SLPC    HB 8481   5.667   4.995   2.725  1.2846  0.6094  3.4542
   88SLPC    C2 8482   5.578   4.878   2.889 -0.5163  0.2905  0.0329
   88SLPC    HS 8483   5.512   4.964   2.913 -1.3748 -0.1503 -0.6672
   88SLPC   O21 8484   5.684   4.865   2.982  0.0306  0.2492 -0.0086
   88SLPC   C21 8485   5.722   4.978   3.032 -0.9720  0.9328 -0.2667
   88SLPC   O22 8486   5.686   5.089   3.003 -0.0182 -0.7266  0.0300
   88SLPC   C22 8487   5.825   4.936   3.142  0.1515 -0.7624  0.9773
   88SLPC   H2R 8488   5.807   4.843   3.199 -0.5350 -0.9728  0.4389
   88SLPC   H2S 8489   5.913   4.898   3.085 -0.0905 -1.4898  1.0867
   88SLPC    C3 8490   5.480   4.756   2.901 -0.0698 -0.7219 -0.2258
   88SLPC    HX 8491   5.542   4.664   2.887 -2.5625 -2.6976  0.8790
   88SLPC    HY 8492   5.407   4.757   2.818 -0.8823 -0.8781  0.4650
   88SLPC   O31 8493   5.416   4.739   3.032 -0.0929 -0.2195 -0.1996
   88SLPC   C31 8494   5.292   4.791   3.038 -0.5400  0.0406 -0.4035
   88SLPC   O32 8495   5.237   4.849   2.944  0.3488  0.1197 -0.7912
   88SLPC   C32 8496   5.234   4.772   3.184 -0.2566  0.4908  0.0041
   88SLPC   H2X 8497   5.230   4.865   3.244  1.3374 -1.4311  3.3721
   88SLPC   H2Y 8498   5.295   4.696   3.236 -1.9481 -0.2536  1.0090
   88SLPC   C23 8499   5.863   5.048   3.240  0.8668  0.4836  0.7468
   88SLPC   H3R 8500   5.776   5.105   3.278  0.5411 -0.1342  0.9347
   88SLPC   H3S 8501   5.914   5.120   3.172 -0.8006  0.2033 -0.8745
   88SLPC   C24 8502   5.938   5.005   3.362  0.8479  0.4933 -0.1593
   88SLPC   H4R 8503   6.041   4.973   3.334  0.7417 -0.8526  0.8759
   88SLPC   H4S 8504   5.885   4.926   3.419  0.2811 -0.6992 -2.2194
   88SLPC   C25 8505   5.965   5.119   3.457  0.2316  0.0184 -0.4052
   88SLPC   H5R 8506   5.870   5.173   3.479  0.4240  0.0448  0.4266
   88SLPC   H5S 8507   6.040   5.192   3.421  0.9672 -1.6309 -2.4053
   88SLPC   C26 8508   6.004   5.059   3.598 -0.4272 -0.3223  0.5783
   88SLPC   H6R 8509   6.068   4.968   3.592  0.8546  0.4784  1.3803
   88SLPC   H6S 8510   5.913   5.021   3.648 -0.9246 -1.8794 -1.3894
   88SLPC   C27 8511   6.078   5.161   3.686  0.1970 -0.2724  0.0500
   88SLPC   H7R 8512   6.015   5.248   3.714  0.7098  0.6352 -1.4822
   88SLPC   H7S 8513   6.158   5.203   3.621 -0.3358 -0.0106 -0.4506
   88SLPC   C28 8514   6.135   5.098   3.820  0.2490  0.0540 -0.5937
   88SLPC   H8R 8515   6.051   5.078   3.890  0.0950  1.7644 -0.2399
   88SLPC   H8S 8516   6.185   5.179   3.878 -2.6593  0.7845  1.0925
   88SLPC   C29 8517   6.230   4.988   3.796  1.2536 -0.2421 -0.0987
   88SLPC   H9R 8518   6.267   4.983   3.693  3.5565  0.4908  0.6383
   88SLPC  C210 8519   6.300   4.927   3.889 -0.5296  0.1163 -0.3577
   88SLPC  H10R 8520   6.363   4.844   3.855  0.9600  1.4292 -0.9180
   88SLPC  C211 8521   6.267   4.947   4.036  0.3254 -0.1238  0.5190
   88SLPC  H11R 8522   6.184   5.019   4.053  0.7590  0.3844  0.5182
   88SLPC  H11S 8523   6.352   4.994   4.090  0.5346  1.2881 -0.9491
   88SLPC  C212 8524   6.236   4.819   4.099  0.6779  0.4707 -0.0428
   88SLPC  H12R 8525   6.322   4.762   4.138  0.2263  0.2325  0.6073
   88SLPC  C213 8526   6.116   4.752   4.102 -0.6574  0.8550 -0.1114
   88SLPC  H13R 8527   6.115   4.656   4.156 -3.8314  0.1346 -1.2441
   88SLPC  C214 8528   5.986   4.793   4.039 -0.2338  0.3377  0.8750
   88SLPC  H14R 8529   5.978   4.902   4.059  1.1138  0.6095  0.0292
   88SLPC  H14S 8530   5.913   4.731   4.096  0.7473  1.4245  3.4491
   88SLPC  C215 8531   5.974   4.768   3.883  0.1805 -0.4341 -0.6252
   88SLPC  H15R 8532   6.042   4.833   3.824 -1.0766 -0.9246 -2.6870
   88SLPC  H15S 8533   5.878   4.809   3.845  1.2579  0.7030 -2.2680
   88SLPC  C216 8534   5.971   4.620   3.842  0.1337 -0.1523  0.6916
   88SLPC  H16R 8535   5.881   4.560   3.869  1.2943 -1.6190  1.3954
   88SLPC  H16S 8536   6.056   4.570   3.893  0.7645  0.4154  0.2190
   88SLPC  C217 8537   6.001   4.610   3.692  0.2704  0.2163 -0.2306
   88SLPC  H17R 8538   6.024   4.505   3.666  1.6882  0.6817 -0.9900
   88SLPC  H17S 8539   6.090   4.671   3.661  1.0834 -0.5878  0.4709
   88SLPC  C218 8540   5.892   4.665   3.596 -0.2396  0.5355  0.0445
   88SLPC  H18R 8541   5.808   4.592   3.597 -1.1030  1.5119  0.9060
   88SLPC  H18S 8542   5.926   4.690   3.493 -0.5736  1.2117  0.0976
   88SLPC  H18T 8543   5.846   4.754   3.644  0.4025  0.9991 -0.1831
   88SLPC   C33 8544   5.088   4.709   3.193 -0.0781 -0.4667  0.6054
   88SLPC   H3X 8545   5.069   4.627   3.120 -0.7875  0.7201 -0.6036
   88SLPC   H3Y 8546   5.012   4.787   3.169 -0.0571 -0.4410  0.6245
   88SLPC   C34 8547   5.037   4.664   3.336 -0.5095 -0.1402  0.1780
   88SLPC   H4X 8548   5.065   4.758   3.389  0.5561 -0.2336 -0.1856
   88SLPC   H4Y 8549   5.101   4.578   3.364 -0.9391 -0.7746 -0.7508
   88SLPC   C35 8550   4.889   4.643   3.357 -0.2773  0.3058  0.6913
   88SLPC   H5X 8551   4.888   4.568   3.440  1.6967 -1.5747 -0.8770
   88SLPC   H5Y 8552   4.844   4.604   3.264 -0.8961 -0.3226  1.2366
   88SLPC   C36 8553   4.797   4.754   3.413  0.5666 -0.4030  0.0418
   88SLPC   H6X 8554   4.787   4.842   3.346 -1.3531 -0.6270 -0.0294
   88SLPC   H6Y 8555   4.860   4.789   3.498  0.9184 -1.3108  0.1744
   88SLPC   C37 8556   4.658   4.702   3.437  0.1314  0.0013  0.5315
   88SLPC   H7X 8557   4.646   4.607   3.495 -1.1395 -0.0153  0.2509
   88SLPC   H7Y 8558   4.613   4.675   3.340 -0.3841 -0.0305  0.7754
   88SLPC   C38 8559   4.571   4.806   3.509 -0.1579  0.2671  0.1359
   88SLPC   H8X 8560   4.472   4.757   3.517  0.6015 -1.4998 -0.7129
   88SLPC   H8Y 8561   4.568   4.898   3.447 -3.2512 -0.4441 -0.9405
   88SLPC   C39 8562   4.604   4.854   3.656 -0.1545 -0.7285  0.2083
   88SLPC   H9X 8563   4.520   4.915   3.695  2.1299  3.2500 -0.5237
   88SLPC   H9Y 8564   4.690   4.924   3.648  0.1040 -1.0515  0.1671
   88SLPC  C310 8565   4.638   4.738   3.758  0.0321 -0.1733  0.2547
   88SLPC  H10X 8566   4.733   4.702   3.713 -0.5956 -0.4713 -0.8549
   88SLPC  H10Y 8567   4.562   4.657   3.763  1.6753 -1.7259  4.2729
   88SLPC  C311 8568   4.647   4.784   3.905 -0.2304  0.6053  0.3411
   88SLPC  H11X 8569   4.548   4.825   3.936  0.2894  3.0871 -1.0529
   88SLPC  H11Y 8570   4.709   4.875   3.919  0.7203 -0.1677  1.2885
   88SLPC  C312 8571   4.691   4.670   3.999  0.2097 -0.3238  0.1405
   88SLPC  H12X 8572   4.786   4.618   3.977  1.0858 -0.7819  4.2641
   88SLPC  H12Y 8573   4.611   4.593   4.000 -1.4266  1.2827  1.2982
   88SLPC  C313 8574   4.722   4.730   4.134  0.2896  0.0645 -0.5859
   88SLPC  H13X 8575   4.812   4.795   4.132  0.8005 -0.5577  0.6974
   88SLPC  H13Y 8576   4.756   4.648   4.201  1.4190 -0.6402 -1.9779
   88SLPC  C314 8577   4.615   4.811   4.196  0.0170  0.8923  0.5233
   88SLPC  H14X 8578   4.519   4.758   4.178  0.6129  0.2735 -0.9912
   88SLPC  H14Y 8579   4.600   4.914   4.159  1.6639  0.8266 -0.4262
   88SLPC  C315 8580   4.645   4.834   4.348  0.7219  0.7757 -0.3549
   88SLPC  H15X 8581   4.753   4.860   4.358  0.8984 -0.5582  1.9198
   88SLPC  H15Y 8582   4.641   4.738   4.404 -1.1314  1.1110  0.1668
   88SLPC  C316 8583   4.546   4.930   4.411 -0.1446 -0.4433 -0.4266
   88SLPC  H16X 8584   4.446   4.883   4.401  0.4847 -1.6424 -1.4230
   88SLPC  H16Y 8585   4.545   5.016   4.341 -1.6921 -1.9881 -2.4214
   88SLPC  C317 8586   4.589   4.979   4.548 -0.7468  0.2076 -0.3241
   88SLPC  H17X 8587   4.599   4.887   4.611  2.3762 -0.5119 -1.6843
   88SLPC  H17Y 8588   4.507   5.043   4.587 -0.6926 -0.4015  0.8401
   88SLPC  C318 8589   4.720   5.055   4.554  1.0035  0.2923  0.3612
   88SLPC  H18X 8590   4.737   5.072   4.663  0.6184  2.2867  0.1429
   88SLPC  H18Y 8591   4.712   5.153   4.503 -0.8269 -0.3077 -0.5982
   88SLPC  H18Z 8592   4.809   5.000   4.516  0.7637 -0.2623  0.5855
   89SAPE     N 8593   1.069   6.037   7.166  0.7904  0.0974  0.2228
   89SAPE   HN1 8594   1.031   6.083   7.251 -0.9307  0.1094 -0.5083
   89SAPE   HN2 8595   1.032   5.941   7.153  0.2704  0.1066  1.4964
   89SAPE   HN3 8596   1.169   6.026   7.191  0.9985  0.2902 -0.4967
   89SAPE   C12 8597   1.042   6.124   7.041 -0.5569  0.1366 -1.1268
   89SAPE  H12A 8598   0.932   6.134   7.029 -0.5648  0.5684 -0.7188
   89SAPE  H12B 8599   1.096   6.084   6.953  2.1616  1.8953 -0.3799
   89SAPE   C11 8600   1.097   6.268   7.074  0.1260  0.0262 -0.3867
   89SAPE  H11A 8601   1.044   6.340   7.009 -0.9714  1.0235  1.5106
   89SAPE  H11B 8602   1.204   6.269   7.046  0.5637 -1.1990  1.0872
   89SAPE     P 8603   1.122   6.461   7.255  0.1140 -0.2072 -0.0712
   89SAPE   O13 8604   1.008   6.554   7.237  0.1394  0.2029 -0.0461
   89SAPE   O14 8605   1.185   6.445   7.386 -0.1813  0.3920 -0.1785
   89SAPE   O12 8606   1.085   6.315   7.209  0.4851 -0.0695 -0.3313
   89SAPE   O11 8607   1.237   6.497   7.152 -0.1236 -0.2001  0.0025
   89SAPE    C1 8608   1.241   6.629   7.098  0.0271  0.6175 -0.5861
   89SAPE    HA 8609   1.221   6.704   7.177 -2.4793  0.2815 -0.8079
   89SAPE    HB 8610   1.346   6.642   7.064  0.3321 -0.6665 -0.1917
   89SAPE    C2 8611   1.147   6.646   6.971 -0.5212  0.6238 -0.1777
   89SAPE    HS 8612   1.045   6.637   7.013 -0.3124  1.1699  0.4632
   89SAPE   O21 8613   1.189   6.535   6.885  0.2892  0.2496 -0.1524
   89SAPE   C21 8614   1.095   6.510   6.798  0.4663 -0.3244 -0.0005
   89SAPE   O22 8615   0.989   6.567   6.780 -0.6871 -0.3552  0.1249
   89SAPE   C22 8616   1.147   6.397   6.706  0.9312  0.0674  0.5668
   89SAPE   H2R 8617   1.215   6.437   6.628  0.7103  0.4112  0.5499
   89SAPE   H2S 8618   1.209   6.329   6.768 -0.4521 -1.9521 -0.1674
   89SAPE    C3 8619   1.174   6.782   6.900 -0.2138 -0.5617  0.5746
   89SAPE    HX 8620   1.149   6.859   6.975 -1.7877  1.0943 -1.5088
   89SAPE    HY 8621   1.108   6.806   6.814 -0.2724  3.7460  1.6146
   89SAPE   O31 8622   1.320   6.790   6.866 -0.0801  0.3484 -0.6002
   89SAPE   C31 8623   1.356   6.744   6.744  0.5768  0.1320 -0.7362
   89SAPE   O32 8624   1.276   6.700   6.658 -0.8674  0.3517 -0.5303
   89SAPE   C32 8625   1.504   6.757   6.722  0.6286  0.3647 -0.1333
   89SAPE   H2X 8626   1.531   6.664   6.667  2.0307  0.0232  1.0459
   89SAPE   H2Y 8627   1.560   6.752   6.818  0.9817  0.5992 -0.3253
   89SAPE   C23 8628   1.035   6.313   6.632 -0.6265  0.1312 -0.2016
   89SAPE   H3R 8629   0.956   6.275   6.699 -0.5600 -0.7633 -0.6143
   89SAPE   H3S 8630   1.091   6.224   6.598  1.6660  1.8044 -1.1226
   89SAPE   C24 8631   0.963   6.384   6.516  0.4998 -0.4442 -0.2885
   89SAPE   H4R 8632   0.914   6.475   6.558 -0.0218  0.0871 -1.9393
   89SAPE   H4S 8633   0.879   6.323   6.476  0.7836 -0.1985 -1.2892
   89SAPE   C25 8634   1.052   6.431   6.403 -0.1855 -0.4449  0.0520
   89SAPE   H5R 8635   1.130   6.502   6.433  0.6271 -1.7671  1.1634
   89SAPE   C26 8636   1.031   6.399   6.276 -0.1111 -0.1800 -0.4212
   89SAPE   H6R 8637   1.115   6.433   6.212  1.4574 -0.2693  1.4968
   89SAPE   C27 8638   0.932   6.303   6.213 -0.2471 -0.0035 -0.7214
   89SAPE   H7R 8639   0.860   6.263   6.287 -1.0083  2.9611  0.2743
   89SAPE   H7S 8640   0.982   6.219   6.160 -0.7112 -1.4441  1.0164
   89SAPE   C28 8641   0.858   6.375   6.101 -0.4174 -0.3115 -0.0994
   89SAPE   H8R 8642   0.836   6.476   6.137 -1.2612 -0.7554  0.6835
   89SAPE   C29 8643   0.851   6.340   5.965 -0.0444  0.5311 -0.5171
   89SAPE   H9R 8644   0.792   6.405   5.899 -0.5348 -1.0646 -1.7083
   89SAPE  C210 8645   0.896   6.214   5.902  0.2017 -0.0910  0.0986
   89SAPE  H10R 8646   0.808   6.167   5.852 -0.7452  2.6953 -1.0416
   89SAPE  H10S 8647   0.925   6.139   5.979 -1.1812 -1.5346 -0.7348
   89SAPE  C211 8648   0.997   6.242   5.793  0.7691  0.0903 -0.1257
   89SAPE  H11R 8649   1.102   6.254   5.825  0.4323  2.5794  0.1850
   89SAPE  C212 8650   0.978   6.266   5.663 -0.2390  0.4708  0.5344
   89SAPE  H12R 8651   1.069   6.275   5.602  0.8665 -1.1150  1.8624
   89SAPE  C213 8652   0.846   6.264   5.589 -0.6215  0.1707  0.6713
   89SAPE  H13R 8653   0.761   6.242   5.658  0.9333  0.3634  2.7523
   89SAPE  H13S 8654   0.842   6.174   5.525 -0.2656  0.0413  0.8268
   89SAPE  C214 8655   0.806   6.386   5.517 -0.3751 -0.4150 -0.0371
   89SAPE  H14R 8656   0.863   6.479   5.530 -2.2844  1.3550 -3.1009
   89SAPE  C215 8657   0.712   6.385   5.423  0.0405 -0.3132  0.1511
   89SAPE  H15R 8658   0.691   6.477   5.366 -2.2580 -0.8990 -0.0527
   89SAPE  C216 8659   0.626   6.276   5.377  0.6532 -0.0330  0.4882
   89SAPE  H16R 8660   0.523   6.316   5.362  0.1815 -2.0574 -2.7310
   89SAPE  H16S 8661   0.611   6.199   5.456  1.1160  0.7035  1.3076
   89SAPE  C217 8662   0.671   6.201   5.246 -0.3323  0.3261 -0.4515
   89SAPE  H17R 8663   0.600   6.120   5.220  0.0750 -0.5923  1.1511
   89SAPE  H17S 8664   0.768   6.151   5.261 -0.5130  0.2552  0.5443
   89SAPE  C218 8665   0.662   6.288   5.122 -0.1443  0.4193  0.0213
   89SAPE  H18R 8666   0.739   6.367   5.125  0.8537 -0.5422  0.6335
   89SAPE  H18S 8667   0.568   6.346   5.132 -0.3188  0.6012 -2.2809
   89SAPE  C219 8668   0.673   6.211   4.985  0.0349 -0.5895 -0.0684
   89SAPE  H19R 8669   0.753   6.136   4.999  2.1515  1.2471 -1.6067
   89SAPE  H19S 8670   0.718   6.282   4.912  1.9589 -1.0826  0.5990
   89SAPE  C220 8671   0.541   6.157   4.935  0.2047  0.1316  0.3966
   89SAPE  H20R 8672   0.459   6.233   4.935  0.5316  0.4927 -0.4794
   89SAPE  H20S 8673   0.506   6.074   5.000 -2.3005 -1.0096 -2.1967
   89SAPE  H20T 8674   0.549   6.118   4.831  1.7252 -1.5546  1.0900
   89SAPE   C33 8675   1.530   6.899   6.654  0.5894  0.6477  0.3965
   89SAPE   H3X 8676   1.633   6.933   6.679  0.7700  1.4284 -1.2972
   89SAPE   H3Y 8677   1.468   6.968   6.715  1.1407 -1.3700  3.4898
   89SAPE   C34 8678   1.504   6.891   6.506 -0.0896 -0.2388 -0.0154
   89SAPE   H4X 8679   1.402   6.853   6.486 -0.2055  0.0645  0.0085
   89SAPE   H4Y 8680   1.552   6.799   6.465  0.6594  0.0255  0.2573
   89SAPE   C35 8681   1.552   7.010   6.424 -0.1583 -0.1949 -0.3813
   89SAPE   H5X 8682   1.643   7.048   6.476 -0.4656  0.5192 -0.3425
   89SAPE   H5Y 8683   1.478   7.094   6.418  1.1817  1.1306  0.7831
   89SAPE   C36 8684   1.600   6.974   6.276  0.0330  0.4095  0.2910
   89SAPE   H6X 8685   1.592   7.067   6.217  0.2041 -0.1236 -0.5849
   89SAPE   H6Y 8686   1.529   6.896   6.240  0.8031 -0.3147  0.2907
   89SAPE   C37 8687   1.744   6.917   6.270 -0.1617 -0.2039 -0.2850
   89SAPE   H7X 8688   1.761   6.855   6.361  0.0793 -0.2557 -0.3656
   89SAPE   H7Y 8689   1.819   6.998   6.285 -0.8708  0.7810 -1.8886
   89SAPE   C38 8690   1.773   6.846   6.146  0.1026 -0.0479 -0.1018
   89SAPE   H8X 8691   1.704   6.761   6.131  0.4573 -0.3729  0.0886
   89SAPE   H8Y 8692   1.873   6.799   6.135  0.4081  0.3019  0.9641
   89SAPE   C39 8693   1.759   6.926   6.014 -0.1636  0.2956  0.3066
   89SAPE   H9X 8694   1.829   7.012   6.010  0.6072 -0.3446 -0.8810
   89SAPE   H9Y 8695   1.652   6.953   6.002 -0.3428 -0.2917  0.5601
   89SAPE  C310 8696   1.784   6.840   5.890 -0.1617  1.0949 -0.5124
   89SAPE  H10X 8697   1.735   6.741   5.893 -0.2205  1.1460  1.0455
   89SAPE  H10Y 8698   1.893   6.817   5.884 -0.6226 -0.8925 -2.1793
   89SAPE  C311 8699   1.745   6.909   5.769 -0.1760  0.3278  0.5209
   89SAPE  H11X 8700   1.817   6.991   5.747 -1.0968  0.9328 -0.3517
   89SAPE  H11Y 8701   1.637   6.934   5.781 -0.3452 -0.7299  1.4009
   89SAPE  C312 8702   1.758   6.824   5.641  0.0048  0.5053  1.2199
   89SAPE  H12X 8703   1.700   6.731   5.657  0.7905 -0.1211  0.4573
   89SAPE  H12Y 8704   1.860   6.783   5.631  0.1470  0.8543  1.2192
   89SAPE  C313 8705   1.716   6.898   5.516 -0.0762  0.4778  0.9862
   89SAPE  H13X 8706   1.777   6.988   5.494 -1.1376  0.2979 -3.7103
   89SAPE  H13Y 8707   1.616   6.941   5.539  0.9982  2.1276  2.9349
   89SAPE  C314 8708   1.705   6.812   5.388  0.3094  0.7144 -0.1547
   89SAPE  H14X 8709   1.651   6.724   5.430  1.4507  0.4835  0.8940
   89SAPE  H14Y 8710   1.803   6.779   5.346  0.3383 -1.2215  1.2803
   89SAPE  C315 8711   1.618   6.875   5.274 -0.6778 -0.2358  0.0489
   89SAPE  H15X 8712   1.546   6.953   5.307 -0.6482  0.6111 -1.7499
   89SAPE  H15Y 8713   1.565   6.794   5.220 -2.1168  0.9931 -0.4496
   89SAPE  C316 8714   1.714   6.941   5.167  0.7994  0.0140 -0.8242
   89SAPE  H16X 8715   1.795   6.872   5.135  0.4869 -0.9975  0.4874
   89SAPE  H16Y 8716   1.765   7.019   5.227 -0.3507  0.0333  0.1658
   89SAPE  C317 8717   1.651   7.018   5.054 -0.1645  0.2476 -0.9509
   89SAPE  H17X 8718   1.736   7.069   5.005  2.5453 -2.8735  0.1038
   89SAPE  H17Y 8719   1.581   7.097   5.088 -1.9387 -2.2045  1.6308
   89SAPE  C318 8720   1.577   6.925   4.968 -0.7617 -0.6234 -0.6342
   89SAPE  H18X 8721   1.484   6.889   5.016  0.1852  0.6959  2.4797
   89SAPE  H18Y 8722   1.623   6.824   4.953  2.1676  0.8338 -2.3576
   89SAPE  H18Z 8723   1.575   6.956   4.862 -1.7831 -0.2329 -0.5100
   90SAPE     N 8724   1.322   5.513   7.368  0.7898 -0.7627  0.5926
   90SAPE   HN1 8725   1.315   5.554   7.463  2.3848  0.6697  0.1466
   90SAPE   HN2 8726   1.355   5.415   7.374 -0.0890 -1.1810 -0.9401
   90SAPE   HN3 8727   1.389   5.571   7.312 -2.5478  1.6709 -1.2065
   90SAPE   C12 8728   1.195   5.530   7.294 -0.6148  0.5890  0.2759
   90SAPE  H12A 8729   1.219   5.505   7.188  1.4961 -1.9227  1.2241
   90SAPE  H12B 8730   1.171   5.638   7.310  1.8772  1.4037 -1.0080
   90SAPE   C11 8731   1.088   5.422   7.344 -0.8884  0.4007 -0.2195
   90SAPE  H11A 8732   0.994   5.448   7.291 -1.0950  3.0344  1.2289
   90SAPE  H11B 8733   1.071   5.448   7.451  0.9222  3.1040 -0.4554
   90SAPE     P 8734   1.078   5.190   7.216  0.0461 -0.1356 -0.1997
   90SAPE   O13 8735   1.164   5.069   7.238 -0.1779 -0.5372 -0.3361
   90SAPE   O14 8736   0.932   5.174   7.230  0.0989 -0.0921 -0.2494
   90SAPE   O12 8737   1.135   5.290   7.331  0.1677  0.0433  0.7690
   90SAPE   O11 8738   1.122   5.274   7.086 -0.0463 -0.3899 -0.0654
   90SAPE    C1 8739   1.018   5.333   7.012  0.3956 -0.4296  0.1352
   90SAPE    HA 8740   0.940   5.380   7.076  0.2268  1.2759 -1.2366
   90SAPE    HB 8741   1.052   5.419   6.950  1.6514 -0.8777  0.1755
   90SAPE    C2 8742   0.957   5.237   6.914 -0.8876  0.0934 -0.0806
   90SAPE    HS 8743   0.923   5.154   6.979  2.5727 -1.5542 -0.1482
   90SAPE   O21 8744   1.057   5.193   6.814  0.5007 -0.1340  0.1661
   90SAPE   C21 8745   1.052   5.081   6.766  0.8656  0.5926 -0.3669
   90SAPE   O22 8746   0.969   4.987   6.796 -0.1728 -0.1383 -0.0213
   90SAPE   C22 8747   1.157   5.071   6.650 -0.2008 -0.7942 -0.3005
   90SAPE   H2R 8748   1.130   5.143   6.570  0.0822  1.3319  1.4237
   90SAPE   H2S 8749   1.256   5.112   6.680 -2.0342  3.2494  0.9602
   90SAPE    C3 8750   0.823   5.290   6.854  0.8485  0.8667 -0.4616
   90SAPE    HX 8751   0.847   5.377   6.790 -0.7810  1.0234 -0.9118
   90SAPE    HY 8752   0.749   5.314   6.935  2.3962 -1.5022  1.8276
   90SAPE   O31 8753   0.763   5.196   6.761  0.2505  0.2606  0.0271
   90SAPE   C31 8754   0.690   5.102   6.816  0.4646  0.2914 -0.1626
   90SAPE   O32 8755   0.678   5.084   6.940 -0.1290 -0.4071 -0.0254
   90SAPE   C32 8756   0.628   5.003   6.709 -0.6817 -0.6112  0.2264
   90SAPE   H2X 8757   0.553   4.933   6.753 -1.0601 -1.5119 -1.7271
   90SAPE   H2Y 8758   0.716   4.945   6.672 -0.0591 -0.1481  0.9600
   90SAPE   C23 8759   1.177   4.936   6.590  0.4282  0.3397  0.0363
   90SAPE   H3R 8760   1.083   4.884   6.562 -1.1448  2.1607  1.6048
   90SAPE   H3S 8761   1.230   4.873   6.664  0.3578 -0.2930 -0.4474
   90SAPE   C24 8762   1.271   4.948   6.468 -0.5982  0.2083  0.0811
   90SAPE   H4R 8763   1.359   5.010   6.497 -1.2506  1.1503  0.0755
   90SAPE   H4S 8764   1.198   4.998   6.401 -0.9470 -1.5087 -0.8511
   90SAPE   C25 8765   1.305   4.809   6.408  0.3578 -0.6759  0.5787
   90SAPE   H5R 8766   1.311   4.732   6.486 -0.2063 -1.2514  0.0681
   90SAPE   C26 8767   1.336   4.771   6.281 -0.2969  0.7796  0.1224
   90SAPE   H6R 8768   1.368   4.667   6.263  2.3666  1.3038  1.3329
   90SAPE   C27 8769   1.330   4.859   6.158  0.0905  0.5819 -0.1282
   90SAPE   H7R 8770   1.234   4.856   6.104 -0.8525 -0.0852  1.5133
   90SAPE   H7S 8771   1.393   4.807   6.083 -1.0493 -1.1994  0.0929
   90SAPE   C28 8772   1.380   5.004   6.163  0.4387  0.4827  0.4128
   90SAPE   H8R 8773   1.304   5.070   6.207 -0.0947  1.4530 -1.8330
   90SAPE   C29 8774   1.501   5.054   6.133  0.7408  0.0772 -0.0595
   90SAPE   H9R 8775   1.508   5.163   6.147  0.2219  0.0811  0.2057
   90SAPE  C210 8776   1.614   4.990   6.063 -0.3413  0.3491  0.4537
   90SAPE  H10R 8777   1.621   5.028   5.959 -0.3563  0.1599  0.3828
   90SAPE  H10S 8778   1.599   4.880   6.065 -0.3001  0.2647  4.4568
   90SAPE  C211 8779   1.745   5.004   6.139  0.4387  0.1839 -0.1600
   90SAPE  H11R 8780   1.721   5.020   6.245  1.9511 -2.0273  0.5817
   90SAPE  C212 8781   1.875   5.003   6.094 -0.3020  0.1538  0.6312
   90SAPE  H12R 8782   1.961   5.012   6.161  1.1134  1.3366 -1.2472
   90SAPE  C213 8783   1.913   4.970   5.949  0.5871 -0.7390  0.0111
   90SAPE  H13R 8784   1.857   4.883   5.910  1.7044 -1.7327  0.5585
   90SAPE  H13S 8785   2.016   4.928   5.945  1.0817  0.3630  0.5406
   90SAPE  C214 8786   1.889   5.080   5.846  1.5066  0.8875  0.3351
   90SAPE  H14R 8787   1.827   5.163   5.884 -1.0353 -1.2109  1.0889
   90SAPE  C215 8788   1.958   5.086   5.732  0.0335  0.6931  0.5658
   90SAPE  H15R 8789   1.922   5.154   5.653 -1.2568 -2.3380 -1.6269
   90SAPE  C216 8790   2.039   4.968   5.685 -0.0798  0.2718 -0.5351
   90SAPE  H16R 8791   1.973   4.882   5.664 -2.8958  2.0990  0.2454
   90SAPE  H16S 8792   2.114   4.935   5.760  0.0854 -0.9892 -1.2306
   90SAPE  C217 8793   2.130   4.999   5.564 -0.5387  0.3036 -0.3290
   90SAPE  H17R 8794   2.071   5.063   5.495  0.4775 -0.3690 -1.8745
   90SAPE  H17S 8795   2.149   4.909   5.502  1.5417 -0.4706  1.2751
   90SAPE  C218 8796   2.258   5.080   5.595  0.2698  0.6908  0.2588
   90SAPE  H18R 8797   2.335   5.017   5.645 -0.1694  0.3696  0.5303
   90SAPE  H18S 8798   2.225   5.153   5.671 -0.6880 -0.4892  1.0083
   90SAPE  C219 8799   2.314   5.151   5.475  0.3245  0.5265 -0.1350
   90SAPE  H19R 8800   2.326   5.075   5.395  1.5739  0.6406 -0.0811
   90SAPE  H19S 8801   2.408   5.195   5.516 -0.1941  3.9750 -2.2353
   90SAPE  C220 8802   2.229   5.263   5.415 -0.0418 -0.0038 -0.1148
   90SAPE  H20R 8803   2.219   5.347   5.487 -3.0333  0.1089 -0.5164
   90SAPE  H20S 8804   2.125   5.237   5.386 -0.3207  0.8257  0.1134
   90SAPE  H20T 8805   2.266   5.303   5.318  2.3820  2.5629  1.7172
   90SAPE   C33 8806   0.561   5.083   6.592  0.1322  0.0176 -0.5317
   90SAPE   H3X 8807   0.562   5.193   6.606  0.2907  0.0525 -0.7939
   90SAPE   H3Y 8808   0.451   5.062   6.591 -0.3072  2.0903 -0.9681
   90SAPE   C34 8809   0.606   5.066   6.447  0.7496 -0.2840  0.0613
   90SAPE   H4X 8810   0.569   4.965   6.418 -0.8895  0.8477 -2.1759
   90SAPE   H4Y 8811   0.717   5.065   6.444  0.8290  2.2852 -0.9245
   90SAPE   C35 8812   0.539   5.180   6.360 -0.0066 -0.2305 -0.0141
   90SAPE   H5X 8813   0.568   5.282   6.391  0.5185 -0.4189  0.1167
   90SAPE   H5Y 8814   0.429   5.183   6.377  0.2656  0.4234  1.7472
   90SAPE   C36 8815   0.573   5.162   6.213  0.5121 -0.0953 -0.9870
   90SAPE   H6X 8816   0.668   5.106   6.210 -0.8190 -2.6345  0.5342
   90SAPE   H6Y 8817   0.581   5.263   6.168  2.2178 -0.0116 -0.5607
   90SAPE   C37 8818   0.466   5.087   6.146  0.2417  1.0018  0.4920
   90SAPE   H7X 8819   0.373   5.145   6.127  0.4328  0.8232 -1.1167
   90SAPE   H7Y 8820   0.434   5.000   6.208 -0.4383  0.7686 -0.1716
   90SAPE   C38 8821   0.504   5.045   5.999 -0.4674 -0.2120 -0.4748
   90SAPE   H8X 8822   0.433   4.964   5.976 -2.4322  1.6272 -1.1699
   90SAPE   H8Y 8823   0.604   4.997   5.995  0.6911  1.9937  0.0505
   90SAPE   C39 8824   0.530   5.148   5.891 -0.0509 -0.4082  0.1129
   90SAPE   H9X 8825   0.598   5.229   5.926 -2.3779  1.8386 -0.1878
   90SAPE   H9Y 8826   0.434   5.199   5.869  0.1619  0.5597  1.3380
   90SAPE  C310 8827   0.580   5.093   5.753  0.0821 -0.1507  0.4437
   90SAPE  H10X 8828   0.500   5.050   5.690 -1.0221  2.3470  0.0092
   90SAPE  H10Y 8829   0.654   5.015   5.781 -0.7260  0.0950  3.5921
   90SAPE  C311 8830   0.653   5.210   5.676 -0.3473 -0.4344  0.5163
   90SAPE  H11X 8831   0.723   5.254   5.750  2.4581 -3.4921 -0.1124
   90SAPE  H11Y 8832   0.584   5.291   5.642  2.1498  1.6990  0.1918
   90SAPE  C312 8833   0.743   5.157   5.565 -0.0601  0.0482 -0.1619
   90SAPE  H12X 8834   0.716   5.052   5.541 -0.4732  0.0455  0.2938
   90SAPE  H12Y 8835   0.847   5.146   5.602  0.2029 -1.6790 -1.2934
   90SAPE  C313 8836   0.737   5.227   5.433  0.2227 -0.5955 -0.3907
   90SAPE  H13X 8837   0.794   5.322   5.440 -0.0673 -0.3912 -0.7756
   90SAPE  H13Y 8838   0.629   5.251   5.428 -0.0521 -0.9288  2.4611
   90SAPE  C314 8839   0.776   5.150   5.302  0.6415 -0.0959 -0.3975
   90SAPE  H14X 8840   0.713   5.059   5.316 -0.4228  0.8384  1.3452
   90SAPE  H14Y 8841   0.881   5.116   5.311  0.0991 -1.8959 -0.5055
   90SAPE  C315 8842   0.734   5.215   5.169  0.2315 -0.8803 -0.1149
   90SAPE  H15X 8843   0.809   5.294   5.151 -1.1754  0.6427  0.4718
   90SAPE  H15Y 8844   0.632   5.257   5.177  0.0595 -1.1408 -0.8898
   90SAPE  C316 8845   0.737   5.110   5.058 -0.4439  0.7249  0.0689
   90SAPE  H16X 8846   0.657   5.033   5.057 -1.1094  1.4061 -0.2732
   90SAPE  H16Y 8847   0.831   5.057   5.082 -1.9048 -0.9228  2.5729
   90SAPE  C317 8848   0.750   5.158   4.912  0.9637  0.3589  0.5631
   90SAPE  H17X 8849   0.848   5.211   4.922  0.4116  1.0979  2.3325
   90SAPE  H17Y 8850   0.676   5.232   4.876  1.6496  0.6983 -0.2107
   90SAPE  C318 8851   0.779   5.056   4.803  0.2284 -0.0615 -0.5669
   90SAPE  H18X 8852   0.859   4.989   4.840  0.5983  1.9673  2.6970
   90SAPE  H18Y 8853   0.817   5.111   4.715  0.2039  1.9671  0.6246
   90SAPE  H18Z 8854   0.688   4.997   4.778  0.2434  0.0495 -0.8783
   91SAPE     N 8855   6.345   2.161   7.205 -0.1340 -1.0073 -0.0591
   91SAPE   HN1 8856   6.417   2.091   7.232  1.5462 -0.5178 -2.8910
   91SAPE   HN2 8857   6.318   2.137   7.108 -0.8834 -0.9972  0.1355
   91SAPE   HN3 8858   6.384   2.257   7.202 -0.6541 -0.8164 -1.0367
   91SAPE   C12 8859   6.220   2.154   7.294  0.5462  0.0133 -0.0005
   91SAPE  H12A 8860   6.249   2.214   7.382  0.4520 -0.1725  0.1582
   91SAPE  H12B 8861   6.199   2.051   7.330 -1.5923  0.3072 -0.2759
   91SAPE   C11 8862   6.095   2.215   7.225  0.6401 -0.1691 -0.1938
   91SAPE  H11A 8863   6.103   2.320   7.189 -1.4552  0.5236  1.1842
   91SAPE  H11B 8864   6.008   2.217   7.294  0.4486  0.7240 -0.4514
   91SAPE     P 8865   5.978   1.997   7.109  0.4197 -0.7100 -0.1828
   91SAPE   O13 8866   5.966   1.950   7.251 -0.3519  0.2621  0.1989
   91SAPE   O14 8867   5.845   2.007   7.036 -0.2733 -0.3001  0.5076
   91SAPE   O12 8868   6.052   2.136   7.115 -0.2748  0.2268  0.0048
   91SAPE   O11 8869   6.062   1.885   7.036  0.1291  0.2885  0.7866
   91SAPE    C1 8870   6.154   1.909   6.939 -0.0280  0.1062  0.6533
   91SAPE    HA 8871   6.240   1.955   6.992 -1.4427  1.1827  2.1451
   91SAPE    HB 8872   6.186   1.812   6.896 -1.6615 -0.5527  0.8556
   91SAPE    C2 8873   6.096   1.985   6.811  0.1715 -0.1799 -0.1095
   91SAPE    HS 8874   6.053   2.082   6.844 -1.7730  0.3528 -3.7197
   91SAPE   O21 8875   5.987   1.906   6.753  0.4339 -0.2532 -0.0381
   91SAPE   C21 8876   5.866   1.963   6.721  0.6574  0.9124  0.8622
   91SAPE   O22 8877   5.833   2.078   6.738 -0.4431 -0.0585  0.5066
   91SAPE   C22 8878   5.768   1.858   6.673 -0.0594 -0.3477 -0.0001
   91SAPE   H2R 8879   5.814   1.757   6.681  0.9725  0.0717 -0.4008
   91SAPE   H2S 8880   5.682   1.862   6.743 -0.9878 -0.8196 -1.0930
   91SAPE    C3 8881   6.206   2.001   6.706 -0.4868 -0.4539  0.2844
   91SAPE    HX 8882   6.221   1.900   6.661  0.2880  1.3479 -4.0136
   91SAPE    HY 8883   6.304   2.042   6.740 -1.0066  0.0860  1.1574
   91SAPE   O31 8884   6.164   2.075   6.588  0.3905  0.4448  0.4671
   91SAPE   C31 8885   6.146   2.203   6.605  0.2774  0.4020  0.4424
   91SAPE   O32 8886   6.198   2.267   6.693 -0.1215  0.8307  0.5799
   91SAPE   C32 8887   6.063   2.249   6.490 -0.3642  0.3734  0.0524
   91SAPE   H2X 8888   6.047   2.358   6.500  1.3500  0.6725 -0.0970
   91SAPE   H2Y 8889   5.967   2.195   6.506  0.9543 -2.2087 -0.1246
   91SAPE   C23 8890   5.720   1.876   6.528  0.3530 -0.1908  0.2439
   91SAPE   H3R 8891   5.809   1.885   6.461 -1.3406 -1.2646 -2.2799
   91SAPE   H3S 8892   5.650   1.962   6.528  1.0450  0.4645  2.9721
   91SAPE   C24 8893   5.636   1.757   6.468 -0.5338  0.1470  0.4608
   91SAPE   H4R 8894   5.617   1.793   6.365  0.1042  1.2944  0.7268
   91SAPE   H4S 8895   5.543   1.737   6.525  0.7869 -3.4819  1.6247
   91SAPE   C25 8896   5.705   1.625   6.455  0.6169 -0.6206 -0.3274
   91SAPE   H5R 8897   5.778   1.614   6.536 -0.1378  0.9281  0.6076
   91SAPE   C26 8898   5.680   1.522   6.377 -0.8882 -0.3938 -0.1122
   91SAPE   H6R 8899   5.746   1.437   6.402  0.3386  0.2429 -1.0673
   91SAPE   C27 8900   5.571   1.506   6.274  0.5763 -0.1795 -0.2627
   91SAPE   H7R 8901   5.624   1.489   6.177  1.1565 -0.7024  0.1398
   91SAPE   H7S 8902   5.528   1.606   6.255 -0.6609 -0.4888  0.7770
   91SAPE   C28 8903   5.474   1.400   6.324 -0.1138  0.1021 -0.8305
   91SAPE   H8R 8904   5.407   1.442   6.400  0.0728  1.9417 -1.6246
   91SAPE   C29 8905   5.479   1.267   6.295 -0.3481  0.1554 -0.2326
   91SAPE   H9R 8906   5.409   1.196   6.341 -0.6336 -1.3518 -2.7610
   91SAPE  C210 8907   5.583   1.201   6.212  0.1620  0.8378  0.8127
   91SAPE  H10R 8908   5.608   1.259   6.121 -1.0920 -0.1505 -0.2040
   91SAPE  H10S 8909   5.531   1.113   6.168 -1.8941  1.1311  2.4875
   91SAPE  C211 8910   5.709   1.167   6.290  0.1110 -0.3796 -0.6277
   91SAPE  H11R 8911   5.716   1.208   6.392  1.4004 -0.0648 -0.8193
   91SAPE  C212 8912   5.828   1.116   6.237 -0.1142 -0.3053  0.7552
   91SAPE  H12R 8913   5.914   1.076   6.294  0.6430 -2.5294 -1.7436
   91SAPE  C213 8914   5.832   1.064   6.094  0.3699  0.1001  0.3203
   91SAPE  H13R 8915   5.729   1.041   6.061 -0.2092  0.3547  1.8788
   91SAPE  H13S 8916   5.877   0.962   6.096  0.3597  0.1114  1.0279
   91SAPE  C214 8917   5.918   1.132   5.992 -0.6605 -0.3539 -0.1942
   91SAPE  H14R 8918   6.027   1.134   6.009 -0.0700 -1.5731 -3.1798
   91SAPE  C215 8919   5.885   1.186   5.876  1.1394 -0.2350  0.3634
   91SAPE  H15R 8920   5.962   1.231   5.811  0.7833 -1.0290 -0.6467
   91SAPE  C216 8921   5.738   1.192   5.819 -0.5562 -0.3398  0.1569
   91SAPE  H16R 8922   5.693   1.102   5.865 -0.3126 -0.9154 -0.6931
   91SAPE  H16S 8923   5.746   1.161   5.712 -0.5622 -0.2889  0.1416
   91SAPE  C217 8924   5.661   1.327   5.842  0.0188  0.8540  0.0733
   91SAPE  H17R 8925   5.660   1.348   5.952 -0.4953  2.8354 -0.2680
   91SAPE  H17S 8926   5.554   1.326   5.812  0.0164  3.4976 -0.2937
   91SAPE  C218 8927   5.726   1.445   5.772  0.1536  0.1773 -0.4531
   91SAPE  H18R 8928   5.741   1.432   5.663  0.9788 -0.3410 -0.2828
   91SAPE  H18S 8929   5.826   1.465   5.814 -0.8851  0.9980  1.7548
   91SAPE  C219 8930   5.627   1.567   5.788 -0.1952 -0.1874 -0.5847
   91SAPE  H19R 8931   5.529   1.542   5.742 -1.6081  1.3297  1.4305
   91SAPE  H19S 8932   5.658   1.656   5.729 -1.5484  0.2149 -0.7254
   91SAPE  C220 8933   5.601   1.597   5.935 -0.6770  0.4157  0.2012
   91SAPE  H20R 8934   5.519   1.532   5.971  0.7302 -1.4847  0.1910
   91SAPE  H20S 8935   5.564   1.701   5.944  0.0237  0.8961 -1.8866
   91SAPE  H20T 8936   5.688   1.584   6.003 -1.0848  3.3104  1.4136
   91SAPE   C33 8937   6.113   2.218   6.343 -0.4605  0.6514 -0.0531
   91SAPE   H3X 8938   6.051   2.147   6.284 -0.1210  1.6865 -1.7193
   91SAPE   H3Y 8939   6.217   2.180   6.351 -0.6425 -0.2772 -1.7098
   91SAPE   C34 8940   6.121   2.349   6.261  0.1285 -0.4690 -0.1917
   91SAPE   H4X 8941   6.200   2.408   6.311  0.4382 -0.9211 -0.1398
   91SAPE   H4Y 8942   6.024   2.401   6.277  0.5129 -0.1424  1.1503
   91SAPE   C35 8943   6.149   2.326   6.110  0.2477  0.0052  0.5850
   91SAPE   H5X 8944   6.070   2.259   6.071  0.2523  0.3983 -0.1355
   91SAPE   H5Y 8945   6.247   2.280   6.084  1.2311  1.4628  1.5343
   91SAPE   C36 8946   6.137   2.457   6.017 -0.1800  0.4940  0.5582
   91SAPE   H6X 8947   6.215   2.529   6.051  2.8544 -2.1048 -0.3891
   91SAPE   H6Y 8948   6.039   2.502   6.043 -0.5829  0.5194 -0.9178
   91SAPE   C37 8949   6.170   2.424   5.870  0.5783 -0.3518 -0.3330
   91SAPE   H7X 8950   6.115   2.328   5.854  0.2569 -0.2699  0.2401
   91SAPE   H7Y 8951   6.280   2.412   5.861  0.6323 -0.8506  0.8370
   91SAPE   C38 8952   6.116   2.531   5.766  0.3904  0.6472  0.5219
   91SAPE   H8X 8953   6.159   2.627   5.802 -1.0720  1.9993 -1.1796
   91SAPE   H8Y 8954   6.006   2.541   5.779  0.2369 -1.8887  1.8565
   91SAPE   C39 8955   6.141   2.506   5.618  0.7479  0.0809 -0.7661
   91SAPE   H9X 8956   6.101   2.600   5.574  1.3357  0.7890  0.1781
   91SAPE   H9Y 8957   6.082   2.425   5.570 -0.4700  1.5007 -1.7869
   91SAPE  C310 8958   6.291   2.495   5.569 -0.2904  0.0939 -0.6192
   91SAPE  H10X 8959   6.311   2.509   5.461  0.4131  0.4143 -0.4561
   91SAPE  H10Y 8960   6.333   2.393   5.586  2.4783  0.7959 -2.5577
   91SAPE  C311 8961   6.390   2.599   5.631 -0.8742  0.0384 -1.3204
   91SAPE  H11X 8962   6.485   2.554   5.595  0.1128  2.0542 -1.3495
   91SAPE  H11Y 8963   6.395   2.588   5.742  1.3807 -0.3697 -1.4295
   91SAPE  C312 8964   6.392   2.745   5.596 -0.4735  0.0650 -0.4334
   91SAPE  H12X 8965   6.297   2.789   5.633  0.3550  0.9334  0.7081
   91SAPE  H12Y 8966   6.381   2.756   5.486  0.2225  0.0869 -0.5031
   91SAPE  C313 8967   6.517   2.828   5.643  0.0804  0.0381 -0.1520
   91SAPE  H13X 8968   6.612   2.798   5.594 -0.7140 -1.1151 -1.0257
   91SAPE  H13Y 8969   6.535   2.807   5.751 -0.3941  0.1634 -0.0473
   91SAPE  C314 8970   6.488   2.977   5.633 -0.4937  0.0434 -0.0197
   91SAPE  H14X 8971   6.393   2.992   5.688 -0.4401  1.7742 -0.3268
   91SAPE  H14Y 8972   6.480   3.015   5.528 -0.8499 -1.4418 -0.5467
   91SAPE  C315 8973   6.605   3.058   5.697 -0.8011 -0.9730 -0.1784
   91SAPE  H15X 8974   6.588   3.163   5.666 -1.4478 -1.0658 -0.1505
   91SAPE  H15Y 8975   6.706   3.034   5.656 -0.0435  1.5238  0.0324
   91SAPE  C316 8976   6.606   3.064   5.853 -0.5212  0.3277 -0.0115
   91SAPE  H16X 8977   6.599   2.963   5.898  1.9903  0.9018  1.8560
   91SAPE  H16Y 8978   6.523   3.131   5.882  0.2682  1.8134 -1.0321
   91SAPE  C317 8979   6.725   3.137   5.913 -0.2793 -0.1281  0.0829
   91SAPE  H17X 8980   6.760   3.222   5.851  5.2874 -0.2998  2.3485
   91SAPE  H17Y 8981   6.812   3.068   5.911 -1.2480 -1.3856  0.5474
   91SAPE  C318 8982   6.694   3.184   6.053 -0.2904 -0.4634  0.5981
   91SAPE  H18X 8983   6.665   3.098   6.116  0.9968 -0.1848  1.6219
   91SAPE  H18Y 8984   6.619   3.266   6.047  1.5054  1.3029  0.9773
   91SAPE  H18Z 8985   6.793   3.212   6.095 -0.2980  1.0366 -0.2927
   92SAPE     N 8986   1.149   2.168   7.026  0.2835 -0.4164  0.0060
   92SAPE   HN1 8987   1.099   2.130   6.943 -0.1230 -3.5269  1.5307
   92SAPE   HN2 8988   1.234   2.221   6.999  1.1117 -1.9676 -0.5591
   92SAPE   HN3 8989   1.177   2.084   7.080 -0.6699  0.9401  2.8010
   92SAPE   C12 8990   1.047   2.251   7.094 -0.6329  0.3744 -0.3113
   92SAPE  H12A 8991   1.089   2.300   7.185 -1.4355  0.3091  0.1034
   92SAPE  H12B 8992   0.964   2.182   7.120  1.1665 -1.9247 -0.2679
   92SAPE   C11 8993   0.993   2.363   7.005  0.2021 -0.0810 -0.2388
   92SAPE  H11A 8994   0.924   2.426   7.065  0.1447 -1.2613  1.0028
   92SAPE  H11B 8995   0.917   2.322   6.936 -1.3275  2.3949 -0.1181
   92SAPE     P 8996   1.058   2.574   6.870 -0.6464 -0.0872  0.0084
   92SAPE   O13 8997   1.007   2.659   6.971  0.4379 -0.2310 -0.6705
   92SAPE   O14 8998   1.178   2.620   6.801 -0.1433 -0.6436  0.6398
   92SAPE   O12 8999   1.095   2.440   6.939 -0.4203 -0.6706 -0.0337
   92SAPE   O11 9000   0.954   2.518   6.760 -0.1734 -0.2446  0.3287
   92SAPE    C1 9001   0.839   2.602   6.736  0.7042  0.1181 -0.1897
   92SAPE    HA 9002   0.757   2.587   6.810  0.3863  2.7028  0.0801
   92SAPE    HB 9003   0.855   2.711   6.748 -4.3303  1.0615 -0.0786
   92SAPE    C2 9004   0.788   2.582   6.588 -0.2327 -0.0525 -0.7079
   92SAPE    HS 9005   0.782   2.471   6.583  3.1205 -0.2872 -1.9994
   92SAPE   O21 9006   0.883   2.613   6.481 -0.2639 -0.1058  0.2483
   92SAPE   C21 9007   0.921   2.735   6.475  0.3865 -0.3548 -0.0999
   92SAPE   O22 9008   0.885   2.829   6.541  0.3427  0.5381 -0.0789
   92SAPE   C22 9009   1.031   2.742   6.370 -0.5033  0.3770  0.3357
   92SAPE   H2R 9010   1.048   2.849   6.347  2.0427 -0.2600 -1.1896
   92SAPE   H2S 9011   1.128   2.697   6.400 -0.9750 -1.5542 -0.8664
   92SAPE    C3 9012   0.651   2.626   6.559 -0.3010  0.1518 -0.7387
   92SAPE    HX 9013   0.645   2.737   6.564  0.8020  0.2557 -1.3910
   92SAPE    HY 9014   0.591   2.594   6.647  2.0089 -1.5511  0.3048
   92SAPE   O31 9015   0.600   2.582   6.431 -0.3791 -0.1455 -0.3256
   92SAPE   C31 9016   0.470   2.586   6.422 -0.5835 -0.0754  0.2351
   92SAPE   O32 9017   0.391   2.646   6.495 -0.4717  0.4534  0.5572
   92SAPE   C32 9018   0.419   2.520   6.294  0.7784 -0.5141 -0.8794
   92SAPE   H2X 9019   0.320   2.564   6.273  0.4078  0.1923  1.9149
   92SAPE   H2Y 9020   0.397   2.415   6.322 -2.2933  0.6418  1.5971
   92SAPE   C23 9021   1.004   2.665   6.241  0.2769 -0.1383  0.6117
   92SAPE   H3R 9022   1.026   2.557   6.251 -0.4062 -0.4571 -1.0295
   92SAPE   H3S 9023   1.073   2.710   6.167 -0.7189 -1.0786 -0.9552
   92SAPE   C24 9024   0.862   2.693   6.186 -0.0140  0.1018 -0.4694
   92SAPE   H4R 9025   0.840   2.801   6.188 -0.9301 -0.0766 -0.5746
   92SAPE   H4S 9026   0.798   2.637   6.257  0.6430 -0.8706 -0.6148
   92SAPE   C25 9027   0.853   2.636   6.048 -0.0358 -0.3475 -0.1089
   92SAPE   H5R 9028   0.910   2.542   6.053  1.0587  0.2083 -1.4174
   92SAPE   C26 9029   0.804   2.694   5.937 -0.8998 -0.1974  0.2115
   92SAPE   H6R 9030   0.795   2.634   5.846 -1.0210 -1.4049  0.9918
   92SAPE   C27 9031   0.744   2.832   5.924  0.1329  0.4548 -0.0235
   92SAPE   H7R 9032   0.816   2.898   5.870  0.4451  0.3953  0.3121
   92SAPE   H7S 9033   0.719   2.876   6.023  1.8586 -2.3771  1.8112
   92SAPE   C28 9034   0.618   2.815   5.839 -0.2692  0.0695  0.7398
   92SAPE   H8R 9035   0.552   2.743   5.889  1.3597 -0.6860  1.9317
   92SAPE   C29 9036   0.582   2.868   5.725 -0.3129  0.0547 -0.2300
   92SAPE   H9R 9037   0.488   2.837   5.676  0.2884 -0.7851 -0.9034
   92SAPE  C210 9038   0.661   2.962   5.647 -0.3163 -0.4980 -0.3178
   92SAPE  H10R 9039   0.705   3.019   5.732  2.5011 -0.4367 -1.7289
   92SAPE  H10S 9040   0.601   3.027   5.579 -0.7644 -0.2735  0.2790
   92SAPE  C211 9041   0.772   2.903   5.565 -0.4936 -0.9997 -0.3437
   92SAPE  H11R 9042   0.851   2.861   5.629 -0.6188  2.6934  2.5920
   92SAPE  C212 9043   0.784   2.902   5.434 -0.5022 -0.4371  0.8598
   92SAPE  H12R 9044   0.863   2.844   5.385 -2.1547 -0.5578 -1.8456
   92SAPE  C213 9045   0.706   2.987   5.339  0.4146  0.2199  0.6490
   92SAPE  H13R 9046   0.767   3.010   5.249 -0.9920 -1.5439 -0.8508
   92SAPE  H13S 9047   0.681   3.085   5.384 -1.4813 -0.2388  0.6783
   92SAPE  C214 9048   0.576   2.926   5.294  0.3315  0.1197  0.0639
   92SAPE  H14R 9049   0.514   2.882   5.374  1.2250  1.4790  1.5592
   92SAPE  C215 9050   0.525   2.918   5.175 -0.1562 -0.6336  0.2080
   92SAPE  H15R 9051   0.434   2.858   5.163  0.1750 -1.7499  2.7178
   92SAPE  C216 9052   0.577   2.993   5.042  0.1328  0.5897  0.0543
   92SAPE  H16R 9053   0.516   2.959   4.956  1.4125 -3.5797  0.5821
   92SAPE  H16S 9054   0.684   2.963   5.039  0.5787  2.1965 -0.8287
   92SAPE  C217 9055   0.574   3.148   5.046 -1.3188 -0.0062 -0.8369
   92SAPE  H17R 9056   0.613   3.189   4.951  0.7512 -1.8940 -0.8942
   92SAPE  H17S 9057   0.639   3.178   5.131 -0.6642 -1.8455 -0.6233
   92SAPE  C218 9058   0.433   3.199   5.069  0.7513  0.2824 -0.2652
   92SAPE  H18R 9059   0.392   3.162   5.166 -0.1702  0.6972 -0.4883
   92SAPE  H18S 9060   0.363   3.160   4.992  1.1183 -0.6281 -0.1554
   92SAPE  C219 9061   0.429   3.349   5.065 -0.0867 -0.4293  0.5597
   92SAPE  H19R 9062   0.471   3.390   4.970 -1.3006 -1.5969 -0.5190
   92SAPE  H19S 9063   0.495   3.382   5.148 -1.4288  2.3907  0.6344
   92SAPE  C220 9064   0.304   3.431   5.102  0.2374 -0.2464  0.6432
   92SAPE  H20R 9065   0.275   3.393   5.202  0.1254  1.1747  1.1753
   92SAPE  H20S 9066   0.223   3.413   5.028 -0.5156 -4.9433  2.3211
   92SAPE  H20T 9067   0.328   3.539   5.113  1.2810 -0.3980  0.0372
   92SAPE   C33 9068   0.509   2.514   6.173  0.1294 -0.1008  0.1095
   92SAPE   H3X 9069   0.600   2.451   6.178 -0.9698 -1.9717 -1.8805
   92SAPE   H3Y 9070   0.547   2.617   6.153  1.6541  0.4695  4.7783
   92SAPE   C34 9071   0.430   2.481   6.051 -0.0204 -0.2183 -0.3547
   92SAPE   H4X 9072   0.358   2.560   6.020  0.9254  0.1125 -1.7732
   92SAPE   H4Y 9073   0.366   2.395   6.081  0.8361 -0.7704 -0.0798
   92SAPE   C35 9074   0.504   2.446   5.923 -0.0741  0.5637  0.1674
   92SAPE   H5X 9075   0.545   2.344   5.939  1.1206  1.1681  1.1267
   92SAPE   H5Y 9076   0.591   2.515   5.927 -1.7152  2.6659  1.7809
   92SAPE   C36 9077   0.416   2.463   5.800  0.6150  0.0387 -0.4742
   92SAPE   H6X 9078   0.347   2.547   5.825 -0.0361 -0.3531 -0.9249
   92SAPE   H6Y 9079   0.351   2.373   5.788  0.4920 -0.3388  2.2329
   92SAPE   C37 9080   0.493   2.499   5.674  0.9807 -0.2041 -0.4541
   92SAPE   H7X 9081   0.565   2.584   5.678  0.1162  0.5282  0.2852
   92SAPE   H7Y 9082   0.416   2.515   5.596 -0.5902 -2.2939  0.5594
   92SAPE   C38 9083   0.584   2.376   5.634  0.5103 -0.3449 -0.3520
   92SAPE   H8X 9084   0.540   2.274   5.643  1.6331 -1.3146 -4.1046
   92SAPE   H8Y 9085   0.654   2.384   5.720  0.0864 -0.2908 -0.0002
   92SAPE   C39 9086   0.667   2.389   5.507  0.4586  0.6784  0.2049
   92SAPE   H9X 9087   0.742   2.309   5.526 -1.7662 -1.0491  2.3497
   92SAPE   H9Y 9088   0.709   2.491   5.497 -2.7830  2.0562 -0.7494
   92SAPE  C310 9089   0.592   2.364   5.383 -0.8135 -0.0628  0.2757
   92SAPE  H10X 9090   0.525   2.449   5.358 -1.0706 -0.2199  0.4234
   92SAPE  H10Y 9091   0.533   2.270   5.389 -0.4678 -0.4093 -1.2804
   92SAPE  C311 9092   0.694   2.340   5.273 -0.8456  0.8401  0.1078
   92SAPE  H11X 9093   0.651   2.294   5.181  0.1583  0.4631 -0.1883
   92SAPE  H11Y 9094   0.775   2.279   5.319 -1.1779 -0.5206 -1.0079
   92SAPE  C312 9095   0.749   2.476   5.217 -1.0981  0.5280  0.1514
   92SAPE  H12X 9096   0.810   2.510   5.304 -0.5500 -1.5534  0.6617
   92SAPE  H12Y 9097   0.668   2.550   5.203 -0.2626  1.4770  0.2687
   92SAPE  C313 9098   0.821   2.457   5.089 -0.3716 -0.2613 -0.6144
   92SAPE  H13X 9099   0.743   2.431   5.014 -1.7789 -1.3582  1.1579
   92SAPE  H13Y 9100   0.895   2.375   5.094  1.4231  1.3266  0.0903
   92SAPE  C314 9101   0.910   2.575   5.047  0.3990 -0.0580  0.3367
   92SAPE  H14X 9102   0.997   2.598   5.112 -0.2065  2.5607  0.3219
   92SAPE  H14Y 9103   0.847   2.666   5.037  0.6066  0.1247  0.6853
   92SAPE  C315 9104   0.965   2.562   4.898 -0.2796  0.5507 -0.1248
   92SAPE  H15X 9105   1.052   2.495   4.881  0.5819  2.1281 -2.5366
   92SAPE  H15Y 9106   1.017   2.659   4.883  0.5486  0.1188 -0.1135
   92SAPE  C316 9107   0.857   2.531   4.791  0.1613  0.0796 -0.7823
   92SAPE  H16X 9108   0.763   2.588   4.808 -0.3102 -0.3357 -1.8799
   92SAPE  H16Y 9109   0.838   2.421   4.789 -1.5745  0.1873  2.3844
   92SAPE  C317 9110   0.906   2.553   4.649 -0.0636  0.1240  0.0655
   92SAPE  H17X 9111   0.988   2.479   4.637 -0.4149 -0.2246 -0.1953
   92SAPE  H17Y 9112   0.933   2.660   4.663 -1.5759  0.3524  1.4839
   92SAPE  C318 9113   0.795   2.530   4.554  0.5482  0.0158  0.3880
   92SAPE  H18X 9114   0.719   2.610   4.565 -0.2175 -0.5771 -0.4574
   92SAPE  H18Y 9115   0.749   2.430   4.569 -0.1308 -0.2122 -2.5654
   92SAPE  H18Z 9116   0.827   2.522   4.448  0.8737 -1.1699  0.5596
   93SAPE     N 9117   3.214   5.514   6.648 -0.4276 -0.5143  0.1280
   93SAPE   HN1 9118   3.183   5.585   6.717 -0.0405  1.3838 -1.5633
   93SAPE   HN2 9119   3.312   5.482   6.657 -0.3220  0.1877  1.9798
   93SAPE   HN3 9120   3.201   5.546   6.550 -1.9868 -0.2288  0.3941
   93SAPE   C12 9121   3.138   5.386   6.677  0.4153  0.0546  0.3579
   93SAPE  H12A 9122   3.184   5.339   6.766 -0.0694 -1.9446 -0.3917
   93SAPE  H12B 9123   3.145   5.316   6.591 -2.8524  2.7063 -2.3949
   93SAPE   C11 9124   2.988   5.414   6.699  0.0897  0.4252  0.1673
   93SAPE  H11A 9125   2.955   5.452   6.600  2.1829  0.0031 -0.7489
   93SAPE  H11B 9126   2.967   5.491   6.776 -1.5183  1.7555 -1.5045
   93SAPE     P 9127   2.761   5.268   6.738 -0.3428  0.3580  0.2892
   93SAPE   O13 9128   2.739   5.119   6.768  0.4176 -0.1333  0.3685
   93SAPE   O14 9129   2.687   5.362   6.823 -0.0743 -0.1179 -0.3028
   93SAPE   O12 9130   2.922   5.298   6.741  0.3876 -0.2279  0.1914
   93SAPE   O11 9131   2.727   5.293   6.579 -0.6009  0.0700 -0.7382
   93SAPE    C1 9132   2.774   5.193   6.492 -0.1813 -0.0074  0.4465
   93SAPE    HA 9133   2.881   5.217   6.472  0.1761 -1.3137  0.7099
   93SAPE    HB 9134   2.766   5.091   6.536  0.1205 -1.0859 -1.8423
   93SAPE    C2 9135   2.699   5.198   6.356  0.2366  0.6202 -0.0516
   93SAPE    HS 9136   2.714   5.101   6.303 -1.0333  0.2378  0.2522
   93SAPE   O21 9137   2.745   5.304   6.278  0.8644  0.3760 -0.6001
   93SAPE   C21 9138   2.841   5.282   6.188 -0.0400  0.3147  0.2245
   93SAPE   O22 9139   2.895   5.175   6.164  0.1501  0.6241 -0.6407
   93SAPE   C22 9140   2.867   5.407   6.115  0.0525 -0.0882 -0.4122
   93SAPE   H2R 9141   2.776   5.427   6.055  0.8909 -0.3397 -1.8096
   93SAPE   H2S 9142   2.892   5.491   6.184  1.3513 -0.1347 -0.7947
   93SAPE    C3 9143   2.545   5.207   6.379  0.2767 -1.0069 -0.1985
   93SAPE    HX 9144   2.523   5.310   6.412  3.5327  0.2648 -1.6662
   93SAPE    HY 9145   2.522   5.137   6.463 -1.9020  0.6070  0.6481
   93SAPE   O31 9146   2.476   5.165   6.259 -0.2853  0.1501  0.6144
   93SAPE   C31 9147   2.346   5.146   6.282 -0.0881 -0.9587  0.2157
   93SAPE   O32 9148   2.287   5.171   6.385 -0.2872 -0.1148  0.3667
   93SAPE   C32 9149   2.289   5.093   6.149  0.1642  0.2824 -0.2018
   93SAPE   H2X 9150   2.219   5.013   6.183  1.5589 -0.7253  0.4097
   93SAPE   H2Y 9151   2.377   5.051   6.095  0.3319 -0.3046  0.5193
   93SAPE   C23 9152   2.997   5.383   6.030 -0.4039  0.0999 -0.4149
   93SAPE   H3R 9153   2.972   5.300   5.961 -2.3987  0.6320 -0.4235
   93SAPE   H3S 9154   3.082   5.357   6.096  1.0324  3.6307 -0.6405
   93SAPE   C24 9155   3.030   5.498   5.940 -0.3685  0.1202 -0.0214
   93SAPE   H4R 9156   2.936   5.517   5.883 -0.4610  0.9781  0.4050
   93SAPE   H4S 9157   3.114   5.487   5.869  0.0839  0.0878  0.5116
   93SAPE   C25 9158   3.061   5.617   6.024 -0.2097  0.1763 -0.1096
   93SAPE   H5R 9159   3.109   5.596   6.121 -0.5720 -0.4439 -0.0611
   93SAPE   C26 9160   3.057   5.744   5.982 -0.6023 -0.0011 -0.5817
   93SAPE   H6R 9161   3.085   5.824   6.053 -0.1251  0.6429 -1.4778
   93SAPE   C27 9162   3.030   5.795   5.847  0.4468 -0.0552  0.3831
   93SAPE   H7R 9163   3.094   5.741   5.774 -0.2603  0.8128 -0.9221
   93SAPE   H7S 9164   3.074   5.897   5.840 -1.9390  1.2779  3.0274
   93SAPE   C28 9165   2.883   5.803   5.818  0.6792  0.3153 -0.4113
   93SAPE   H8R 9166   2.810   5.797   5.900  1.2090  0.5296  0.0870
   93SAPE   C29 9167   2.842   5.824   5.697  0.7617  0.2381 -0.1242
   93SAPE   H9R 9168   2.735   5.830   5.672  0.5558  1.9022  0.9831
   93SAPE  C210 9169   2.928   5.844   5.574 -0.1556  0.1017  0.0334
   93SAPE  H10R 9170   2.983   5.752   5.546 -1.7340 -0.9357  0.2255
   93SAPE  H10S 9171   2.997   5.930   5.585 -0.7288  0.6525 -0.6007
   93SAPE  C211 9172   2.851   5.881   5.452 -0.3645  0.2540 -0.4165
   93SAPE  H11R 9173   2.741   5.880   5.461 -0.5573 -1.4842 -2.2290
   93SAPE  C212 9174   2.904   5.925   5.333 -0.3989 -0.4575  0.8095
   93SAPE  H12R 9175   2.835   5.956   5.253 -0.1441 -0.9041  0.4096
   93SAPE  C213 9176   3.049   5.941   5.300 -0.9024 -0.2193 -0.4375
   93SAPE  H13R 9177   3.083   5.851   5.243  0.2336 -0.5592  0.7365
   93SAPE  H13S 9178   3.108   5.936   5.394 -0.5210  0.8402 -0.6138
   93SAPE  C214 9179   3.081   6.072   5.235  0.3088  0.7818  1.0514
   93SAPE  H14R 9180   3.027   6.159   5.275 -0.6209  0.6974  0.0346
   93SAPE  C215 9181   3.153   6.092   5.119  0.1287 -0.6859  0.0068
   93SAPE  H15R 9182   3.148   6.187   5.063  0.0232 -1.4496 -1.3447
   93SAPE  C216 9183   3.223   5.980   5.043 -0.2776  0.1739  0.2888
   93SAPE  H16R 9184   3.231   5.891   5.109 -0.6503 -1.1994 -1.4295
   93SAPE  H16S 9185   3.326   6.016   5.021 -0.2073  2.4004  3.6609
   93SAPE  C217 9186   3.184   5.944   4.903 -0.2080  0.0226 -0.1033
   93SAPE  H17R 9187   3.249   5.868   4.855 -2.1158 -0.7324 -1.5770
   93SAPE  H17S 9188   3.204   6.036   4.844  1.5660 -1.0479 -1.2613
   93SAPE  C218 9189   3.038   5.908   4.873  0.3911  0.4358  0.3300
   93SAPE  H18R 9190   3.021   5.911   4.763 -2.4149 -0.7799  0.6257
   93SAPE  H18S 9191   2.979   5.990   4.919  2.1662  1.2946  1.1598
   93SAPE  C219 9192   3.005   5.772   4.940  0.5246 -1.1018  1.0468
   93SAPE  H19R 9193   3.011   5.785   5.050 -0.2737  0.6209  0.9173
   93SAPE  H19S 9194   3.080   5.701   4.900  0.3964 -1.3621  1.2689
   93SAPE  C220 9195   2.865   5.732   4.891  0.0642  0.6893 -0.3957
   93SAPE  H20R 9196   2.786   5.809   4.900 -0.2691  0.0835  4.1896
   93SAPE  H20S 9197   2.826   5.650   4.956  0.2856  1.0442  0.1930
   93SAPE  H20T 9198   2.871   5.696   4.786 -3.1143 -0.0916 -0.4027
   93SAPE   C33 9199   2.211   5.189   6.068  0.1667  0.2358 -1.3551
   93SAPE   H3X 9200   2.145   5.248   6.135  1.4830  0.2146  0.0225
   93SAPE   H3Y 9201   2.135   5.132   6.010 -1.0241 -1.6286  1.8126
   93SAPE   C34 9202   2.294   5.272   5.972 -1.1055 -0.3822 -0.4874
   93SAPE   H4X 9203   2.232   5.341   5.910 -0.3535 -1.3058 -2.3215
   93SAPE   H4Y 9204   2.342   5.211   5.893  1.4642 -0.4822  1.0229
   93SAPE   C35 9205   2.409   5.360   6.029 -0.2890 -1.4336 -0.0923
   93SAPE   H5X 9206   2.503   5.305   6.050 -0.2260 -1.3725 -0.2167
   93SAPE   H5Y 9207   2.381   5.416   6.121  0.5979  1.6545 -1.5735
   93SAPE   C36 9208   2.453   5.471   5.936 -0.2969 -0.0317 -0.4660
   93SAPE   H6X 9209   2.514   5.547   5.989  0.7314 -1.6667  0.7780
   93SAPE   H6Y 9210   2.362   5.528   5.909 -0.9185 -0.5723  0.4190
   93SAPE   C37 9211   2.528   5.409   5.819  0.1640  0.0628  0.5564
   93SAPE   H7X 9212   2.470   5.340   5.754 -0.6074 -2.0011  3.2820
   93SAPE   H7Y 9213   2.606   5.347   5.869  1.6489  1.5764  0.2175
   93SAPE   C38 9214   2.591   5.506   5.719 -0.7912  0.7549  0.6464
   93SAPE   H8X 9215   2.692   5.471   5.691  0.2958  3.4252  0.9395
   93SAPE   H8Y 9216   2.617   5.598   5.775  0.6703 -0.1504  1.5306
   93SAPE   C39 9217   2.509   5.527   5.595  0.3389  0.6497 -0.4077
   93SAPE   H9X 9218   2.424   5.587   5.632  0.4608  0.7864 -0.3446
   93SAPE   H9Y 9219   2.474   5.427   5.564  1.5271  0.0423  0.1377
   93SAPE  C310 9220   2.582   5.598   5.485  0.2709  0.3170 -0.6438
   93SAPE  H10X 9221   2.646   5.524   5.434 -0.4049 -0.1769 -0.7984
   93SAPE  H10Y 9222   2.637   5.687   5.522  0.6376  0.8178 -2.3094
   93SAPE  C311 9223   2.497   5.656   5.376 -0.1799  0.7441  0.4367
   93SAPE  H11X 9224   2.419   5.720   5.421 -0.2911  1.1667 -0.3332
   93SAPE  H11Y 9225   2.457   5.574   5.312  0.4729 -0.1364  1.1183
   93SAPE  C312 9226   2.578   5.749   5.282  0.4552  0.2655  0.0429
   93SAPE  H12X 9227   2.676   5.705   5.253  0.4782  0.8196 -0.7613
   93SAPE  H12Y 9228   2.606   5.842   5.337 -1.1040  0.5577  0.3879
   93SAPE  C313 9229   2.503   5.777   5.154  0.2375  0.4118 -0.2705
   93SAPE  H13X 9230   2.400   5.812   5.178 -0.5763 -0.6757 -1.9378
   93SAPE  H13Y 9231   2.482   5.685   5.096 -0.5878  0.2909  0.1980
   93SAPE  C314 9232   2.580   5.883   5.080  0.2048  0.1708  0.5799
   93SAPE  H14X 9233   2.672   5.833   5.042  0.7214  2.6251 -1.7061
   93SAPE  H14Y 9234   2.624   5.950   5.157  1.3860  0.3076 -0.1881
   93SAPE  C315 9235   2.504   5.952   4.967  1.1579 -0.1909  0.5101
   93SAPE  H15X 9236   2.429   6.017   5.016 -0.8368 -0.0874 -2.3911
   93SAPE  H15Y 9237   2.438   5.880   4.915 -0.4946 -0.7721  3.2269
   93SAPE  C316 9238   2.584   6.035   4.867  0.6981 -0.3415 -0.1431
   93SAPE  H16X 9239   2.526   6.030   4.773  2.3474 -1.7328 -1.1536
   93SAPE  H16Y 9240   2.683   5.985   4.851  0.5528  0.0765 -2.7842
   93SAPE  C317 9241   2.615   6.184   4.902  1.3596  0.2562 -0.1253
   93SAPE  H17X 9242   2.518   6.233   4.924  2.5254  2.8420 -0.2918
   93SAPE  H17Y 9243   2.650   6.241   4.813 -1.1366  1.9341 -0.1390
   93SAPE  C318 9244   2.714   6.211   5.006  0.0355 -0.0753 -0.5503
   93SAPE  H18X 9245   2.711   6.140   5.092 -1.5214 -0.1218 -0.6140
   93SAPE  H18Y 9246   2.699   6.309   5.058 -2.4378 -0.6064 -0.1436
   93SAPE  H18Z 9247   2.814   6.216   4.959  1.0816 -0.1662  1.5285
   94SAPE     N 9248   3.683   1.022   7.073  0.2657  0.0510 -0.1918
   94SAPE   HN1 9249   3.602   1.064   7.023  0.7920  0.4666 -0.7150
   94SAPE   HN2 9250   3.740   1.104   7.104 -1.9210  1.9313 -0.8960
   94SAPE   HN3 9251   3.736   0.960   7.008  0.2751  0.9907 -1.1082
   94SAPE   C12 9252   3.638   0.941   7.188 -0.8526 -1.5246 -0.1126
   94SAPE  H12A 9253   3.618   1.012   7.270 -0.7218  0.2781 -1.5890
   94SAPE  H12B 9254   3.723   0.876   7.220  3.0063  2.8075 -0.5120
   94SAPE   C11 9255   3.499   0.870   7.153 -0.3224  0.3841  0.5138
   94SAPE  H11A 9256   3.438   0.845   7.243 -0.8745  3.2676  1.0483
   94SAPE  H11B 9257   3.527   0.774   7.105 -1.5277 -0.5276  1.5588
   94SAPE     P 9258   3.313   0.882   6.976 -0.2110 -0.0906 -0.2388
   94SAPE   O13 9259   3.244   0.782   7.062  0.0572  0.7301 -0.0321
   94SAPE   O14 9260   3.230   0.988   6.916 -0.2148 -1.1989  0.0898
   94SAPE   O12 9261   3.423   0.955   7.064 -0.5580 -0.2643 -0.4519
   94SAPE   O11 9262   3.398   0.809   6.866 -0.3299 -0.4426  0.3578
   94SAPE    C1 9263   3.500   0.874   6.788  0.5255 -1.1158 -0.6167
   94SAPE    HA 9264   3.511   0.981   6.815  0.0780 -0.4063 -3.0327
   94SAPE    HB 9265   3.601   0.827   6.789  1.2174 -0.2464 -5.6838
   94SAPE    C2 9266   3.464   0.885   6.643  0.2369  0.4984 -0.6629
   94SAPE    HS 9267   3.483   0.786   6.595  3.0569  0.9096 -0.5700
   94SAPE   O21 9268   3.534   0.984   6.564 -0.3958 -0.1888 -0.0709
   94SAPE   C21 9269   3.658   0.938   6.539  0.3406  0.4634  0.3060
   94SAPE   O22 9270   3.697   0.828   6.570 -1.2777  0.0307 -0.4390
   94SAPE   C22 9271   3.740   1.047   6.476 -0.2361  0.1278 -0.5179
   94SAPE   H2R 9272   3.692   1.147   6.485  0.8313  0.4687  1.9556
   94SAPE   H2S 9273   3.836   1.047   6.531 -0.7011  1.7859  0.3344
   94SAPE    C3 9274   3.315   0.920   6.621 -0.7208  0.0620 -0.0641
   94SAPE    HX 9275   3.288   1.019   6.663  1.3636 -0.1612  1.9841
   94SAPE    HY 9276   3.263   0.834   6.668 -1.6196  1.6080  1.8728
   94SAPE   O31 9277   3.274   0.915   6.484 -0.2136 -0.5943  0.1674
   94SAPE   C31 9278   3.147   0.913   6.447  1.0787  0.7667 -1.0598
   94SAPE   O32 9279   3.053   0.915   6.531 -0.9475 -0.0147 -0.2259
   94SAPE   C32 9280   3.138   0.890   6.295  0.0072 -0.0703  0.0233
   94SAPE   H2X 9281   3.113   0.785   6.267 -2.5959  0.3754  0.3707
   94SAPE   H2Y 9282   3.232   0.928   6.250  0.4757 -0.0276  1.0070
   94SAPE   C23 9283   3.776   1.005   6.330 -0.0722 -0.6313 -0.2294
   94SAPE   H3R 9284   3.813   0.902   6.316 -1.5195 -1.2928  0.5678
   94SAPE   H3S 9285   3.857   1.072   6.294 -0.0754 -0.3694  0.2480
   94SAPE   C24 9286   3.666   1.026   6.227  0.3547 -0.4185  0.4590
   94SAPE   H4R 9287   3.700   1.000   6.125 -2.4705 -1.5095 -0.2899
   94SAPE   H4S 9288   3.645   1.134   6.207  1.6616 -0.6913 -3.0799
   94SAPE   C25 9289   3.536   0.953   6.253 -0.6931 -0.5986 -0.6986
   94SAPE   H5R 9290   3.467   1.007   6.320  1.2613 -1.1271  1.8785
   94SAPE   C26 9291   3.494   0.845   6.182  0.4725  0.0914 -0.1810
   94SAPE   H6R 9292   3.414   0.784   6.225 -0.2912  1.0512 -0.1909
   94SAPE   C27 9293   3.566   0.773   6.079 -0.2530  0.7650  0.8725
   94SAPE   H7R 9294   3.585   0.667   6.105  0.6781  1.2265  2.1591
   94SAPE   H7S 9295   3.670   0.812   6.067  0.0375 -0.2574 -0.1278
   94SAPE   C28 9296   3.505   0.771   5.939 -0.0953 -0.7157 -0.0259
   94SAPE   H8R 9297   3.397   0.787   5.926  0.0811  0.9458  0.3527
   94SAPE   C29 9298   3.573   0.777   5.827 -0.8189  0.1806  0.6248
   94SAPE   H9R 9299   3.518   0.760   5.733  1.1965  1.9536 -0.9914
   94SAPE  C210 9300   3.724   0.775   5.798  0.1883  0.4354 -0.1886
   94SAPE  H10R 9301   3.739   0.698   5.718  2.3063  0.0230  0.5532
   94SAPE  H10S 9302   3.774   0.733   5.887 -1.5008  0.8942  1.0292
   94SAPE  C211 9303   3.780   0.910   5.759 -0.2103 -0.2974  0.3606
   94SAPE  H11R 9304   3.777   1.002   5.819  1.1229  1.0212 -1.4718
   94SAPE  C212 9305   3.848   0.936   5.646 -0.3395  0.3935 -0.4984
   94SAPE  H12R 9306   3.874   1.042   5.635  1.8349  0.3545  2.8670
   94SAPE  C213 9307   3.868   0.851   5.519  0.3676 -0.7701 -0.4821
   94SAPE  H13R 9308   3.895   0.743   5.525  1.7670 -0.5882 -2.5545
   94SAPE  H13S 9309   3.960   0.886   5.470  0.9618 -3.1572 -1.2154
   94SAPE  C214 9310   3.741   0.877   5.436 -0.1566  0.7397  0.1726
   94SAPE  H14R 9311   3.651   0.852   5.495 -0.0341 -3.8963 -1.2235
   94SAPE  C215 9312   3.728   0.934   5.316  0.4109 -0.4155  0.5275
   94SAPE  H15R 9313   3.631   0.925   5.266  1.1789 -3.4100 -0.6409
   94SAPE  C216 9314   3.829   0.981   5.216 -0.1865  0.0370 -0.4040
   94SAPE  H16R 9315   3.933   0.957   5.245  0.1213  1.9334  0.2548
   94SAPE  H16S 9316   3.829   1.092   5.206 -0.2350 -0.1454 -3.2642
   94SAPE  C217 9317   3.788   0.909   5.087 -0.2204 -0.6725  0.5234
   94SAPE  H17R 9318   3.844   0.954   5.003  0.8453 -1.5696  0.7312
   94SAPE  H17S 9319   3.686   0.932   5.050 -0.0010  0.2691  0.4806
   94SAPE  C218 9320   3.817   0.763   5.083 -0.6655 -0.1098  0.0450
   94SAPE  H18R 9321   3.756   0.704   5.155  0.3290 -0.6939  0.4301
   94SAPE  H18S 9322   3.924   0.745   5.103 -1.1765 -2.3713  1.0751
   94SAPE  C219 9323   3.814   0.704   4.940 -0.1902 -0.6574 -0.7068
   94SAPE  H19R 9324   3.837   0.596   4.948  1.5938 -0.2111  1.0739
   94SAPE  H19S 9325   3.892   0.753   4.878  0.7499 -2.7628 -1.2822
   94SAPE  C220 9326   3.681   0.718   4.870  0.3520 -0.4416  0.1445
   94SAPE  H20R 9327   3.677   0.666   4.772 -0.8340 -0.7381  0.3401
   94SAPE  H20S 9328   3.664   0.826   4.847 -2.9195 -0.8979  0.0027
   94SAPE  H20T 9329   3.598   0.679   4.932 -0.3122 -0.1657 -0.5609
   94SAPE   C33 9330   3.020   0.980   6.240 -0.2865 -0.0030 -0.0130
   94SAPE   H3X 9331   3.064   1.082   6.235  0.3305 -0.2148  0.8546
   94SAPE   H3Y 9332   2.935   0.981   6.311 -0.6843 -0.9581 -0.4468
   94SAPE   C34 9333   2.972   0.940   6.098 -0.1129 -0.4074 -0.4407
   94SAPE   H4X 9334   2.882   1.001   6.078  0.0710  2.1497  4.7719
   94SAPE   H4Y 9335   2.936   0.836   6.113 -0.0720 -0.3791 -0.1258
   94SAPE   C35 9336   3.081   0.948   5.987 -0.0459 -0.5552 -0.1235
   94SAPE   H5X 9337   3.173   0.904   6.031  0.0888  0.7346  0.9669
   94SAPE   H5Y 9338   3.092   1.052   5.947 -1.3670 -0.9984 -1.7679
   94SAPE   C36 9339   3.043   0.854   5.872 -0.4303  0.6160 -0.4944
   94SAPE   H6X 9340   2.944   0.893   5.840 -1.2550 -0.0345  1.1560
   94SAPE   H6Y 9341   3.047   0.748   5.905 -3.0677  0.4328 -0.5379
   94SAPE   C37 9342   3.141   0.871   5.751  0.2259 -0.0990  0.4279
   94SAPE   H7X 9343   3.245   0.844   5.776 -0.1957 -0.4322  1.9136
   94SAPE   H7Y 9344   3.149   0.979   5.729 -0.6671  0.1223  1.1415
   94SAPE   C38 9345   3.107   0.786   5.629 -0.1855 -0.1666  0.4480
   94SAPE   H8X 9346   3.002   0.803   5.597  0.4918  0.5589 -1.5166
   94SAPE   H8Y 9347   3.114   0.680   5.664  0.9372 -0.2277  0.0660
   94SAPE   C39 9348   3.197   0.798   5.505  0.2872 -0.3948 -0.5583
   94SAPE   H9X 9349   3.189   0.703   5.448  3.3386 -0.2849 -1.3817
   94SAPE   H9Y 9350   3.298   0.800   5.553  0.0153 -1.2115  0.0625
   94SAPE  C310 9351   3.194   0.916   5.410 -0.3541 -0.2757  0.1303
   94SAPE  H10X 9352   3.222   1.007   5.467  0.5435 -1.1845  1.2052
   94SAPE  H10Y 9353   3.087   0.923   5.383 -0.1253  1.2218 -0.4885
   94SAPE  C311 9354   3.271   0.902   5.279 -0.5609 -0.3870 -0.2470
   94SAPE  H11X 9355   3.223   0.818   5.225 -2.4372 -1.3859  2.7343
   94SAPE  H11Y 9356   3.381   0.890   5.284 -0.3937 -0.2554 -2.5830
   94SAPE  C312 9357   3.261   1.034   5.206 -0.1696 -0.4145  0.6786
   94SAPE  H12X 9358   3.283   1.122   5.270 -0.5401  0.3613 -0.2335
   94SAPE  H12Y 9359   3.158   1.032   5.165  1.1319 -3.0409 -3.0803
   94SAPE  C313 9360   3.363   1.031   5.088  0.2101 -0.1987 -0.6028
   94SAPE  H13X 9361   3.465   0.997   5.116 -0.1411 -2.5571 -1.9287
   94SAPE  H13Y 9362   3.367   1.138   5.060  0.3758  0.0425  0.3036
   94SAPE  C314 9363   3.323   0.954   4.960  0.0107  0.8722  0.2443
   94SAPE  H14X 9364   3.216   0.974   4.939 -0.2232 -0.4898  0.0321
   94SAPE  H14Y 9365   3.333   0.847   4.988 -1.0105  1.0844  1.5182
   94SAPE  C315 9366   3.410   0.995   4.841  0.0587 -0.1361 -0.3912
   94SAPE  H15X 9367   3.518   0.988   4.866  0.2775 -1.1117 -1.5164
   94SAPE  H15Y 9368   3.394   1.104   4.832  0.3374  0.0212  0.8406
   94SAPE  C316 9369   3.387   0.915   4.717  0.9226 -0.3493 -0.0145
   94SAPE  H16X 9370   3.353   0.815   4.752 -2.0520  0.5986  0.0548
   94SAPE  H16Y 9371   3.478   0.907   4.654  0.1903  1.2769 -1.3523
   94SAPE  C317 9372   3.277   0.972   4.626  0.8000 -0.3362  0.1005
   94SAPE  H17X 9373   3.322   1.067   4.592  0.6541  0.1319  1.1823
   94SAPE  H17Y 9374   3.184   0.994   4.684 -0.3082 -0.8898 -1.3959
   94SAPE  C318 9375   3.242   0.885   4.506 -0.1076  0.6694  0.3220
   94SAPE  H18X 9376   3.166   0.923   4.435  1.6787  1.1357 -1.4280
   94SAPE  H18Y 9377   3.202   0.790   4.547 -0.8030 -0.0994 -1.9837
   94SAPE  H18Z 9378   3.334   0.863   4.448  0.3447  0.7242  1.0160
   95SAPE     N 9379   0.103   2.012   6.924 -0.1935 -0.8633  0.0053
   95SAPE   HN1 9380   0.033   1.941   6.954  0.0333  0.4391  4.1640
   95SAPE   HN2 9381   0.187   2.006   6.984 -0.0192  3.4659  0.5011
   95SAPE   HN3 9382   0.065   2.109   6.925  0.1478 -0.6682 -2.0399
   95SAPE   C12 9383   0.126   1.983   6.782  0.1628  0.4747  0.1500
   95SAPE  H12A 9384   0.033   2.011   6.727  0.2319  1.8153  0.6661
   95SAPE  H12B 9385   0.160   1.877   6.780  1.5765  0.9238 -1.0165
   95SAPE   C11 9386   0.230   2.073   6.724  0.0836 -0.4070 -0.2222
   95SAPE  H11A 9387   0.254   2.035   6.622  0.7741 -1.5243  0.3423
   95SAPE  H11B 9388   0.326   2.070   6.780 -0.3484  2.6367  0.8742
   95SAPE     P 9389   0.292   2.328   6.698 -0.2473 -0.1361 -0.0160
   95SAPE   O13 9390   0.321   2.373   6.834 -0.2300  0.0748  0.1749
   95SAPE   O14 9391   0.414   2.303   6.614 -0.3560 -0.0935 -0.1962
   95SAPE   O12 9392   0.185   2.207   6.704  0.5203  0.5190 -0.1206
   95SAPE   O11 9393   0.196   2.436   6.629 -0.6142  0.0040 -0.8753
   95SAPE    C1 9394   0.136   2.425   6.499 -0.0308  0.5524  0.2195
   95SAPE    HA 9395   0.135   2.517   6.436  0.7025 -0.5797 -1.5050
   95SAPE    HB 9396   0.201   2.347   6.455  0.7942  0.6446  1.2404
   95SAPE    C2 9397  -0.010   2.380   6.511  0.2628  0.4385  0.2343
   95SAPE    HS 9398  -0.011   2.300   6.588 -1.4273 -1.5123 -1.6550
   95SAPE   O21 9399  -0.047   2.315   6.382 -0.8246  0.0183 -0.4112
   95SAPE   C21 9400  -0.158   2.238   6.389 -0.5951 -0.4828  0.0359
   95SAPE   O22 9401  -0.226   2.211   6.483 -0.0941 -0.0887 -0.0989
   95SAPE   C22 9402  -0.186   2.183   6.243  0.4046 -0.3801  0.0585
   95SAPE   H2R 9403  -0.116   2.223   6.166 -1.8760 -0.0824 -2.0067
   95SAPE   H2S 9404  -0.162   2.075   6.250  1.6376 -0.2437 -1.5684
   95SAPE    C3 9405  -0.102   2.494   6.560  0.0170  0.4888 -0.0993
   95SAPE    HX 9406  -0.053   2.538   6.649  0.8656 -1.9378  0.7346
   95SAPE    HY 9407  -0.199   2.453   6.595 -0.2442  1.2047  0.0178
   95SAPE   O31 9408  -0.124   2.595   6.455  0.6040 -0.2680  0.3302
   95SAPE   C31 9409  -0.049   2.703   6.454 -0.6969 -0.0406 -0.0346
   95SAPE   O32 9410   0.050   2.718   6.518  0.2797  0.1823 -0.2841
   95SAPE   C32 9411  -0.111   2.820   6.381 -0.3032 -0.2371  0.0432
   95SAPE   H2X 9412  -0.192   2.862   6.445 -1.6126  0.6603 -2.0799
   95SAPE   H2Y 9413  -0.169   2.786   6.292 -0.9944  0.7601  0.0968
   95SAPE   C23 9414  -0.331   2.200   6.194  0.8786 -0.0502  0.7777
   95SAPE   H3R 9415  -0.371   2.303   6.206 -1.9411 -1.1960  2.1089
   95SAPE   H3S 9416  -0.393   2.144   6.267 -0.5196 -0.9841 -1.0397
   95SAPE   C24 9417  -0.347   2.169   6.042 -0.2304 -0.0554 -0.4226
   95SAPE   H4R 9418  -0.269   2.230   5.993 -0.0181  0.3900  0.4566
   95SAPE   H4S 9419  -0.441   2.197   5.991  1.6849  2.2329 -2.9780
   95SAPE   C25 9420  -0.320   2.023   6.023  0.0325 -0.6113 -0.8435
   95SAPE   H5R 9421  -0.358   1.962   6.107  0.1339  1.2821  0.6251
   95SAPE   C26 9422  -0.279   1.965   5.913 -0.6599  0.3657 -0.5144
   95SAPE   H6R 9423  -0.271   1.856   5.924 -0.0443  0.6256  2.9736
   95SAPE   C27 9424  -0.239   2.027   5.787  0.5016 -0.1465  0.0958
   95SAPE   H7R 9425  -0.195   1.941   5.732 -0.4044 -0.9003  0.5244
   95SAPE   H7S 9426  -0.148   2.089   5.804  1.0820 -0.7573 -0.7358
   95SAPE   C28 9427  -0.346   2.094   5.704  0.7407 -0.3017 -0.1030
   95SAPE   H8R 9428  -0.432   2.133   5.760  0.0469 -1.1122 -0.5759
   95SAPE   C29 9429  -0.349   2.093   5.572 -0.8725  0.0900  0.1220
   95SAPE   H9R 9430  -0.437   2.137   5.522 -0.6363  0.5420  0.1066
   95SAPE  C210 9431  -0.230   2.051   5.483 -0.1705  0.8550 -0.2684
   95SAPE  H10R 9432  -0.267   1.968   5.419 -1.3821  0.0613  1.3955
   95SAPE  H10S 9433  -0.151   1.996   5.538 -1.8729 -1.2565  0.2008
   95SAPE  C211 9434  -0.169   2.154   5.396 -0.4152 -0.6244  0.2877
   95SAPE  H11R 9435  -0.060   2.166   5.406 -0.4811 -0.3087  0.6488
   95SAPE  C212 9436  -0.231   2.212   5.292 -0.1951 -0.0280 -0.6802
   95SAPE  H12R 9437  -0.169   2.283   5.235  0.0998  0.1507 -0.1371
   95SAPE  C213 9438  -0.376   2.200   5.253  0.9412 -0.3851 -0.6116
   95SAPE  H13R 9439  -0.440   2.253   5.327  1.3582 -1.1225  0.2985
   95SAPE  H13S 9440  -0.405   2.093   5.253 -3.4307  0.5583  1.2195
   95SAPE  C214 9441  -0.403   2.269   5.122  0.1475 -0.6517  0.8242
   95SAPE  H14R 9442  -0.342   2.358   5.101  0.5314 -1.2160 -0.5675
   95SAPE  C215 9443  -0.496   2.233   5.033 -0.4944 -0.3070 -0.2242
   95SAPE  H15R 9444  -0.503   2.302   4.947  3.4418  0.6114  0.0132
   95SAPE  C216 9445  -0.599   2.127   5.037 -0.4810  0.5232  0.0180
   95SAPE  H16R 9446  -0.679   2.146   5.112 -2.0134  1.2294 -1.7060
   95SAPE  H16S 9447  -0.563   2.023   5.051 -0.1540  0.0379 -3.3868
   95SAPE  C217 9448  -0.686   2.125   4.909  0.3481  0.5745  0.4259
   95SAPE  H17R 9449  -0.627   2.119   4.815 -2.0443 -1.5156 -1.1062
   95SAPE  H17S 9450  -0.747   2.218   4.910  0.2028  0.6359 -2.6566
   95SAPE  C218 9451  -0.780   2.004   4.916 -0.0092 -0.1188 -0.2372
   95SAPE  H18R 9452  -0.730   1.909   4.942  0.3610  0.0918 -0.1654
   95SAPE  H18S 9453  -0.828   1.977   4.820  0.1994 -0.7760 -0.1614
   95SAPE  C219 9454  -0.889   2.026   5.027  1.1869 -0.0803  0.7091
   95SAPE  H19R 9455  -0.844   2.027   5.129  1.6294 -0.2589  0.5182
   95SAPE  H19S 9456  -0.936   1.925   5.035 -0.4116  0.1793 -3.1120
   95SAPE  C220 9457  -1.003   2.134   5.019  0.0278  0.6013 -0.0693
   95SAPE  H20R 9458  -1.058   2.131   5.115  0.0624  1.9144  0.0046
   95SAPE  H20S 9459  -1.065   2.118   4.928 -0.3783  2.0789 -0.0656
   95SAPE  H20T 9460  -0.959   2.235   5.006 -2.3089  1.7712  0.5514
   95SAPE   C33 9461  -0.007   2.928   6.343 -0.5108  0.6109  0.3419
   95SAPE   H3X 9462   0.081   2.919   6.410 -1.5757 -2.9587  1.4811
   95SAPE   H3Y 9463  -0.056   3.024   6.368 -0.2601  0.3234  2.0786
   95SAPE   C34 9464   0.038   2.922   6.196  0.4747 -0.1268  0.2763
   95SAPE   H4X 9465   0.100   3.013   6.181  0.8603 -0.4801 -0.3140
   95SAPE   H4Y 9466  -0.060   2.935   6.144  0.2882  0.2111  0.7033
   95SAPE   C35 9467   0.111   2.802   6.157 -0.2260 -0.4422  0.6460
   95SAPE   H5X 9468   0.050   2.710   6.171 -0.1714 -0.4778  0.6504
   95SAPE   H5Y 9469   0.200   2.804   6.223 -0.8774  1.5318  1.5756
   95SAPE   C36 9470   0.135   2.807   6.001  0.3071 -0.7654  0.3248
   95SAPE   H6X 9471   0.041   2.794   5.944 -1.0692  0.5411  2.1790
   95SAPE   H6Y 9472   0.196   2.716   5.982 -3.0107 -2.9788 -0.5558
   95SAPE   C37 9473   0.216   2.943   5.966  0.5713  0.4148  0.1932
   95SAPE   H7X 9474   0.311   2.932   6.021  1.0486 -2.3064 -1.0503
   95SAPE   H7Y 9475   0.159   3.030   6.005 -2.3115 -2.1754  2.2529
   95SAPE   C38 9476   0.260   2.966   5.819 -0.6541  0.1940  0.7377
   95SAPE   H8X 9477   0.318   2.873   5.802 -0.6704  0.1671  0.8264
   95SAPE   H8Y 9478   0.319   3.060   5.815 -0.7967  0.4467  2.9335
   95SAPE   C39 9479   0.144   2.981   5.715 -0.0243 -0.0989  0.2837
   95SAPE   H9X 9480   0.087   3.069   5.752 -0.1850  0.9904 -2.3548
   95SAPE   H9Y 9481   0.073   2.895   5.720 -0.3957  0.2350  0.9597
   95SAPE  C310 9482   0.203   2.993   5.577  0.4650 -0.0967  0.6628
   95SAPE  H10X 9483   0.275   2.911   5.557  0.3208  0.0684 -0.5688
   95SAPE  H10Y 9484   0.256   3.090   5.567  0.7603  0.1338  3.4863
   95SAPE  C311 9485   0.103   2.958   5.466  0.3626 -0.2238  1.1622
   95SAPE  H11X 9486   0.021   3.031   5.478  0.0530 -0.5185  0.8498
   95SAPE  H11Y 9487   0.071   2.851   5.467 -1.1110 -0.0568 -3.6181
   95SAPE  C312 9488   0.172   2.985   5.333  0.7569 -0.2032 -0.1842
   95SAPE  H12X 9489   0.265   2.925   5.343 -0.1725 -1.7475 -0.4192
   95SAPE  H12Y 9490   0.191   3.094   5.323 -1.7918  0.1373 -2.3674
   95SAPE  C313 9491   0.087   2.920   5.223 -0.4212 -0.1116 -0.1317
   95SAPE  H13X 9492  -0.020   2.949   5.235  0.1228  1.0462  2.7644
   95SAPE  H13Y 9493   0.098   2.809   5.218  0.1426 -0.0118 -1.7003
   95SAPE  C314 9494   0.142   2.967   5.086 -0.0864 -0.6013 -0.7086
   95SAPE  H14X 9495   0.253   2.964   5.086 -0.0416  0.3786 -1.5208
   95SAPE  H14Y 9496   0.111   3.071   5.066 -1.2015 -1.3103 -3.0071
   95SAPE  C315 9497   0.076   2.893   4.971 -0.2508  0.0273  0.3248
   95SAPE  H15X 9498  -0.035   2.892   4.977 -0.2937  2.2160  1.0533
   95SAPE  H15Y 9499   0.098   2.785   4.972 -2.0832 -0.3884  0.2017
   95SAPE  C316 9500   0.104   2.957   4.831  0.1984  0.3097  0.5890
   95SAPE  H16X 9501   0.213   2.957   4.810  0.5716  0.5998  2.3431
   95SAPE  H16Y 9502   0.090   3.067   4.838  1.3940  0.4710  0.6994
   95SAPE  C317 9503   0.011   2.900   4.720  0.1177  0.4652 -0.0787
   95SAPE  H17X 9504  -0.002   2.972   4.637 -0.7773 -2.0656 -2.3162
   95SAPE  H17Y 9505  -0.091   2.890   4.763  0.1296 -0.4975 -0.2319
   95SAPE  C318 9506   0.054   2.768   4.656 -0.0694  0.3682 -0.2973
   95SAPE  H18X 9507   0.066   2.691   4.734 -1.0075 -0.1238 -0.6226
   95SAPE  H18Y 9508   0.147   2.785   4.597  0.8661 -0.3660  0.9179
   95SAPE  H18Z 9509  -0.030   2.731   4.594 -0.0432 -1.6494  0.8055
   96SAPE     N 9510   2.266   3.081   6.908  0.2331  0.4463  0.6845
   96SAPE   HN1 9511   2.168   3.076   6.943  0.5432 -1.4174  1.4491
   96SAPE   HN2 9512   2.276   3.161   6.843 -0.9971  0.1286  0.0700
   96SAPE   HN3 9513   2.295   2.997   6.854  0.4604  1.3628 -0.6466
   96SAPE   C12 9514   2.363   3.112   7.014  0.2857 -0.0083 -0.1218
   96SAPE  H12A 9515   2.354   3.024   7.082 -1.0459  0.4808  0.3661
   96SAPE  H12B 9516   2.324   3.202   7.066  2.7059  0.3555  1.2454
   96SAPE   C11 9517   2.504   3.137   6.979 -0.2102 -0.2786  0.2269
   96SAPE  H11A 9518   2.528   3.046   6.919 -0.6830 -1.0024  1.1123
   96SAPE  H11B 9519   2.574   3.141   7.066  0.7183 -1.7441 -0.4059
   96SAPE     P 9520   2.634   3.346   6.872 -0.0797 -0.2200 -0.3493
   96SAPE   O13 9521   2.584   3.476   6.820 -0.0469 -0.7820  0.0204
   96SAPE   O14 9522   2.699   3.360   7.002 -0.4776 -0.1930 -0.2509
   96SAPE   O12 9523   2.515   3.239   6.889 -0.1653 -0.5154  0.1926
   96SAPE   O11 9524   2.729   3.292   6.755  0.3774 -0.1893 -0.4254
   96SAPE    C1 9525   2.668   3.205   6.651 -0.4253  0.5344 -0.4273
   96SAPE    HA 9526   2.643   3.105   6.691  0.1540  0.9691  1.1356
   96SAPE    HB 9527   2.571   3.247   6.617 -0.6566 -0.4912 -1.0454
   96SAPE    C2 9528   2.761   3.204   6.523  0.2597 -0.0480 -0.3926
   96SAPE    HS 9529   2.713   3.144   6.444 -0.7806  2.8467 -2.1232
   96SAPE   O21 9530   2.895   3.151   6.543  0.5434 -0.7623 -0.0945
   96SAPE   C21 9531   2.906   3.017   6.573  0.2312  0.3847 -0.0716
   96SAPE   O22 9532   2.811   2.942   6.582 -0.9936  0.0314  0.1096
   96SAPE   C22 9533   3.049   2.967   6.586 -0.2654 -0.2373 -0.2118
   96SAPE   H2R 9534   3.101   2.992   6.492 -0.0892 -0.3296 -0.1389
   96SAPE   H2S 9535   3.093   3.022   6.671 -2.2812 -0.9401  1.3862
   96SAPE    C3 9536   2.783   3.352   6.471  0.7389  0.6403 -0.4414
   96SAPE    HX 9537   2.884   3.392   6.494  0.4280  0.9529  0.4435
   96SAPE    HY 9538   2.714   3.421   6.525  1.2774  0.4076  0.5702
   96SAPE   O31 9539   2.770   3.357   6.326  0.3332 -0.1513  0.3781
   96SAPE   C31 9540   2.651   3.385   6.277 -0.0270 -0.3337 -0.2201
   96SAPE   O32 9541   2.554   3.420   6.338 -0.2402  0.0464 -0.3839
   96SAPE   C32 9542   2.648   3.372   6.126 -0.5176  0.3992 -0.3770
   96SAPE   H2X 9543   2.701   3.277   6.102  0.0376  0.6388 -0.1187
   96SAPE   H2Y 9544   2.709   3.455   6.085  0.5494  0.2605  0.8634
   96SAPE   C23 9545   3.055   2.812   6.607 -0.4834  0.2497  0.5270
   96SAPE   H3R 9546   3.000   2.763   6.523  4.1858 -1.1391 -2.1337
   96SAPE   H3S 9547   3.016   2.783   6.707  0.5451  0.2592  0.9480
   96SAPE   C24 9548   3.198   2.773   6.621  0.7618 -0.2765  0.2836
   96SAPE   H4R 9549   3.241   2.837   6.701 -0.9730 -0.3865  1.3510
   96SAPE   H4S 9550   3.262   2.801   6.535  0.7553  0.8069  0.6170
   96SAPE   C25 9551   3.215   2.627   6.659  0.1495 -0.0851  0.0595
   96SAPE   H5R 9552   3.197   2.607   6.765  0.2248  0.5041  0.1852
   96SAPE   C26 9553   3.256   2.533   6.572  0.1680  0.0053  0.7673
   96SAPE   H6R 9554   3.263   2.429   6.608 -0.4240 -0.8418 -1.3780
   96SAPE   C27 9555   3.290   2.549   6.427  0.1849 -0.8246 -0.1034
   96SAPE   H7R 9556   3.362   2.471   6.393  0.0282 -0.6749 -0.7953
   96SAPE   H7S 9557   3.338   2.646   6.405  0.1924 -1.0163 -0.9521
   96SAPE   C28 9558   3.165   2.540   6.348 -0.0169 -0.2440  0.1297
   96SAPE   H8R 9559   3.091   2.467   6.386 -0.3630 -0.9587 -1.7787
   96SAPE   C29 9560   3.148   2.590   6.224  0.3979  0.4304 -0.2628
   96SAPE   H9R 9561   3.062   2.562   6.162 -1.3775  5.6816 -0.6693
   96SAPE  C210 9562   3.241   2.692   6.158 -0.0687  0.3064 -0.4681
   96SAPE  H10R 9563   3.227   2.690   6.048 -1.7068  3.4428 -0.4437
   96SAPE  H10S 9564   3.346   2.660   6.176  0.1972  1.6129  0.4768
   96SAPE  C211 9565   3.232   2.835   6.201  0.5280  0.0699 -0.4440
   96SAPE  H11R 9566   3.154   2.859   6.275  1.6915  2.0251  0.2349
   96SAPE  C212 9567   3.307   2.934   6.161 -0.7123  0.3890  1.1609
   96SAPE  H12R 9568   3.302   3.039   6.195  0.4083  0.2626  1.7531
   96SAPE  C213 9569   3.424   2.921   6.065  0.5536  0.1489  0.0927
   96SAPE  H13R 9570   3.381   2.939   5.964 -3.3906 -3.9455  0.7228
   96SAPE  H13S 9571   3.476   2.823   6.062  0.2714 -0.0818  1.8017
   96SAPE  C214 9572   3.521   3.037   6.079  0.6148  0.2545 -0.1956
   96SAPE  H14R 9573   3.586   3.022   6.167  0.3435 -1.1898 -0.2191
   96SAPE  C215 9574   3.520   3.158   6.015 -0.1360 -0.0220  0.3163
   96SAPE  H15R 9575   3.611   3.215   6.039  1.0621 -1.2964 -0.9886
   96SAPE  C216 9576   3.438   3.216   5.899  0.5406 -0.5873 -0.2257
   96SAPE  H16R 9577   3.411   3.323   5.907  1.2668 -0.4377  0.2660
   96SAPE  H16S 9578   3.351   3.151   5.874 -1.4078  2.4404 -1.8624
   96SAPE  C217 9579   3.521   3.222   5.773 -0.0433  0.3832 -0.0253
   96SAPE  H17R 9580   3.576   3.128   5.749  0.1841  0.5174 -0.0300
   96SAPE  H17S 9581   3.599   3.300   5.784 -0.0888  0.4438 -0.1280
   96SAPE  C218 9582   3.434   3.250   5.653 -0.6886 -0.0592  0.8049
   96SAPE  H18R 9583   3.388   3.349   5.673  0.0001  0.5478 -0.5145
   96SAPE  H18S 9584   3.347   3.181   5.643 -1.2603  0.8194 -0.4576
   96SAPE  C219 9585   3.519   3.246   5.519 -0.0921 -0.6477 -0.6510
   96SAPE  H19R 9586   3.581   3.154   5.526 -0.2185 -0.6630  0.4175
   96SAPE  H19S 9587   3.592   3.330   5.516  0.9776 -1.3185  2.4730
   96SAPE  C220 9588   3.446   3.235   5.386 -0.4897 -0.4561  0.0288
   96SAPE  H20R 9589   3.411   3.133   5.358  2.1954 -0.9510 -1.9355
   96SAPE  H20S 9590   3.507   3.275   5.303  0.7037  2.0510  1.9757
   96SAPE  H20T 9591   3.348   3.287   5.385 -1.7647 -2.7158 -1.0914
   96SAPE   C33 9592   2.504   3.371   6.070 -0.0699  0.1170 -0.5732
   96SAPE   H3X 9593   2.436   3.439   6.125 -0.9730 -0.7038 -0.6495
   96SAPE   H3Y 9594   2.444   3.279   6.086 -2.8736  1.8863 -0.3690
   96SAPE   C34 9595   2.502   3.401   5.926 -0.5958  0.2522  0.2743
   96SAPE   H4X 9596   2.566   3.486   5.893 -0.7312 -0.1975 -1.2514
   96SAPE   H4Y 9597   2.397   3.425   5.896 -0.7978 -1.3752 -0.3851
   96SAPE   C35 9598   2.551   3.274   5.849 -0.5654  0.0774  0.3604
   96SAPE   H5X 9599   2.489   3.185   5.874  0.5968 -0.5132  1.2643
   96SAPE   H5Y 9600   2.657   3.253   5.876 -0.4822  2.2169  1.9183
   96SAPE   C36 9601   2.554   3.305   5.695 -0.6311  0.2478 -0.4136
   96SAPE   H6X 9602   2.604   3.401   5.668 -1.5367  0.5032 -1.2519
   96SAPE   H6Y 9603   2.445   3.325   5.679 -0.9651 -0.1715  1.2257
   96SAPE   C37 9604   2.606   3.185   5.624 -0.8208 -0.6458 -0.1526
   96SAPE   H7X 9605   2.537   3.099   5.641 -0.9867 -0.3154  0.9367
   96SAPE   H7Y 9606   2.706   3.159   5.663 -1.3501 -1.2304  0.8567
   96SAPE   C38 9607   2.632   3.206   5.473  0.4010 -0.1144  0.0123
   96SAPE   H8X 9608   2.682   3.114   5.435 -3.4183 -1.2586 -2.9838
   96SAPE   H8Y 9609   2.696   3.291   5.441 -1.5111  0.7065 -1.9684
   96SAPE   C39 9610   2.497   3.220   5.392  0.0180  0.9525  0.4853
   96SAPE   H9X 9611   2.456   3.323   5.392 -0.5800  0.7194  0.3232
   96SAPE   H9Y 9612   2.430   3.139   5.429 -0.1534  0.5855 -0.5998
   96SAPE  C310 9613   2.522   3.170   5.243 -0.0449 -0.1436  0.0272
   96SAPE  H10X 9614   2.561   3.067   5.258  0.6797  0.1715  0.3378
   96SAPE  H10Y 9615   2.602   3.237   5.203 -0.1961 -0.3781 -0.6972
   96SAPE  C311 9616   2.399   3.164   5.159  0.3014 -0.0371  0.3275
   96SAPE  H11X 9617   2.346   3.261   5.157 -1.0804 -0.5234  4.5579
   96SAPE  H11Y 9618   2.328   3.093   5.206 -2.0690  0.6952 -1.8774
   96SAPE  C312 9619   2.434   3.115   5.018 -0.7879  0.6325  0.1016
   96SAPE  H12X 9620   2.479   3.015   5.034 -0.1965  1.1331  1.8078
   96SAPE  H12Y 9621   2.519   3.181   4.988 -0.6000  1.2121  1.8077
   96SAPE  C313 9622   2.320   3.106   4.920  0.0797 -0.5064 -0.7567
   96SAPE  H13X 9623   2.240   3.038   4.956  0.2120 -1.5067 -2.2568
   96SAPE  H13Y 9624   2.366   3.060   4.830  0.7052  0.2515 -0.8363
   96SAPE  C314 9625   2.244   3.238   4.876  1.1722 -0.5365  0.4878
   96SAPE  H14X 9626   2.210   3.295   4.965 -0.7572  2.8413 -2.1702
   96SAPE  H14Y 9627   2.152   3.198   4.828  0.7389 -1.6379  2.1627
   96SAPE  C315 9628   2.329   3.331   4.783 -0.3362  0.3013  0.5145
   96SAPE  H15X 9629   2.277   3.350   4.686  1.0202  0.5656 -0.1815
   96SAPE  H15Y 9630   2.425   3.280   4.759 -1.7407 -1.9878 -0.5904
   96SAPE  C316 9631   2.361   3.461   4.856  0.1858  0.3210 -0.2728
   96SAPE  H16X 9632   2.431   3.445   4.940 -0.6745  2.6087  0.9614
   96SAPE  H16Y 9633   2.271   3.504   4.905 -0.9701 -1.2359 -0.9499
   96SAPE  C317 9634   2.426   3.571   4.772  0.5189 -0.0794 -0.3555
   96SAPE  H17X 9635   2.416   3.676   4.807  0.6754 -0.3096  0.4044
   96SAPE  H17Y 9636   2.366   3.576   4.679 -2.9204 -4.3115  1.2349
   96SAPE  C318 9637   2.569   3.559   4.733 -1.0299 -0.3019 -0.3816
   96SAPE  H18X 9638   2.599   3.630   4.653 -2.8233  1.4943  0.4505
   96SAPE  H18Y 9639   2.592   3.458   4.694  3.2551  0.7088 -1.0074
   96SAPE  H18Z 9640   2.644   3.581   4.813  0.1975 -0.6784 -1.3914
   97SAPE     N 9641   2.962   3.497   6.978 -0.1442 -1.0297 -0.3324
   97SAPE   HN1 9642   3.037   3.490   7.050  1.1850 -3.0347 -1.8063
   97SAPE   HN2 9643   2.936   3.598   6.978  0.8240 -0.7697 -0.6859
   97SAPE   HN3 9644   2.879   3.441   7.007 -0.9129  0.4787  0.5228
   97SAPE   C12 9645   3.011   3.465   6.843  0.1101  0.5841  0.2673
   97SAPE  H12A 9646   3.093   3.537   6.824  0.1227  0.9794  1.6784
   97SAPE  H12B 9647   2.933   3.469   6.764  1.8524 -1.0054 -1.6212
   97SAPE   C11 9648   3.068   3.319   6.836  0.0651  0.2237  0.0574
   97SAPE  H11A 9649   3.107   3.292   6.736  1.0331  4.0733 -0.7373
   97SAPE  H11B 9650   2.977   3.260   6.860  0.4743 -0.1678  0.6863
   97SAPE     P 9651   3.228   3.169   6.962  0.1613  0.2897  0.0296
   97SAPE   O13 9652   3.326   3.166   7.072  0.3496 -0.3090 -0.0774
   97SAPE   O14 9653   3.116   3.076   6.973  0.2630 -0.9727 -0.0423
   97SAPE   O12 9654   3.171   3.312   6.936  0.8294 -0.1261  0.8329
   97SAPE   O11 9655   3.300   3.138   6.815  0.3846  0.0924  0.3121
   97SAPE    C1 9656   3.396   3.237   6.767 -0.0660 -0.5030  0.6712
   97SAPE    HA 9657   3.356   3.340   6.763  0.9343 -0.1329 -0.6413
   97SAPE    HB 9658   3.485   3.236   6.834 -0.2451 -2.0068  0.9258
   97SAPE    C2 9659   3.438   3.203   6.625 -0.1983  0.0162  0.5939
   97SAPE    HS 9660   3.525   3.264   6.594  1.1551 -2.1093  0.0147
   97SAPE   O21 9661   3.328   3.230   6.537  0.4438  0.3961  0.1209
   97SAPE   C21 9662   3.304   3.348   6.505  0.1182  0.5049  0.3880
   97SAPE   O22 9663   3.378   3.447   6.519  0.2361 -0.5895  0.2841
   97SAPE   C22 9664   3.163   3.362   6.450 -0.5161  0.3197 -0.4030
   97SAPE   H2R 9665   3.092   3.330   6.529 -1.0989  0.3934 -0.8929
   97SAPE   H2S 9666   3.127   3.465   6.427 -1.5606 -0.7347 -4.0945
   97SAPE    C3 9667   3.470   3.051   6.620 -0.3570  0.4052  0.1458
   97SAPE    HX 9668   3.373   2.998   6.627 -0.7278  1.1705  0.8913
   97SAPE    HY 9669   3.533   3.028   6.709  0.7526  0.2836 -0.6396
   97SAPE   O31 9670   3.533   3.003   6.493 -0.1747 -0.8106 -0.1646
   97SAPE   C31 9671   3.535   2.869   6.501  0.3349 -0.6008  0.4333
   97SAPE   O32 9672   3.512   2.810   6.605  0.3471  0.1406  0.6167
   97SAPE   C32 9673   3.587   2.817   6.373 -0.5093  0.3203  0.1048
   97SAPE   H2X 9674   3.641   2.904   6.329  0.6061  0.3786  1.5047
   97SAPE   H2Y 9675   3.502   2.787   6.310 -0.5054 -0.1089  0.2995
   97SAPE   C23 9676   3.136   3.281   6.325 -0.3869 -0.1786  0.0789
   97SAPE   H3R 9677   3.028   3.261   6.309 -0.1605 -0.1653 -1.7195
   97SAPE   H3S 9678   3.176   3.179   6.339  3.5101  1.3502  1.2864
   97SAPE   C24 9679   3.198   3.333   6.190 -0.8858 -0.0565 -0.2532
   97SAPE   H4R 9680   3.191   3.255   6.111  1.1662 -0.6840  0.1312
   97SAPE   H4S 9681   3.308   3.341   6.196 -0.6130 -1.2599 -2.5841
   97SAPE   C25 9682   3.140   3.461   6.139  0.3025  0.2886  0.3647
   97SAPE   H5R 9683   3.151   3.546   6.208  1.0813  1.2344 -0.8948
   97SAPE   C26 9684   3.079   3.473   6.019  0.5638  0.5478  0.1738
   97SAPE   H6R 9685   3.030   3.569   5.997 -0.9446  0.2547  2.0252
   97SAPE   C27 9686   3.072   3.367   5.912 -0.0662  0.8042  0.5910
   97SAPE   H7R 9687   3.061   3.263   5.949 -2.7752  0.1015 -1.7850
   97SAPE   H7S 9688   3.174   3.366   5.868  0.9660 -1.4787  2.7587
   97SAPE   C28 9689   2.957   3.386   5.808  0.0885  0.7943 -0.1831
   97SAPE   H8R 9690   2.887   3.301   5.806 -0.0064  0.8021  1.4462
   97SAPE   C29 9691   2.917   3.498   5.745 -0.0990 -0.4885 -0.1949
   97SAPE   H9R 9692   2.829   3.494   5.678 -1.4281  1.7973  1.2454
   97SAPE  C210 9693   2.991   3.634   5.739  0.0607 -0.0811 -0.8767
   97SAPE  H10R 9694   3.020   3.662   5.635  1.8272  0.3047 -0.3083
   97SAPE  H10S 9695   3.088   3.627   5.791 -0.6904 -0.3103  0.5453
   97SAPE  C211 9696   2.904   3.744   5.804 -0.1817  0.6170 -0.3391
   97SAPE  H11R 9697   2.865   3.731   5.906  0.0878  2.0361 -0.0350
   97SAPE  C212 9698   2.884   3.861   5.740 -0.2011  0.6121 -0.0131
   97SAPE  H12R 9699   2.838   3.944   5.796 -0.2932  0.5254  0.0396
   97SAPE  C213 9700   2.928   3.885   5.601  0.4568  0.9511  0.3452
   97SAPE  H13R 9701   2.886   3.815   5.525 -0.2125  0.9765  0.6841
   97SAPE  H13S 9702   3.036   3.866   5.582 -0.2234 -2.0472 -1.1252
   97SAPE  C214 9703   2.892   4.023   5.552  0.0377  0.1702  0.5341
   97SAPE  H14R 9704   2.790   4.037   5.512 -0.4902  0.7883  2.0124
   97SAPE  C215 9705   2.980   4.127   5.538  0.5158  0.0490  1.3868
   97SAPE  H15R 9706   2.948   4.222   5.493  0.7065 -1.4713 -2.3352
   97SAPE  C216 9707   3.124   4.125   5.574 -0.2277  0.7219  0.4826
   97SAPE  H16R 9708   3.140   4.054   5.658 -0.2122 -0.3368 -0.3994
   97SAPE  H16S 9709   3.158   4.223   5.615  2.2047  1.2448 -2.4273
   97SAPE  C217 9710   3.211   4.102   5.451 -0.1426  0.5747 -0.0482
   97SAPE  H17R 9711   3.154   4.027   5.392 -2.8758  0.6193  2.3035
   97SAPE  H17S 9712   3.305   4.048   5.476  1.0803  3.4884  2.2419
   97SAPE  C218 9713   3.245   4.225   5.372  0.4108 -0.6879 -0.0704
   97SAPE  H18R 9714   3.297   4.303   5.432 -3.4364  2.1246  0.0075
   97SAPE  H18S 9715   3.148   4.277   5.356  0.4982 -1.1727 -2.5049
   97SAPE  C219 9716   3.297   4.189   5.231 -0.3215 -0.0913  0.5019
   97SAPE  H19R 9717   3.217   4.157   5.161 -0.4728 -1.1855  1.1522
   97SAPE  H19S 9718   3.363   4.100   5.235 -4.0162 -3.0711  1.2169
   97SAPE  C220 9719   3.375   4.304   5.180 -0.1989  0.4590  0.2177
   97SAPE  H20R 9720   3.419   4.349   5.271  0.3551  1.9615 -0.7480
   97SAPE  H20S 9721   3.309   4.375   5.126  0.7191  1.6837  0.6455
   97SAPE  H20T 9722   3.443   4.260   5.103 -1.3614  0.3567 -0.7865
   97SAPE   C33 9723   3.698   2.713   6.402 -0.1369 -0.3554 -0.2556
   97SAPE   H3X 9724   3.672   2.639   6.480  1.2047 -1.4359 -0.7984
   97SAPE   H3Y 9725   3.795   2.764   6.424  0.5336 -1.3585 -0.8015
   97SAPE   C34 9726   3.717   2.645   6.264 -0.3123 -0.1549 -0.3566
   97SAPE   H4X 9727   3.619   2.609   6.225 -0.2670 -3.3599  2.0467
   97SAPE   H4Y 9728   3.767   2.551   6.293  0.0663 -0.4702 -1.9695
   97SAPE   C35 9729   3.799   2.720   6.159  0.3270 -0.6496 -0.4805
   97SAPE   H5X 9730   3.899   2.741   6.201 -0.9013  1.6869  1.5233
   97SAPE   H5Y 9731   3.747   2.813   6.127  1.2887  0.4317  0.9632
   97SAPE   C36 9732   3.812   2.633   6.033 -0.1881 -0.5935  0.2871
   97SAPE   H6X 9733   3.725   2.641   5.963 -0.2691 -0.0292  0.4445
   97SAPE   H6Y 9734   3.819   2.534   6.082  2.3506 -0.4970  0.2141
   97SAPE   C37 9735   3.948   2.658   5.968  0.0223  0.4160  0.3889
   97SAPE   H7X 9736   3.963   2.579   5.891  2.1051  0.6371  0.5170
   97SAPE   H7Y 9737   4.028   2.652   6.045 -0.0379  3.1845  0.7453
   97SAPE   C38 9738   3.965   2.798   5.894  0.4221  0.4602 -0.0566
   97SAPE   H8X 9739   4.055   2.773   5.834  1.5375  0.9296  1.3533
   97SAPE   H8Y 9740   3.989   2.882   5.963 -2.1481  0.2874  1.1513
   97SAPE   C39 9741   3.846   2.830   5.803  0.2578  0.4663  0.2322
   97SAPE   H9X 9742   3.771   2.875   5.871 -1.4796 -0.9835 -0.6387
   97SAPE   H9Y 9743   3.799   2.738   5.764  1.4138  0.8857 -2.3865
   97SAPE  C310 9744   3.875   2.909   5.675 -0.3891  0.6869 -0.3165
   97SAPE  H10X 9745   3.771   2.932   5.646 -1.0474  0.3626  1.6424
   97SAPE  H10Y 9746   3.915   2.846   5.592  2.0159  0.1061  1.1698
   97SAPE  C311 9747   3.956   3.038   5.698 -0.0048  0.2447 -0.0800
   97SAPE  H11X 9748   3.944   3.101   5.607  0.4639 -1.8513 -1.6790
   97SAPE  H11Y 9749   4.060   2.998   5.699  0.3691  1.1457  1.6730
   97SAPE  C312 9750   3.915   3.122   5.823 -0.3471  0.1786  0.4069
   97SAPE  H12X 9751   3.924   3.061   5.916  0.2654  0.2278  0.3866
   97SAPE  H12Y 9752   3.808   3.145   5.807 -0.5931 -0.9509  0.3587
   97SAPE  C313 9753   3.990   3.250   5.819  0.2730 -0.5370  0.1988
   97SAPE  H13X 9754   3.952   3.331   5.884 -1.7957 -0.3363 -1.1604
   97SAPE  H13Y 9755   3.966   3.297   5.721 -1.4517 -0.3412  0.6829
   97SAPE  C314 9756   4.139   3.230   5.842  0.1585 -0.1915  0.3513
   97SAPE  H14X 9757   4.189   3.326   5.864 -1.1999  0.0480  2.7802
   97SAPE  H14Y 9758   4.187   3.170   5.761 -0.3622 -0.2654  0.0913
   97SAPE  C315 9759   4.168   3.148   5.967 -0.6482  0.0897 -0.1208
   97SAPE  H15X 9760   4.178   3.039   5.946 -1.8343 -0.0331 -0.1457
   97SAPE  H15Y 9761   4.080   3.162   6.033  0.9546 -1.0819  2.4085
   97SAPE  C316 9762   4.297   3.184   6.039 -0.3368  0.4256  1.5548
   97SAPE  H16X 9763   4.301   3.134   6.138 -0.5804 -0.4582  1.1276
   97SAPE  H16Y 9764   4.300   3.294   6.058  0.3455  0.4550  1.2889
   97SAPE  C317 9765   4.430   3.132   5.968  0.0853 -0.0904  0.5039
   97SAPE  H17X 9766   4.444   3.188   5.873  0.4928 -2.6113 -1.0229
   97SAPE  H17Y 9767   4.412   3.024   5.947 -2.3114  0.4462 -0.5857
   97SAPE  C318 9768   4.557   3.150   6.063 -0.9304  0.6182 -0.0546
   97SAPE  H18X 9769   4.640   3.090   6.019 -0.0847  2.0995 -0.5890
   97SAPE  H18Y 9770   4.537   3.120   6.168 -0.3093 -1.6497 -0.5221
   97SAPE  H18Z 9771   4.580   3.259   6.057 -2.5757  0.9258 -1.4177
   98SAPE     N 9772   2.725   4.649   7.052 -0.8571 -0.1985 -0.3253
   98SAPE   HN1 9773   2.820   4.635   7.092 -1.3127  3.2410  2.4445
   98SAPE   HN2 9774   2.715   4.752   7.040 -0.3607 -0.0955  0.1075
   98SAPE   HN3 9775   2.650   4.617   7.116 -0.4205  0.4764  0.5407
   98SAPE   C12 9776   2.713   4.562   6.928  0.3749  0.0027 -0.2105
   98SAPE  H12A 9777   2.796   4.594   6.862  0.9780  1.2956  1.0952
   98SAPE  H12B 9778   2.615   4.589   6.883 -0.8512  0.7182  2.6576
   98SAPE   C11 9779   2.702   4.412   6.962 -0.5087  0.6911 -0.2407
   98SAPE  H11A 9780   2.787   4.388   7.030 -1.3781 -1.7258  0.0628
   98SAPE  H11B 9781   2.706   4.367   6.861  0.2661  0.6263 -0.1852
   98SAPE     P 9782   2.552   4.242   7.070 -0.1241  0.6806  0.3494
   98SAPE   O13 9783   2.677   4.191   7.134  0.6126  0.1792 -0.9403
   98SAPE   O14 9784   2.430   4.225   7.146  0.0359  0.8600  1.1401
   98SAPE   O12 9785   2.577   4.394   7.030  0.2213  0.0922  0.8950
   98SAPE   O11 9786   2.540   4.173   6.926 -0.1628  0.7435 -0.3121
   98SAPE    C1 9787   2.427   4.175   6.837  0.0719 -0.0259  0.0143
   98SAPE    HA 9788   2.336   4.139   6.889  0.8017  1.5201  2.5363
   98SAPE    HB 9789   2.402   4.282   6.819  0.3407 -0.2593 -1.9090
   98SAPE    C2 9790   2.459   4.101   6.707 -0.0467 -0.3247 -0.2334
   98SAPE    HS 9791   2.390   4.140   6.629  0.2607  1.5237  0.3561
   98SAPE   O21 9792   2.432   3.960   6.722 -0.7348  0.2563 -0.1707
   98SAPE   C21 9793   2.378   3.901   6.618 -0.0501 -0.4167  0.2123
   98SAPE   O22 9794   2.355   3.946   6.509 -0.1682  0.7347 -0.0073
   98SAPE   C22 9795   2.337   3.760   6.661  0.8371  0.0682 -0.0292
   98SAPE   H2R 9796   2.364   3.696   6.574 -0.6598 -0.8113  0.1300
   98SAPE   H2S 9797   2.390   3.731   6.755  1.3591 -1.7200 -0.8241
   98SAPE    C3 9798   2.606   4.122   6.673 -0.1174 -0.6349 -0.4528
   98SAPE    HX 9799   2.659   4.041   6.727 -2.1666 -1.2181  0.7993
   98SAPE    HY 9800   2.648   4.219   6.706 -1.5034  0.2934 -1.3092
   98SAPE   O31 9801   2.625   4.111   6.530 -0.8264  0.4103 -0.1842
   98SAPE   C31 9802   2.718   4.024   6.486  0.4299  0.8592 -0.3489
   98SAPE   O32 9803   2.795   3.956   6.555  0.2530  1.0725  0.2053
   98SAPE   C32 9804   2.684   4.010   6.343 -0.6051  0.1276 -0.0266
   98SAPE   H2X 9805   2.733   4.096   6.292  1.4047 -1.6204 -1.2086
   98SAPE   H2Y 9806   2.576   4.005   6.318 -0.7824 -1.0109  0.8885
   98SAPE   C23 9807   2.179   3.748   6.670 -0.3760 -0.0825  0.3378
   98SAPE   H3R 9808   2.142   3.820   6.746  1.3711 -0.1007  1.2528
   98SAPE   H3S 9809   2.161   3.646   6.711  1.3325  0.2547  2.0401
   98SAPE   C24 9810   2.109   3.763   6.532 -0.3051  0.3140 -0.1014
   98SAPE   H4R 9811   2.160   3.693   6.463  1.2076  0.3103  0.9744
   98SAPE   H4S 9812   2.116   3.866   6.491  1.3609  1.2199  2.2022
   98SAPE   C25 9813   1.964   3.722   6.551  0.1621 -0.2973 -0.2898
   98SAPE   H5R 9814   1.909   3.795   6.612 -2.0024 -0.8258 -1.4708
   98SAPE   C26 9815   1.900   3.611   6.520  0.0895  1.0070 -0.0391
   98SAPE   H6R 9816   1.797   3.593   6.554  0.6242 -0.2793  0.9831
   98SAPE   C27 9817   1.946   3.482   6.447  0.0723 -0.4398  0.2444
   98SAPE   H7R 9818   1.930   3.389   6.506  0.1239 -0.4721  0.2077
   98SAPE   H7S 9819   2.053   3.481   6.418  0.5432 -0.5744  1.8784
   98SAPE   C28 9820   1.859   3.484   6.333  0.3787  0.0502  0.7703
   98SAPE   H8R 9821   1.751   3.481   6.356  0.6113  0.6039  2.0061
   98SAPE   C29 9822   1.894   3.488   6.202 -0.3925  0.1832  0.3261
   98SAPE   H9R 9823   1.822   3.492   6.120  1.4948  0.0361 -1.4185
   98SAPE  C210 9824   2.035   3.502   6.153  0.6470 -0.3120  0.6504
   98SAPE  H10R 9825   2.047   3.444   6.060 -0.3096  0.0408  0.2956
   98SAPE  H10S 9826   2.102   3.443   6.219  0.8310 -0.9575 -0.1029
   98SAPE  C211 9827   2.091   3.644   6.139 -0.1266 -0.1437 -0.3209
   98SAPE  H11R 9828   2.131   3.684   6.233 -1.3135  0.1975  0.0572
   98SAPE  C212 9829   2.068   3.723   6.031 -0.7417 -0.2322 -0.1142
   98SAPE  H12R 9830   2.113   3.822   6.017 -2.2155  0.2286 -1.8658
   98SAPE  C213 9831   1.993   3.682   5.906  0.6660  0.2820 -0.2087
   98SAPE  H13R 9832   1.939   3.763   5.852  1.9968  0.5311 -1.2039
   98SAPE  H13S 9833   1.902   3.624   5.935  0.0404  1.2258 -0.2210
   98SAPE  C214 9834   2.069   3.599   5.802 -0.0724  0.1252 -0.0385
   98SAPE  H14R 9835   2.098   3.498   5.833 -1.2564 -0.0292  0.6085
   98SAPE  C215 9836   2.102   3.627   5.677  0.2650 -0.1139  0.2838
   98SAPE  H15R 9837   2.165   3.554   5.625  2.0081  1.5146 -0.0215
   98SAPE  C216 9838   2.056   3.746   5.597  0.0946  0.0432 -0.0942
   98SAPE  H16R 9839   2.096   3.838   5.645  2.8119 -0.7393 -0.7294
   98SAPE  H16S 9840   1.945   3.740   5.603  0.1596 -0.4263  0.8544
   98SAPE  C217 9841   2.089   3.738   5.450 -0.6136  0.0463 -0.0238
   98SAPE  H17R 9842   2.190   3.702   5.423 -0.3583 -0.0005  0.9488
   98SAPE  H17S 9843   2.088   3.843   5.413  1.8520 -0.6244 -2.2687
   98SAPE  C218 9844   1.987   3.662   5.368  0.1708  0.6674  0.3166
   98SAPE  H18R 9845   1.886   3.705   5.383 -1.1975 -1.8237 -1.1836
   98SAPE  H18S 9846   1.978   3.560   5.410 -1.6074  1.2069  1.3387
   98SAPE  C219 9847   2.026   3.660   5.223  1.0431 -0.4928 -0.8726
   98SAPE  H19R 9848   2.131   3.642   5.192  0.4480 -2.9146 -1.7008
   98SAPE  H19S 9849   1.998   3.764   5.195  0.1155 -0.3045  0.6375
   98SAPE  C220 9850   1.929   3.570   5.146 -0.0807 -0.3541  0.2304
   98SAPE  H20R 9851   1.821   3.594   5.164 -0.1589 -0.4316 -0.1376
   98SAPE  H20S 9852   1.931   3.463   5.175 -2.3422 -1.3492 -2.7285
   98SAPE  H20T 9853   1.939   3.574   5.036  1.4393  1.8036  0.3714
   98SAPE   C33 9854   2.749   3.884   6.283 -0.4321  0.3386 -0.0617
   98SAPE   H3X 9855   2.739   3.799   6.354  0.0130  2.1079  2.2257
   98SAPE   H3Y 9856   2.856   3.904   6.259  0.0017 -1.4495  0.1926
   98SAPE   C34 9857   2.685   3.851   6.141  0.9120  0.1625  0.0916
   98SAPE   H4X 9858   2.760   3.788   6.088  0.4085  0.4079 -0.9333
   98SAPE   H4Y 9859   2.674   3.940   6.077  2.6061 -0.3208 -0.9392
   98SAPE   C35 9860   2.549   3.784   6.153  0.1288  0.1063  0.2187
   98SAPE   H5X 9861   2.495   3.835   6.236  0.5199  1.1815 -0.1647
   98SAPE   H5Y 9862   2.567   3.680   6.185 -0.7871 -0.4370 -0.9475
   98SAPE   C36 9863   2.454   3.796   6.033  0.1701 -0.6528 -0.6187
   98SAPE   H6X 9864   2.411   3.896   6.016  2.3465  0.2497 -1.1351
   98SAPE   H6Y 9865   2.375   3.718   6.044  0.2010 -0.5631  0.3147
   98SAPE   C37 9866   2.538   3.759   5.904  0.0121  0.1968  0.0044
   98SAPE   H7X 9867   2.593   3.663   5.918 -0.4580 -0.5543 -2.6048
   98SAPE   H7Y 9868   2.619   3.832   5.888 -1.0893  1.6215  0.6758
   98SAPE   C38 9869   2.455   3.755   5.774  0.5983  0.1487  0.4398
   98SAPE   H8X 9870   2.404   3.853   5.769 -1.0497 -0.6243  1.3605
   98SAPE   H8Y 9871   2.364   3.692   5.785  0.9726 -0.0266  3.3916
   98SAPE   C39 9872   2.540   3.723   5.657 -0.6100 -0.6873  0.1084
   98SAPE   H9X 9873   2.594   3.626   5.672 -0.7319 -0.8761 -0.6451
   98SAPE   H9Y 9874   2.629   3.788   5.642 -1.0891 -0.4924 -2.2249
   98SAPE  C310 9875   2.454   3.722   5.532 -0.6402 -0.6513  0.9661
   98SAPE  H10X 9876   2.384   3.807   5.543 -1.2538 -0.9782 -0.2594
   98SAPE  H10Y 9877   2.386   3.636   5.522  0.7585 -1.6906 -0.1268
   98SAPE  C311 9878   2.542   3.732   5.403  0.1176  0.0547 -0.2360
   98SAPE  H11X 9879   2.601   3.827   5.405  2.3671 -1.2405  2.2587
   98SAPE  H11Y 9880   2.464   3.722   5.325  0.6651  0.4489 -0.8404
   98SAPE  C312 9881   2.646   3.617   5.398 -0.0882  1.0293  0.0969
   98SAPE  H12X 9882   2.580   3.529   5.411  1.3706 -0.3215 -1.1967
   98SAPE  H12Y 9883   2.712   3.636   5.486  0.3933 -0.6359  0.1175
   98SAPE  C313 9884   2.718   3.613   5.264  0.3972  0.0282  0.3170
   98SAPE  H13X 9885   2.642   3.595   5.184  1.4704  0.2680 -0.7846
   98SAPE  H13Y 9886   2.786   3.526   5.265  0.5289  0.1306  0.2024
   98SAPE  C314 9887   2.785   3.742   5.230  0.6122 -0.7251  0.2162
   98SAPE  H14X 9888   2.861   3.759   5.309 -0.8893  0.9044  1.3950
   98SAPE  H14Y 9889   2.725   3.835   5.243  1.3293  0.5098 -3.7868
   98SAPE  C315 9890   2.843   3.750   5.092 -0.2891 -0.1984 -0.5842
   98SAPE  H15X 9891   2.804   3.671   5.025  3.2194 -1.8015 -0.9495
   98SAPE  H15Y 9892   2.949   3.718   5.098 -0.1117  0.5461  0.7457
   98SAPE  C316 9893   2.824   3.892   5.032 -0.1586  0.0412 -0.3671
   98SAPE  H16X 9894   2.879   3.970   5.088 -2.3037  0.6953  0.9518
   98SAPE  H16Y 9895   2.718   3.912   5.006  0.2766  3.5169  0.0523
   98SAPE  C317 9896   2.894   3.896   4.891  0.3975  0.8132  0.2926
   98SAPE  H17X 9897   2.823   3.846   4.823  1.8546  1.3801 -1.7299
   98SAPE  H17Y 9898   2.995   3.849   4.887  0.2950  0.6385 -3.2731
   98SAPE  C318 9899   2.900   4.033   4.835 -0.6361 -0.0311  0.1574
   98SAPE  H18X 9900   2.803   4.087   4.842  0.9010  2.8380  1.3543
   98SAPE  H18Y 9901   2.937   4.018   4.731  1.5403 -0.0142  0.8660
   98SAPE  H18Z 9902   2.973   4.106   4.877  1.8310 -0.8668 -2.3650
   99SAPE     N 9903   3.574   2.244   6.626  0.4532  0.7487  0.1389
   99SAPE   HN1 9904   3.615   2.162   6.675 -1.3477 -0.7167 -0.6686
   99SAPE   HN2 9905   3.473   2.221   6.628  0.8436 -1.5197 -1.8566
   99SAPE   HN3 9906   3.598   2.242   6.525  0.1126 -0.8032  0.0671
   99SAPE   C12 9907   3.582   2.381   6.691 -0.2644 -0.0138 -0.0994
   99SAPE  H12A 9908   3.505   2.378   6.771 -1.6401 -0.4814 -1.4032
   99SAPE  H12B 9909   3.549   2.444   6.606  1.1180 -0.3224 -0.8919
   99SAPE   C11 9910   3.726   2.425   6.730 -0.2346  0.5971 -0.0523
   99SAPE  H11A 9911   3.716   2.534   6.750 -2.3056  0.2811  0.8844
   99SAPE  H11B 9912   3.796   2.405   6.646  1.1538  0.4579  1.1072
   99SAPE     P 9913   3.915   2.402   6.908  0.0468  0.3147 -0.1246
   99SAPE   O13 9914   3.890   2.425   7.053  0.4038 -0.0871  0.3794
   99SAPE   O14 9915   4.023   2.302   6.875  0.3146 -0.3146  0.3340
   99SAPE   O12 9916   3.767   2.358   6.849 -0.0505  0.3606 -0.2325
   99SAPE   O11 9917   3.946   2.539   6.835  0.5208 -0.1029 -0.7032
   99SAPE    C1 9918   4.064   2.556   6.753  0.1860  0.3059 -0.3603
   99SAPE    HA 9919   4.150   2.571   6.822 -0.9936 -2.8255  2.0183
   99SAPE    HB 9920   4.091   2.469   6.689 -1.2583  0.4102 -1.1509
   99SAPE    C2 9921   4.044   2.682   6.667 -0.0435 -0.3783 -0.5379
   99SAPE    HS 9922   3.939   2.661   6.638  0.2654 -0.1807 -1.8631
   99SAPE   O21 9923   4.129   2.682   6.547  0.1609 -0.3893 -0.0687
   99SAPE   C21 9924   4.092   2.601   6.449 -0.0536  0.5237 -0.7507
   99SAPE   O22 9925   3.992   2.533   6.459  0.7927  0.4017 -0.2446
   99SAPE   C22 9926   4.176   2.630   6.324  0.3241 -0.0011 -0.2044
   99SAPE   H2R 9927   4.243   2.543   6.309 -1.8700 -1.7256 -0.5210
   99SAPE   H2S 9928   4.104   2.635   6.240 -0.6065 -1.5650  0.4644
   99SAPE    C3 9929   4.061   2.816   6.744 -0.8275 -0.1951  0.5011
   99SAPE    HX 9930   4.163   2.856   6.726 -1.2417  0.1597 -1.2116
   99SAPE    HY 9931   4.055   2.792   6.852  3.1110  2.6120  1.5976
   99SAPE   O31 9932   3.951   2.906   6.703  0.4245 -0.2578 -0.4398
   99SAPE   C31 9933   3.980   2.973   6.594 -0.7927  0.0021 -0.2350
   99SAPE   O32 9934   4.086   2.992   6.537 -0.0326  0.2746 -0.3818
   99SAPE   C32 9935   3.857   3.047   6.539 -0.2560  0.2149  0.9195
   99SAPE   H2X 9936   3.828   3.118   6.620  3.7221  0.5526  2.2835
   99SAPE   H2Y 9937   3.789   2.959   6.541 -0.2894  0.2439  2.0518
   99SAPE   C23 9938   4.256   2.763   6.321 -0.3986 -0.2286 -1.1416
   99SAPE   H3R 9939   4.313   2.775   6.415 -1.3152  0.9626 -0.7185
   99SAPE   H3S 9940   4.179   2.843   6.326  0.4941  0.5810  0.0690
   99SAPE   C24 9941   4.346   2.772   6.195  0.2213 -0.1225 -0.0977
   99SAPE   H4R 9942   4.373   2.876   6.167 -0.3957  0.4589  1.3666
   99SAPE   H4S 9943   4.281   2.743   6.110 -0.8132  0.9113  0.3149
   99SAPE   C25 9944   4.461   2.682   6.224 -0.3742 -0.1996 -0.2223
   99SAPE   H5R 9945   4.518   2.724   6.308  0.6581 -0.9848 -0.5023
   99SAPE   C26 9946   4.500   2.566   6.172  0.4011  0.8385 -0.2258
   99SAPE   H6R 9947   4.594   2.515   6.199 -1.2665 -2.6349 -0.3315
   99SAPE   C27 9948   4.426   2.489   6.065 -0.0070  0.1126  0.4841
   99SAPE   H7R 9949   4.485   2.497   5.972  0.6603  2.0374  1.0266
   99SAPE   H7S 9950   4.328   2.537   6.042 -0.4693 -0.6376  0.8413
   99SAPE   C28 9951   4.420   2.337   6.090  0.1770 -0.4969 -0.5973
   99SAPE   H8R 9952   4.520   2.290   6.085  0.6072  0.0093  1.9254
   99SAPE   C29 9953   4.312   2.259   6.120  0.3027  0.3972  0.0960
   99SAPE   H9R 9954   4.327   2.151   6.133 -0.0639  0.0550 -1.9331
   99SAPE  C210 9955   4.164   2.308   6.130 -0.2901  0.5695 -0.0947
   99SAPE  H10R 9956   4.125   2.361   6.041  0.9893 -0.1092 -1.0809
   99SAPE  H10S 9957   4.166   2.377   6.217  0.3439 -0.5635  0.8301
   99SAPE  C211 9958   4.069   2.196   6.170 -0.0290 -0.1788 -0.4391
   99SAPE  H11R 9959   4.058   2.177   6.278 -0.0634 -1.2865 -0.6276
   99SAPE  C212 9960   4.014   2.108   6.080  0.2303 -0.7896 -0.9615
   99SAPE  H12R 9961   3.938   2.036   6.112 -0.7951 -0.4316 -2.4588
   99SAPE  C213 9962   4.051   2.104   5.935  0.9212 -0.6636  0.4449
   99SAPE  H13R 9963   4.134   2.031   5.925  2.2518  0.7821  0.5769
   99SAPE  H13S 9964   4.095   2.202   5.906  1.0428 -0.8588 -0.0345
   99SAPE  C214 9965   3.940   2.076   5.836 -1.2710 -0.2502 -0.3775
   99SAPE  H14R 9966   3.854   2.021   5.876 -1.9817 -0.0077 -1.5292
   99SAPE  C215 9967   3.942   2.104   5.707  0.4291 -0.5311 -0.6804
   99SAPE  H15R 9968   3.855   2.066   5.652 -1.5389  0.9298  1.2575
   99SAPE  C216 9969   4.049   2.177   5.636 -0.3091 -0.1734 -0.5185
   99SAPE  H16R 9970   4.086   2.103   5.561 -0.9335  0.5586 -1.5698
   99SAPE  H16S 9971   4.140   2.209   5.691 -0.1962  1.9085 -1.8168
   99SAPE  C217 9972   3.990   2.293   5.558  0.2300  0.1126 -0.5367
   99SAPE  H17R 9973   4.066   2.339   5.492 -0.1694 -0.5601 -1.4811
   99SAPE  H17S 9974   3.962   2.372   5.631  1.3694 -1.1598  1.3756
   99SAPE  C218 9975   3.870   2.257   5.479 -0.0534  0.4491  0.5488
   99SAPE  H18R 9976   3.776   2.269   5.536  0.6199 -0.1958  1.8354
   99SAPE  H18S 9977   3.886   2.152   5.444  1.2155  1.2966 -1.6259
   99SAPE  C219 9978   3.859   2.348   5.358 -0.3501 -0.2302 -0.0276
   99SAPE  H19R 9979   3.792   2.291   5.289  0.1940 -0.4808 -0.3543
   99SAPE  H19S 9980   3.956   2.339   5.306 -1.2008 -3.7313 -1.2842
   99SAPE  C220 9981   3.812   2.485   5.403  0.2875 -0.3604 -0.2451
   99SAPE  H20R 9982   3.736   2.473   5.483 -1.8012  0.4813 -2.0161
   99SAPE  H20S 9983   3.768   2.545   5.321  1.2021  0.1973 -0.3368
   99SAPE  H20T 9984   3.897   2.537   5.451  1.1568 -0.6057 -1.4836
   99SAPE   C33 9985   3.886   3.116   6.399  0.4763 -0.5212 -0.1664
   99SAPE   H3X 9986   3.907   3.050   6.313 -0.4962  0.8087 -1.4582
   99SAPE   H3Y 9987   3.972   3.183   6.420  0.7398 -0.8551 -0.1694
   99SAPE   C34 9988   3.764   3.197   6.360 -0.2534  1.0608 -0.2475
   99SAPE   H4X 9989   3.725   3.242   6.453  0.3322  2.6967 -0.7689
   99SAPE   H4Y 9990   3.676   3.136   6.331 -0.0385  0.9928 -0.7728
   99SAPE   C35 9991   3.787   3.322   6.281 -0.0610 -0.1666  0.6675
   99SAPE   H5X 9992   3.826   3.285   6.183 -0.2087  0.1249  0.4979
   99SAPE   H5Y 9993   3.870   3.385   6.319 -0.8206  0.5417  1.1703
   99SAPE   C36 9994   3.665   3.411   6.282 -0.3687  0.4335 -0.2896
   99SAPE   H6X 9995   3.650   3.457   6.382 -1.6852 -0.7416  0.0802
   99SAPE   H6Y 9996   3.576   3.345   6.277  1.0754 -1.5888 -0.3592
   99SAPE   C37 9997   3.662   3.512   6.168 -0.2555  0.3714 -0.7806
   99SAPE   H7X 9998   3.656   3.457   6.072  1.9894  0.1509 -0.8506
   99SAPE   H7Y 9999   3.755   3.571   6.154  0.0306  0.3163  0.7455
   99SAPE   C3810000   3.558   3.618   6.192  1.2120 -0.0045  0.6652
   99SAPE   H8X10001   3.582   3.670   6.287 -1.3448  0.0564  1.3530
   99SAPE   H8Y10002   3.453   3.587   6.211  0.6663  0.3380 -1.5587
   99SAPE   C3910003   3.540   3.716   6.076 -0.3009 -0.1004 -1.1214
   99SAPE   H9X10004   3.647   3.731   6.051  1.0571 -1.6203  2.9419
   99SAPE   H9Y10005   3.495   3.812   6.110 -2.5214 -1.4848  0.1451
   99SAPE  C31010006   3.461   3.649   5.960 -0.1385  0.1019 -0.7219
   99SAPE  H10X10007   3.357   3.637   5.996  0.3188  0.6754  0.8758
   99SAPE  H10Y10008   3.502   3.548   5.940 -0.8767 -0.8167  1.9246
   99SAPE  C31110009   3.466   3.740   5.834  0.3439  0.2915  0.3188
   99SAPE  H11X10010   3.567   3.784   5.821  0.7816 -0.6245  0.5715
   99SAPE  H11Y10011   3.408   3.829   5.867 -1.1995 -0.5117 -0.1514
   99SAPE  C31210012   3.421   3.663   5.696  0.0548 -0.0338  0.5498
   99SAPE  H12X10013   3.319   3.625   5.717 -0.4813  0.2978 -1.2273
   99SAPE  H12Y10014   3.485   3.574   5.679  0.4314  0.6052 -1.9193
   99SAPE  C31310015   3.425   3.769   5.580  0.3195  0.5112  0.0834
   99SAPE  H13X10016   3.530   3.789   5.552  0.8781 -0.3997  1.4285
   99SAPE  H13Y10017   3.379   3.857   5.632  0.4705 -0.3097  1.6672
   99SAPE  C31410018   3.339   3.708   5.463 -0.0050  0.6434 -0.6445
   99SAPE  H14X10019   3.234   3.743   5.473 -0.6863 -1.5407  0.7190
   99SAPE  H14Y10020   3.335   3.600   5.489  0.2325  0.7518 -0.1386
   99SAPE  C31510021   3.396   3.707   5.323  0.1332  0.1882 -0.0529
   99SAPE  H15X10022   3.507   3.697   5.332  0.2358 -1.9195 -2.4940
   99SAPE  H15Y10023   3.379   3.805   5.273  0.5860  0.2431 -0.1020
   99SAPE  C31610024   3.354   3.589   5.232  0.8058  0.4995 -0.3827
   99SAPE  H16X10025   3.243   3.581   5.230  0.6676  2.0961 -0.5045
   99SAPE  H16Y10026   3.400   3.500   5.281  2.3213  1.3415 -0.2070
   99SAPE  C31710027   3.414   3.596   5.093 -0.0972  0.1709  0.6539
   99SAPE  H17X10028   3.476   3.505   5.080 -2.3344 -1.2632 -0.4555
   99SAPE  H17Y10029   3.484   3.682   5.102  0.6580 -0.2876 -0.6298
   99SAPE  C31810030   3.313   3.619   4.977 -0.4760 -0.1787  0.4097
   99SAPE  H18X10031   3.367   3.625   4.880  0.7836  1.4246  1.1616
   99SAPE  H18Y10032   3.268   3.719   4.993 -1.6910 -0.8220  1.0744
   99SAPE  H18Z10033   3.245   3.531   4.980  1.2152 -1.5131  2.3024
  100SAPE     N10034   5.089   2.921   7.377  0.4224 -0.2821 -0.0372
  100SAPE   HN110035   5.038   2.889   7.462  0.7936 -0.4950  0.1130
  100SAPE   HN210036   5.155   2.843   7.355  1.4983  0.7091 -0.3829
  100SAPE   HN310037   5.150   3.001   7.402 -0.9728  0.7910 -0.0095
  100SAPE   C1210038   5.015   2.943   7.253  0.4070  0.1018 -0.0235
  100SAPE  H12A10039   4.944   3.028   7.265 -0.9511 -0.6224 -2.2091
  100SAPE  H12B10040   4.955   2.852   7.232  1.5867 -0.3875 -1.4120
  100SAPE   C1110041   5.108   2.966   7.133  0.3744  0.8786 -0.2357
  100SAPE  H11A10042   5.152   3.068   7.131  1.5627  0.3756 -0.9238
  100SAPE  H11B10043   5.039   2.963   7.046 -2.5027 -1.4733  1.9280
  100SAPE     P10044   5.197   2.741   7.060  0.0775  0.2172 -0.3420
  100SAPE   O1310045   5.321   2.662   7.046 -0.9066 -0.3174  0.1779
  100SAPE   O1410046   5.085   2.677   7.125 -0.3441  0.3227 -0.7275
  100SAPE   O1210047   5.224   2.878   7.129  0.4051  0.5442 -0.1161
  100SAPE   O1110048   5.148   2.782   6.920  0.4418 -0.2042 -0.3559
  100SAPE    C110049   5.242   2.861   6.847  0.1173  0.2253 -0.1456
  100SAPE    HA10050   5.210   2.965   6.829  1.0087  0.4063 -0.6825
  100SAPE    HB10051   5.341   2.863   6.896 -0.4413 -1.8199  1.2067
  100SAPE    C210052   5.259   2.789   6.702 -0.7095 -0.3256 -0.1032
  100SAPE    HS10053   5.306   2.866   6.637  2.8799 -1.9083  0.3743
  100SAPE   O2110054   5.132   2.737   6.642 -0.9797 -0.2128  0.3720
  100SAPE   C2110055   5.050   2.832   6.601 -0.9644  0.2181 -0.2725
  100SAPE   O2210056   5.071   2.950   6.594 -0.1313 -0.0828 -0.0952
  100SAPE   C2210057   4.919   2.763   6.554 -0.2371 -0.1033  0.2834
  100SAPE   H2R10058   4.886   2.728   6.654 -1.5632  0.2398 -0.0192
  100SAPE   H2S10059   4.851   2.843   6.518  0.2256  0.5983  0.9402
  100SAPE    C310060   5.358   2.669   6.704  0.3460  0.0574  0.7340
  100SAPE    HX10061   5.299   2.599   6.767 -1.4506  1.5026  0.7217
  100SAPE    HY10062   5.455   2.696   6.750  0.8849  0.8909 -0.8310
  100SAPE   O3110063   5.383   2.615   6.568 -0.2999 -0.5316 -0.0715
  100SAPE   C3110064   5.395   2.483   6.564 -0.2013  0.2297 -0.1148
  100SAPE   O3210065   5.387   2.410   6.662 -0.4547 -1.0996  0.1081
  100SAPE   C3210066   5.417   2.445   6.416 -0.6452  0.3991  0.3410
  100SAPE   H2X10067   5.426   2.542   6.363  0.5912  0.1176 -0.0011
  100SAPE   H2Y10068   5.321   2.394   6.390 -1.0316  0.3889  1.7211
  100SAPE   C2310069   4.936   2.649   6.453 -0.3121 -0.2792  0.3341
  100SAPE   H3R10070   4.836   2.608   6.429 -0.0861 -0.7037  0.1236
  100SAPE   H3S10071   4.997   2.578   6.513  2.5329  1.0080 -0.8241
  100SAPE   C2410072   5.012   2.699   6.328  0.2802  0.6625 -0.2510
  100SAPE   H4R10073   5.115   2.715   6.366 -0.6419  1.7174  2.0426
  100SAPE   H4S10074   4.980   2.803   6.303  0.0718  0.2430 -1.8103
  100SAPE   C2510075   4.998   2.617   6.200  0.0494 -0.5094  0.0168
  100SAPE   H5R10076   4.944   2.521   6.201  0.0296 -0.5048 -0.4387
  100SAPE   C2610077   5.041   2.660   6.076  0.4839 -0.2328 -0.6351
  100SAPE   H6R10078   5.038   2.580   6.001 -1.8938 -1.2671  0.4526
  100SAPE   C2710079   5.122   2.785   6.044  0.1973 -0.6027  0.5692
  100SAPE   H7R10080   5.196   2.759   5.965 -1.2145 -2.7292 -0.1305
  100SAPE   H7S10081   5.177   2.824   6.132 -1.6355  1.9753  0.7038
  100SAPE   C2810082   5.033   2.896   6.001 -0.1180 -0.1712 -0.1410
  100SAPE   H8R10083   4.982   2.937   6.089  1.9711  0.1074  0.9903
  100SAPE   C2910084   5.024   2.955   5.880  0.1510  0.6445  0.1481
  100SAPE   H9R10085   4.963   3.045   5.867  0.5687  0.6162 -2.6016
  100SAPE  C21010086   5.085   2.924   5.745  0.3951 -0.4522 -0.3209
  100SAPE  H10R10087   5.195   2.940   5.739  0.1989  0.6584 -1.5183
  100SAPE  H10S10088   5.026   2.984   5.673 -1.4729 -1.1657  0.5658
  100SAPE  C21110089   5.065   2.782   5.700 -0.4355 -0.0809  0.1725
  100SAPE  H11R10090   5.009   2.725   5.774 -1.5552  1.7766  0.8241
  100SAPE  C21210091   5.090   2.741   5.573 -0.1569  0.3150  0.6654
  100SAPE  H12R10092   5.079   2.635   5.547 -0.9533  0.2715  1.1558
  100SAPE  C21310093   5.175   2.824   5.478  0.2622 -0.2117 -0.0300
  100SAPE  H13R10094   5.142   2.930   5.471  2.2782  0.4588  0.1735
  100SAPE  H13S10095   5.159   2.800   5.371 -1.0369  0.5032 -0.0186
  100SAPE  C21410096   5.329   2.808   5.507 -0.6106  0.2018 -0.3335
  100SAPE  H14R10097   5.359   2.810   5.612  0.9084  2.6755 -0.7508
  100SAPE  C21510098   5.437   2.818   5.422  0.0843  0.4132  0.0938
  100SAPE  H15R10099   5.538   2.789   5.456 -0.1251  0.6623  0.9547
  100SAPE  C21610100   5.423   2.859   5.278 -0.5964  0.4183 -0.1892
  100SAPE  H16R10101   5.514   2.918   5.253 -1.0022  0.9511 -0.4139
  100SAPE  H16S10102   5.329   2.916   5.263  0.0337  1.9250  1.3035
  100SAPE  C21710103   5.434   2.739   5.176  0.9093 -0.2295 -0.0006
  100SAPE  H17R10104   5.347   2.673   5.197 -0.9054  1.9611 -0.2910
  100SAPE  H17S10105   5.528   2.685   5.198  0.0191 -1.9244 -0.1615
  100SAPE  C21810106   5.426   2.774   5.023  0.3891  0.2090 -0.2754
  100SAPE  H18R10107   5.325   2.819   5.011  0.9499  2.1654  1.7208
  100SAPE  H18S10108   5.426   2.680   4.964 -2.3692 -0.2226  0.2551
  100SAPE  C21910109   5.529   2.870   4.966 -0.6469 -0.3918 -0.4688
  100SAPE  H19R10110   5.511   2.979   4.976 -0.1875 -0.1815 -1.7651
  100SAPE  H19S10111   5.523   2.863   4.855  0.7143 -0.7368 -0.5433
  100SAPE  C22010112   5.671   2.837   5.008 -0.4746  0.1046  0.3492
  100SAPE  H20R10113   5.680   2.731   4.975 -1.7490  1.0639 -3.6437
  100SAPE  H20S10114   5.680   2.843   5.119 -0.5930  0.3410  0.3461
  100SAPE  H20T10115   5.744   2.900   4.953 -0.0986  1.2512  2.0659
  100SAPE   C3310116   5.547   2.356   6.398  0.1235 -0.3353 -0.3191
  100SAPE   H3X10117   5.551   2.271   6.469  0.7138  0.4609  0.6351
  100SAPE   H3Y10118   5.634   2.424   6.413 -0.1465 -0.1640  0.5241
  100SAPE   C3410119   5.553   2.290   6.267  0.4781  0.5759  0.4138
  100SAPE   H4X10120   5.546   2.370   6.190 -0.2289 -0.3033 -0.4507
  100SAPE   H4Y10121   5.469   2.219   6.254  2.1892 -1.5339  0.3784
  100SAPE   C3510122   5.686   2.213   6.252  0.2175 -0.2407 -0.1485
  100SAPE   H5X10123   5.671   2.127   6.322  1.6305 -0.7422 -0.4381
  100SAPE   H5Y10124   5.777   2.270   6.281 -1.4923  1.1148  3.0737
  100SAPE   C3610125   5.711   2.179   6.105  0.4745  0.3385 -0.7922
  100SAPE   H6X10126   5.760   2.268   6.059  1.6295  0.6966  1.0171
  100SAPE   H6Y10127   5.616   2.163   6.049  0.3869  0.6844 -0.7434
  100SAPE   C3710128   5.808   2.058   6.104 -0.2796  1.0415  0.0802
  100SAPE   H7X10129   5.748   1.983   6.161 -0.2385  1.6196  0.8997
  100SAPE   H7Y10130   5.906   2.080   6.151 -0.9555  1.8189  1.1667
  100SAPE   C3810131   5.828   2.010   5.958 -0.5135  0.1311  0.1329
  100SAPE   H8X10132   5.741   1.969   5.903  1.1796  0.7698 -3.3020
  100SAPE   H8Y10133   5.906   1.932   5.962 -1.2935 -0.6609  0.0820
  100SAPE   C3910134   5.870   2.117   5.858 -0.1661 -0.9471 -0.2039
  100SAPE   H9X10135   5.959   2.169   5.899 -1.4382  0.6661  0.6613
  100SAPE   H9Y10136   5.794   2.198   5.851  1.4220  0.5582 -0.9835
  100SAPE  C31010137   5.904   2.070   5.718 -0.1203  0.2989  0.3201
  100SAPE  H10X10138   5.990   2.000   5.721 -1.1601 -1.2410 -2.4287
  100SAPE  H10Y10139   5.936   2.160   5.661  1.2427 -0.6366 -0.4464
  100SAPE  C31110140   5.790   2.002   5.645 -0.3155  0.5048  0.1700
  100SAPE  H11X10141   5.709   2.076   5.630  0.4813  2.0734  2.9007
  100SAPE  H11Y10142   5.748   1.919   5.706  0.1217 -0.7310 -1.1418
  100SAPE  C31210143   5.830   1.946   5.505 -0.1991  0.4900 -0.1369
  100SAPE  H12X10144   5.919   1.884   5.528  0.6728  1.4011 -0.9832
  100SAPE  H12Y10145   5.866   2.026   5.437  0.2271 -2.1116 -3.1606
  100SAPE  C31310146   5.731   1.863   5.432 -0.4046  0.4458  0.3320
  100SAPE  H13X10147   5.635   1.917   5.413  0.2511  0.8625 -2.1226
  100SAPE  H13Y10148   5.707   1.762   5.472  0.1193 -0.6770 -2.0357
  100SAPE  C31410149   5.767   1.834   5.282 -0.7244  0.5713 -0.1852
  100SAPE  H14X10150   5.855   1.765   5.279 -1.8118 -0.8358 -0.8394
  100SAPE  H14Y10151   5.805   1.933   5.251 -1.5990  0.8879 -0.2679
  100SAPE  C31510152   5.650   1.773   5.202 -0.1464  0.4258  0.4373
  100SAPE  H15X10153   5.578   1.857   5.194  1.2367  1.6566  0.5154
  100SAPE  H15Y10154   5.614   1.681   5.253 -0.3475 -0.2967 -0.9726
  100SAPE  C31610155   5.698   1.730   5.060 -0.6678  0.0465 -0.3160
  100SAPE  H16X10156   5.642   1.643   5.020 -0.5830  0.3977 -1.2138
  100SAPE  H16Y10157   5.807   1.715   5.070 -0.8847 -0.7748  1.1059
  100SAPE  C31710158   5.692   1.846   4.959  0.3418  0.0157 -0.7151
  100SAPE  H17X10159   5.763   1.830   4.875  0.6828 -0.4603 -0.3459
  100SAPE  H17Y10160   5.714   1.942   5.008 -0.8735  0.4276 -0.9372
  100SAPE  C31810161   5.564   1.860   4.882  0.1010  0.7410 -0.4244
  100SAPE  H18X10162   5.487   1.871   4.960  0.5584 -0.6008  0.2487
  100SAPE  H18Y10163   5.539   1.764   4.832  1.5006 -0.8798  1.7548
  100SAPE  H18Z10164   5.574   1.945   4.812  2.5645  0.4290 -0.5694
  101SAPE     N10165   4.051   5.084   6.792 -0.1205 -0.2557 -0.0155
  101SAPE   HN110166   4.142   5.126   6.764  0.3692 -1.3703 -0.1247
  101SAPE   HN210167   4.068   4.982   6.795 -2.4624 -0.7771 -1.5077
  101SAPE   HN310168   3.985   5.104   6.714  0.7938 -0.8267 -0.9428
  101SAPE   C1210169   3.997   5.129   6.928  0.0813  0.1098  0.2223
  101SAPE  H12A10170   4.071   5.132   7.011  1.3349  0.0967 -0.8591
  101SAPE  H12B10171   3.916   5.062   6.964  0.0911 -1.0867 -1.8478
  101SAPE   C1110172   3.938   5.268   6.923  0.2833  0.2453  0.4690
  101SAPE  H11A10173   4.018   5.341   6.899 -0.3848  0.6668 -0.5662
  101SAPE  H11B10174   3.906   5.290   7.027  1.7121 -2.3827  1.5722
  101SAPE     P10175   3.796   5.418   6.763  0.2609  0.1512  0.4684
  101SAPE   O1310176   3.650   5.429   6.737 -0.2909 -0.0426  0.1394
  101SAPE   O1410177   3.857   5.528   6.838  0.1647 -0.1504 -0.4895
  101SAPE   O1210178   3.826   5.276   6.835 -0.0241 -0.7538  0.4103
  101SAPE   O1110179   3.863   5.395   6.620  0.5688 -0.4556  0.2358
  101SAPE    C110180   4.002   5.397   6.593 -0.0408 -0.2415  0.6000
  101SAPE    HA10181   4.061   5.341   6.669  1.2692 -0.4129 -0.4891
  101SAPE    HB10182   4.035   5.339   6.504  0.0738  0.6807  0.0224
  101SAPE    C210183   4.062   5.536   6.570  0.1171 -0.1609 -0.2627
  101SAPE    HS10184   4.033   5.604   6.653 -2.4410 -0.0151 -1.1617
  101SAPE   O2110185   4.015   5.594   6.450  0.4050  0.1441 -0.3415
  101SAPE   C2110186   3.897   5.662   6.459  0.5932 -0.1160  0.9595
  101SAPE   O2210187   3.849   5.701   6.563  0.0561 -0.2285 -0.5058
  101SAPE   C2210188   3.839   5.696   6.316 -0.0202 -0.3339 -0.1332
  101SAPE   H2R10189   3.732   5.668   6.313  0.4485 -2.4488  0.9853
  101SAPE   H2S10190   3.843   5.806   6.302 -1.3834 -0.0295  1.6444
  101SAPE    C310191   4.218   5.533   6.577 -0.2835  0.9851 -0.0987
  101SAPE    HX10192   4.249   5.487   6.673 -0.6353  0.6499 -0.1444
  101SAPE    HY10193   4.244   5.641   6.572  0.6659  0.8183  1.0055
  101SAPE   O3110194   4.276   5.451   6.470 -0.0524  0.0322  0.1543
  101SAPE   C3110195   4.342   5.513   6.375  0.0061  0.3534  0.5590
  101SAPE   O3210196   4.344   5.636   6.355 -0.4861  0.1404  0.0601
  101SAPE   C3210197   4.410   5.409   6.293  0.9388  0.1168 -0.0903
  101SAPE   H2X10198   4.361   5.310   6.282  0.2375  0.6092 -1.8425
  101SAPE   H2Y10199   4.503   5.392   6.350 -0.1360 -0.1556  1.6567
  101SAPE   C2310200   3.911   5.618   6.193  0.2351 -0.0238 -0.6381
  101SAPE   H3R10201   4.021   5.633   6.194  0.3148 -0.6158 -0.0545
  101SAPE   H3S10202   3.870   5.665   6.101 -3.4600 -0.7518  0.4995
  101SAPE   C2410203   3.880   5.471   6.195 -0.5459 -0.1775 -0.2605
  101SAPE   H4R10204   3.774   5.462   6.165 -1.0321 -0.8389  1.5008
  101SAPE   H4S10205   3.874   5.435   6.300 -0.8369 -0.5302 -0.3972
  101SAPE   C2510206   3.978   5.392   6.116 -0.1894  0.6550 -0.1113
  101SAPE   H5R10207   4.058   5.347   6.176 -1.4786 -1.2506  0.2476
  101SAPE   C2610208   3.971   5.373   5.980 -0.3379 -0.5667 -0.0214
  101SAPE   H6R10209   4.055   5.313   5.941  0.8329  0.2084  1.1808
  101SAPE   C2710210   3.876   5.437   5.882 -0.0762 -0.2051 -0.2352
  101SAPE   H7R10211   3.796   5.489   5.938  0.4846 -0.8318  1.2120
  101SAPE   H7S10212   3.826   5.356   5.825 -0.9907  1.1291 -1.3831
  101SAPE   C2810213   3.938   5.543   5.802 -0.2007 -0.1174 -0.0615
  101SAPE   H8R10214   3.927   5.640   5.853 -0.5980 -0.4156  0.4357
  101SAPE   C2910215   3.989   5.528   5.680 -0.0332 -0.2124  0.0188
  101SAPE   H9R10216   4.023   5.605   5.610  0.7200  0.1055  0.7109
  101SAPE  C21010217   3.995   5.398   5.610 -0.1916  0.6067  0.4327
  101SAPE  H10R10218   3.967   5.315   5.679  1.4693 -0.9393 -0.6494
  101SAPE  H10S10219   4.104   5.390   5.591 -0.0117  0.1300  1.6111
  101SAPE  C21110220   3.916   5.379   5.483 -0.5273  0.0897  1.1733
  101SAPE  H11R10221   3.813   5.343   5.502 -0.4985 -2.9833 -3.0295
  101SAPE  C21210222   3.958   5.415   5.359 -0.2378  0.0707  0.0835
  101SAPE  H12R10223   3.895   5.393   5.272 -0.0223 -1.6156  0.3173
  101SAPE  C21310224   4.104   5.455   5.334  0.3378 -0.0713  0.0650
  101SAPE  H13R10225   4.167   5.363   5.326  0.8945  0.1529  1.5139
  101SAPE  H13S10226   4.152   5.507   5.420 -0.3342  1.3045 -0.3662
  101SAPE  C21410227   4.108   5.542   5.210 -0.5907  0.2899  0.1060
  101SAPE  H14R10228   4.088   5.648   5.232  2.7439  1.2650 -0.9160
  101SAPE  C21510229   4.151   5.504   5.086  0.6225 -0.4219 -0.1039
  101SAPE  H15R10230   4.160   5.576   5.003  1.4744 -2.4276 -1.8324
  101SAPE  C21610231   4.194   5.362   5.040  0.0425  0.1789 -0.2604
  101SAPE  H16R10232   4.246   5.308   5.122  2.1158  2.1837 -0.1454
  101SAPE  H16S10233   4.270   5.369   4.959  1.8131 -0.4817  1.2843
  101SAPE  C21710234   4.078   5.267   4.998 -0.6882 -0.1017  0.1493
  101SAPE  H17R10235   4.006   5.242   5.078 -1.9972 -1.5134 -1.3953
  101SAPE  H17S10236   4.124   5.169   4.972 -0.7295 -0.3835  1.0992
  101SAPE  C21810237   3.994   5.319   4.879  0.0711  0.1793  0.0275
  101SAPE  H18R10238   3.955   5.420   4.905  2.0978  1.4616 -1.5993
  101SAPE  H18S10239   3.907   5.256   4.851 -1.2174  1.7205  0.4242
  101SAPE  C21910240   4.076   5.340   4.750  0.0871 -0.4428  0.1017
  101SAPE  H19R10241   4.086   5.248   4.689  1.1783 -1.3136  1.5555
  101SAPE  H19S10242   4.181   5.353   4.782  0.1119 -2.0411  0.7533
  101SAPE  C22010243   4.040   5.459   4.659 -0.4406 -1.0250 -0.3649
  101SAPE  H20R10244   4.050   5.558   4.709 -1.0325 -0.6463 -0.9735
  101SAPE  H20S10245   3.942   5.439   4.610 -0.0650  1.1316 -2.1387
  101SAPE  H20T10246   4.106   5.452   4.570 -0.5534  0.7816 -0.6246
  101SAPE   C3310247   4.442   5.460   6.152 -0.4495  0.3570 -0.7390
  101SAPE   H3X10248   4.525   5.399   6.112 -0.5418  0.3593 -0.9325
  101SAPE   H3Y10249   4.482   5.563   6.161  1.1334 -0.1401 -1.8053
  101SAPE   C3410250   4.333   5.466   6.044 -0.4808  0.6876  0.4434
  101SAPE   H4X10251   4.252   5.533   6.080 -0.4044  1.5834 -0.9793
  101SAPE   H4Y10252   4.291   5.364   6.038  0.4115  0.2556  1.1810
  101SAPE   C3510253   4.401   5.527   5.914 -0.7011  0.2927  0.0712
  101SAPE   H5X10254   4.469   5.614   5.929 -0.3097 -0.0310  0.1957
  101SAPE   H5Y10255   4.317   5.547   5.844 -1.2951 -0.6653  0.4915
  101SAPE   C3610256   4.469   5.407   5.845  0.2782 -0.7365  0.3421
  101SAPE   H6X10257   4.396   5.324   5.836 -1.2624  0.4570  1.1412
  101SAPE   H6Y10258   4.560   5.381   5.902 -1.0020  0.0653  2.8894
  101SAPE   C3710259   4.519   5.448   5.705 -0.8242  0.0961 -0.0494
  101SAPE   H7X10260   4.619   5.496   5.703 -1.3997  1.2958 -0.9767
  101SAPE   H7Y10261   4.445   5.515   5.657  1.2462  1.7781 -1.0292
  101SAPE   C3810262   4.525   5.325   5.615 -0.1115 -0.8035 -0.1768
  101SAPE   H8X10263   4.419   5.292   5.619 -0.3978  0.0410  4.1728
  101SAPE   H8Y10264   4.592   5.245   5.652  1.3432 -0.1006 -1.1802
  101SAPE   C3910265   4.575   5.361   5.476 -0.6827  0.4982 -0.6222
  101SAPE   H9X10266   4.579   5.273   5.409  1.4366 -0.8784  1.1545
  101SAPE   H9Y10267   4.685   5.376   5.476 -0.4660 -0.6073  1.5570
  101SAPE  C31010268   4.508   5.477   5.399 -0.4415  0.0979 -0.4927
  101SAPE  H10X10269   4.514   5.568   5.464 -0.3462  0.1724 -0.6063
  101SAPE  H10Y10270   4.400   5.465   5.376 -0.1054  0.6565 -2.4822
  101SAPE  C31110271   4.569   5.497   5.260  0.7476  0.0199 -0.0816
  101SAPE  H11X10272   4.552   5.399   5.210  2.2797 -0.1076 -0.3802
  101SAPE  H11Y10273   4.677   5.500   5.285  0.4626  1.2516  1.1171
  101SAPE  C31210274   4.525   5.609   5.181  0.3072 -0.2737 -0.7744
  101SAPE  H12X10275   4.527   5.700   5.245 -1.9967 -1.6320  1.4289
  101SAPE  H12Y10276   4.422   5.592   5.143 -0.8295  3.0363  0.4767
  101SAPE  C31310277   4.605   5.630   5.051  0.5488 -0.3864 -0.3112
  101SAPE  H13X10278   4.691   5.698   5.070  0.5888 -0.8147  1.1626
  101SAPE  H13Y10279   4.549   5.694   4.978  2.0945  1.5950  0.1445
  101SAPE  C31410280   4.654   5.499   4.987  0.2101 -0.0810 -0.4952
  101SAPE  H14X10281   4.566   5.449   4.941 -1.2283  0.1972  1.7829
  101SAPE  H14Y10282   4.699   5.421   5.051 -3.5285 -0.2419  2.2701
  101SAPE  C31510283   4.748   5.534   4.868 -0.4059  0.7069 -0.2295
  101SAPE  H15X10284   4.807   5.628   4.873  1.7071 -0.4268 -2.0490
  101SAPE  H15Y10285   4.683   5.561   4.782  0.0767 -0.6042 -1.0284
  101SAPE  C31610286   4.827   5.403   4.826  0.3977  0.0618  0.3119
  101SAPE  H16X10287   4.762   5.315   4.806  0.8466  0.2110 -2.1334
  101SAPE  H16Y10288   4.882   5.376   4.919 -1.5976  0.4812  1.7059
  101SAPE  C31710289   4.920   5.423   4.706  0.0427 -0.5778 -0.4909
  101SAPE  H17X10290   4.997   5.343   4.714 -0.0548 -0.5352  1.3368
  101SAPE  H17Y10291   4.982   5.514   4.721  0.6566 -1.2168  1.0785
  101SAPE  C31810292   4.846   5.404   4.575  0.1822 -0.9451  0.2214
  101SAPE  H18X10293   4.798   5.304   4.576  0.3578 -1.0611 -1.3382
  101SAPE  H18Y10294   4.930   5.396   4.504 -0.0644 -0.3942 -0.1422
  101SAPE  H18Z10295   4.787   5.494   4.546  0.5311 -0.3945  1.1430
  102SAPE     N10296   5.707   3.788   7.211 -0.1950 -0.0603  0.4270
  102SAPE   HN110297   5.696   3.751   7.307 -1.2934 -0.1618  0.2774
  102SAPE   HN210298   5.771   3.870   7.214 -0.0162 -0.0263 -1.9294
  102SAPE   HN310299   5.611   3.809   7.178 -0.9180 -2.6336  0.7350
  102SAPE   C1210300   5.761   3.682   7.120 -0.3035 -0.4624 -0.0032
  102SAPE  H12A10301   5.872   3.676   7.114 -0.2169 -0.7590  1.4871
  102SAPE  H12B10302   5.718   3.717   7.023  0.2944  2.2054  0.5964
  102SAPE   C1110303   5.708   3.544   7.159 -0.4660 -0.8282  0.0921
  102SAPE  H11A10304   5.599   3.537   7.137 -0.0141 -0.9881 -2.4644
  102SAPE  H11B10305   5.724   3.535   7.268  0.8012  0.7226  0.0726
  102SAPE     P10306   5.735   3.294   7.099  0.1323  0.3660 -0.1119
  102SAPE   O1310307   5.788   3.235   7.226  0.5312  0.2094  0.0371
  102SAPE   O1410308   5.592   3.280   7.074  0.2724 -0.6438  0.2348
  102SAPE   O1210309   5.789   3.445   7.091  0.6211 -0.6720  0.1019
  102SAPE   O1110310   5.822   3.240   6.978 -0.1810 -0.3041 -0.6785
  102SAPE    C110311   5.795   3.296   6.850 -0.3395 -0.3005 -0.1999
  102SAPE    HA10312   5.774   3.405   6.849 -0.0449 -0.1826  2.0816
  102SAPE    HB10313   5.895   3.292   6.802  0.0891  1.1244  0.5060
  102SAPE    C210314   5.689   3.218   6.766 -0.3988 -0.2002  0.4156
  102SAPE    HS10315   5.591   3.223   6.817 -1.1230  2.3968 -1.0487
  102SAPE   O2110316   5.746   3.085   6.752  0.3551  0.1633  0.5856
  102SAPE   C2110317   5.670   2.981   6.777  0.5043  0.0103  0.1331
  102SAPE   O2210318   5.557   2.990   6.812  0.3022 -0.4387  0.0775
  102SAPE   C2210319   5.736   2.842   6.750  0.0624  0.3170 -0.2584
  102SAPE   H2R10320   5.846   2.844   6.768  0.3261 -0.9048 -1.6004
  102SAPE   H2S10321   5.702   2.778   6.834 -0.7832 -0.1705 -0.9586
  102SAPE    C310322   5.661   3.284   6.622 -0.3208 -0.6036 -0.7061
  102SAPE    HX10323   5.757   3.270   6.568 -0.9746 -2.6984 -1.4563
  102SAPE    HY10324   5.633   3.391   6.621  1.1816  0.0528  4.0411
  102SAPE   O3110325   5.571   3.197   6.550  0.6529  0.2238  0.2925
  102SAPE   C3110326   5.451   3.210   6.595 -0.7139  0.0385  0.5575
  102SAPE   O3210327   5.414   3.293   6.674  1.2050 -0.2869 -0.3835
  102SAPE   C3210328   5.363   3.102   6.537  0.0691  0.2555 -0.1179
  102SAPE   H2X10329   5.312   3.078   6.633  0.0283  0.3091 -0.1258
  102SAPE   H2Y10330   5.413   3.019   6.483  0.2614  0.4711 -0.2743
  102SAPE   C2310331   5.681   2.791   6.614 -0.2860 -0.1576  0.2767
  102SAPE   H3R10332   5.726   2.868   6.547 -0.9631  1.3617  1.5117
  102SAPE   H3S10333   5.572   2.802   6.597 -0.1549  0.1734 -0.4071
  102SAPE   C2410334   5.721   2.647   6.557  0.2001 -0.7168 -0.5338
  102SAPE   H4R10335   5.653   2.623   6.473 -2.3341 -0.9699  1.4664
  102SAPE   H4S10336   5.698   2.583   6.644  3.0962 -0.1908  0.7654
  102SAPE   C2510337   5.869   2.626   6.523  0.4479 -0.0301  0.3585
  102SAPE   H5R10338   5.935   2.615   6.611 -0.0938  0.6936  0.8665
  102SAPE   C2610339   5.916   2.633   6.397 -0.0453  0.8040 -0.4335
  102SAPE   H6R10340   6.024   2.630   6.376 -0.0023 -0.4448 -0.0942
  102SAPE   C2710341   5.833   2.665   6.276 -0.0820 -0.5088  0.6353
  102SAPE   H7R10342   5.764   2.748   6.302 -0.8303 -0.4774 -1.2790
  102SAPE   H7S10343   5.765   2.579   6.257 -2.5591  1.7234 -1.5029
  102SAPE   C2810344   5.898   2.699   6.143  0.2289  0.3059 -0.5113
  102SAPE   H8R10345   6.004   2.729   6.147  0.1544  0.5173  0.0262
  102SAPE   C2910346   5.845   2.677   6.024  0.0839 -0.0058 -0.0711
  102SAPE   H9R10347   5.882   2.731   5.936 -1.5971  2.6646  0.7367
  102SAPE  C21010348   5.708   2.614   5.984  0.4685 -0.3888 -0.1839
  102SAPE  H10R10349   5.704   2.505   6.005 -0.8138 -0.2733  0.2332
  102SAPE  H10S10350   5.697   2.623   5.874  0.7412 -0.8543 -0.2519
  102SAPE  C21110351   5.591   2.685   6.048 -0.3133  0.2698  0.3436
  102SAPE  H11R10352   5.607   2.783   6.096 -3.5354  1.4331 -0.6800
  102SAPE  C21210353   5.468   2.636   6.052  0.0784  0.0534  0.1518
  102SAPE  H12R10354   5.384   2.689   6.099  0.0870 -1.0219  1.4501
  102SAPE  C21310355   5.423   2.510   5.990  0.5233  0.1355  0.6341
  102SAPE  H13R10356   5.353   2.451   6.053  0.9954 -1.9401 -0.6987
  102SAPE  H13S10357   5.514   2.448   5.977  0.8798  0.2946  2.1178
  102SAPE  C21410358   5.355   2.540   5.851  0.3960  0.8247  0.0808
  102SAPE  H14R10359   5.267   2.606   5.853 -0.7156 -0.6189  0.7842
  102SAPE  C21510360   5.408   2.515   5.728  0.1700  0.7911  0.4599
  102SAPE  H15R10361   5.347   2.516   5.636 -0.1891 -1.9783  0.5964
  102SAPE  C21610362   5.539   2.439   5.700 -0.0526  0.0678 -0.2412
  102SAPE  H16R10363   5.522   2.335   5.664  2.3691 -1.1091  1.7453
  102SAPE  H16S10364   5.600   2.425   5.792  0.9904  0.7667 -0.8167
  102SAPE  C21710365   5.621   2.514   5.589  0.6091  0.2193 -0.3891
  102SAPE  H17R10366   5.657   2.610   5.631 -1.6688  1.4893 -1.1345
  102SAPE  H17S10367   5.561   2.544   5.500 -0.4249 -0.0235  0.1986
  102SAPE  C21810368   5.738   2.430   5.537 -0.1583  0.0913 -0.3474
  102SAPE  H18R10369   5.691   2.333   5.508 -0.9941  1.1523 -2.8770
  102SAPE  H18S10370   5.817   2.412   5.612  1.1490 -2.3346 -2.1516
  102SAPE  C21910371   5.792   2.474   5.405  0.1914 -0.4425 -0.1638
  102SAPE  H19R10372   5.884   2.413   5.392 -0.6398 -1.5654 -0.9172
  102SAPE  H19S10373   5.844   2.572   5.416 -0.0617 -0.5446  2.6748
  102SAPE  C22010374   5.705   2.456   5.290  0.1202  0.8208 -0.1431
  102SAPE  H20R10375   5.663   2.354   5.300  1.1715  0.1755 -1.8417
  102SAPE  H20S10376   5.752   2.464   5.189  2.9586 -0.0097  1.0136
  102SAPE  H20T10377   5.627   2.535   5.288  0.9868  1.6942  0.0178
  102SAPE   C3310378   5.266   3.164   6.436  0.0323 -0.7873 -0.2961
  102SAPE   H3X10379   5.232   3.259   6.482 -0.3132 -0.8061 -0.5127
  102SAPE   H3Y10380   5.168   3.117   6.410 -0.0442 -0.2078 -1.0913
  102SAPE   C3410381   5.334   3.198   6.307 -0.3649 -0.1144  0.2768
  102SAPE   H4X10382   5.432   3.249   6.321 -1.2960  1.5515  1.1295
  102SAPE   H4Y10383   5.282   3.281   6.255  0.6777 -0.3863 -1.2487
  102SAPE   C3510384   5.350   3.081   6.207 -0.6459 -0.0307  0.3350
  102SAPE   H5X10385   5.256   3.034   6.170  0.6805  0.4765 -4.3460
  102SAPE   H5Y10386   5.417   2.997   6.235 -1.6371 -1.9176 -2.5268
  102SAPE   C3610387   5.397   3.138   6.077  0.6643 -0.0762 -0.7970
  102SAPE   H6X10388   5.488   3.200   6.088  0.8307 -0.7238  2.9219
  102SAPE   H6Y10389   5.322   3.192   6.016  0.3343  0.6833  0.2509
  102SAPE   C3710390   5.457   3.013   6.003  0.3926 -0.1458  0.5698
  102SAPE   H7X10391   5.378   2.936   5.988 -0.2638  0.9045 -2.1160
  102SAPE   H7Y10392   5.539   2.968   6.062  1.7017 -1.5605 -2.1299
  102SAPE   C3810393   5.506   3.040   5.861  0.0122 -0.9520 -0.1174
  102SAPE   H8X10394   5.566   3.133   5.857 -2.2426  0.5469 -2.0448
  102SAPE   H8Y10395   5.421   3.075   5.797  1.4177  0.0927 -1.4854
  102SAPE   C3910396   5.578   2.926   5.790 -0.6595 -0.3740 -0.1606
  102SAPE   H9X10397   5.495   2.862   5.756 -2.4254  0.7650  1.7581
  102SAPE   H9Y10398   5.638   2.856   5.854 -0.4205 -1.3051 -1.3700
  102SAPE  C31010399   5.662   2.971   5.663  0.0872 -0.1507 -0.2004
  102SAPE  H10X10400   5.683   2.888   5.593 -0.0651  1.7634 -2.6461
  102SAPE  H10Y10401   5.761   3.002   5.704  0.4015 -1.5143  0.1499
  102SAPE  C31110402   5.592   3.084   5.582 -0.1752  0.3081 -0.4813
  102SAPE  H11X10403   5.576   3.175   5.644  0.3805 -0.8880  1.5454
  102SAPE  H11Y10404   5.493   3.050   5.546 -0.1016  0.8079 -1.1689
  102SAPE  C31210405   5.676   3.128   5.465 -0.2197 -0.4039  0.5658
  102SAPE  H12X10406   5.693   3.040   5.400 -0.7738 -1.8265  2.2873
  102SAPE  H12Y10407   5.773   3.170   5.500 -0.1546 -0.8668  0.9476
  102SAPE  C31310408   5.598   3.224   5.371 -0.1157 -0.2906  0.5589
  102SAPE  H13X10409   5.592   3.321   5.425  0.9869 -0.8345  1.7191
  102SAPE  H13Y10410   5.499   3.174   5.370 -1.0866  1.5471  0.3501
  102SAPE  C31410411   5.662   3.231   5.235 -0.6011  0.5387 -0.4949
  102SAPE  H14X10412   5.645   3.127   5.201  0.4309  0.7073 -1.5898
  102SAPE  H14Y10413   5.770   3.258   5.237 -0.8768  1.6636  0.2931
  102SAPE  C31510414   5.582   3.320   5.144  0.0728 -0.4446 -0.0320
  102SAPE  H15X10415   5.571   3.413   5.203  3.0425  0.9189 -1.4455
  102SAPE  H15Y10416   5.482   3.272   5.136 -0.6770  1.1157 -0.3554
  102SAPE  C31610417   5.637   3.340   5.000  0.5130 -0.4835 -0.3076
  102SAPE  H16X10418   5.663   3.249   4.943 -0.4128 -0.5144 -0.6926
  102SAPE  H16Y10419   5.740   3.377   5.019 -0.3528  1.2552  1.3096
  102SAPE  C31710420   5.558   3.435   4.915 -0.1021 -0.7191 -0.6098
  102SAPE  H17X10421   5.572   3.532   4.967  0.5429 -1.4686  0.6738
  102SAPE  H17Y10422   5.447   3.435   4.924 -0.2171  3.5371 -0.0533
  102SAPE  C31810423   5.600   3.433   4.769  0.2150 -0.0140 -1.2602
  102SAPE  H18X10424   5.598   3.330   4.726 -1.4176 -0.2515 -0.6925
  102SAPE  H18Y10425   5.705   3.468   4.767  0.5724 -1.0357 -1.1659
  102SAPE  H18Z10426   5.540   3.499   4.703 -1.1914 -0.7074 -0.7291
  103SAPE     N10427   2.888   6.746   2.581  0.5103 -0.3562 -0.1579
  103SAPE   HN110428   2.906   6.693   2.668 -0.9445 -0.2038  0.2491
  103SAPE   HN210429   2.959   6.823   2.584 -1.7809  1.8493  0.8162
  103SAPE   HN310430   2.797   6.792   2.596 -0.2109 -2.2465  1.6282
  103SAPE   C1210431   2.891   6.660   2.455 -0.5524  0.2072 -0.0651
  103SAPE  H12A10432   2.992   6.615   2.446 -1.1319 -1.2898  0.6023
  103SAPE  H12B10433   2.878   6.718   2.361  1.9754 -0.5474 -0.9600
  103SAPE   C1110434   2.778   6.560   2.451 -0.7656  0.6600 -0.7291
  103SAPE  H11A10435   2.791   6.482   2.372 -3.9037 -1.5377  0.7085
  103SAPE  H11B10436   2.679   6.609   2.438 -0.2006  2.2141  0.5523
  103SAPE     P10437   2.660   6.371   2.599  0.0700  0.1725 -0.1411
  103SAPE   O1310438   2.541   6.393   2.508  0.0417 -0.3578  0.1576
  103SAPE   O1410439   2.724   6.235   2.598  0.2202  0.3595  0.1195
  103SAPE   O1210440   2.768   6.482   2.572 -0.0735  0.3978  0.2786
  103SAPE   O1110441   2.617   6.389   2.750 -0.4023 -0.5019 -0.4238
  103SAPE    C110442   2.527   6.491   2.785  0.1380 -0.5457  0.6574
  103SAPE    HA10443   2.448   6.508   2.708  0.3820  0.0717  0.5396
  103SAPE    HB10444   2.457   6.462   2.866 -0.7386 -0.1303  0.0765
  103SAPE    C210445   2.589   6.625   2.820  0.2026  0.2949  0.2341
  103SAPE    HS10446   2.654   6.655   2.735  0.4347  0.4577  0.4709
  103SAPE   O2110447   2.665   6.615   2.939  0.2707 -0.0642  0.2238
  103SAPE   C2110448   2.765   6.697   2.955  0.2276 -0.0713 -0.8565
  103SAPE   O2210449   2.801   6.790   2.888 -0.2234  0.2410 -0.4231
  103SAPE   C2210450   2.836   6.660   3.086 -0.1643  0.4361  0.1100
  103SAPE   H2R10451   2.801   6.556   3.107  1.9960 -0.9053 -2.3160
  103SAPE   H2S10452   2.946   6.667   3.079  0.0653 -2.9872 -2.1771
  103SAPE    C310453   2.477   6.730   2.832  0.1250 -0.9379 -0.1037
  103SAPE    HX10454   2.419   6.715   2.738  1.5098  0.3442 -1.2048
  103SAPE    HY10455   2.520   6.832   2.821 -0.1726 -0.6261  1.3615
  103SAPE   O3110456   2.392   6.704   2.945 -0.2743 -0.1872  0.8149
  103SAPE   C3110457   2.410   6.788   3.054 -0.4811  1.0423 -0.4040
  103SAPE   O3210458   2.489   6.880   3.063  0.0889 -0.2725  0.3618
  103SAPE   C3210459   2.326   6.735   3.173 -0.6396 -0.0340  0.0802
  103SAPE   H2X10460   2.338   6.625   3.182  1.5560  0.0913 -0.6759
  103SAPE   H2Y10461   2.221   6.763   3.149 -0.8745  0.3175  1.4496
  103SAPE   C2310462   2.774   6.737   3.202 -0.1136  0.3810 -0.3200
  103SAPE   H3R10463   2.663   6.727   3.203 -0.0239 -0.8872 -0.9276
  103SAPE   H3S10464   2.802   6.844   3.208  3.7197 -0.5489  2.2564
  103SAPE   C2410465   2.833   6.683   3.333 -0.2556 -0.3766 -0.3761
  103SAPE   H4R10466   2.796   6.753   3.412  0.9406 -0.4618  0.2857
  103SAPE   H4S10467   2.942   6.706   3.337  0.1161 -2.0205 -0.4250
  103SAPE   C2510468   2.796   6.550   3.382  0.2533 -0.2188 -0.3735
  103SAPE   H5R10469   2.826   6.465   3.319  2.5740  0.0532  0.2530
  103SAPE   C2610470   2.733   6.516   3.496 -0.0898  0.2458 -0.0190
  103SAPE   H6R10471   2.728   6.409   3.520 -2.9779  0.0875 -0.8721
  103SAPE   C2710472   2.700   6.611   3.611 -0.7417  0.7701  0.1142
  103SAPE   H7R10473   2.599   6.658   3.603 -1.3002  0.5017  3.8743
  103SAPE   H7S10474   2.778   6.690   3.613  1.4679 -1.0490 -3.3356
  103SAPE   C2810475   2.707   6.540   3.749 -0.1758  0.5748  0.4190
  103SAPE   H8R10476   2.788   6.467   3.750  1.2372  2.0854  0.1958
  103SAPE   C2910477   2.631   6.554   3.863 -0.9309  0.5479  0.9452
  103SAPE   H9R10478   2.652   6.486   3.946 -0.7279  0.3037  0.6936
  103SAPE  C21010479   2.514   6.649   3.884  0.1222  0.3076 -0.3463
  103SAPE  H10R10480   2.442   6.610   3.959 -0.3062  0.6276 -0.5851
  103SAPE  H10S10481   2.448   6.658   3.796 -0.2966  1.2673  0.0479
  103SAPE  C21110482   2.567   6.790   3.920  0.4769  0.1623  0.3094
  103SAPE  H11R10483   2.638   6.839   3.852 -1.0184  0.0952 -1.3859
  103SAPE  C21210484   2.552   6.841   4.044  0.0681 -0.1198 -0.4933
  103SAPE  H12R10485   2.593   6.940   4.071 -0.3653 -0.4897  1.6853
  103SAPE  C21310486   2.460   6.788   4.156 -1.0434 -0.2104  0.0363
  103SAPE  H13R10487   2.380   6.723   4.114 -0.2544 -2.1061  1.2883
  103SAPE  H13S10488   2.395   6.868   4.197  0.9109  1.7583 -0.5696
  103SAPE  C21410489   2.556   6.732   4.255 -0.0064  0.5573 -0.3090
  103SAPE  H14R10490   2.606   6.644   4.214 -0.6921 -0.1018  0.2353
  103SAPE  C21510491   2.582   6.784   4.375 -0.0771 -0.4340  0.0699
  103SAPE  H15R10492   2.651   6.736   4.446 -0.1502 -0.0580  0.3994
  103SAPE  C21610493   2.521   6.916   4.430  0.7778  0.5966  0.6592
  103SAPE  H16R10494   2.415   6.907   4.462  0.5379  1.2910  0.1020
  103SAPE  H16S10495   2.517   6.989   4.346  0.2691  1.0731  1.0889
  103SAPE  C21710496   2.606   6.962   4.552  0.8226 -0.1106  0.6108
  103SAPE  H17R10497   2.706   6.973   4.504  0.8278 -1.3904  0.2968
  103SAPE  H17S10498   2.597   6.885   4.631  1.3381  1.3108  2.1156
  103SAPE  C21810499   2.557   7.086   4.633  0.2543 -0.0293 -0.0390
  103SAPE  H18R10500   2.593   7.174   4.575  1.0803  0.1308  0.6956
  103SAPE  H18S10501   2.607   7.084   4.732  0.6923 -0.9170 -0.2668
  103SAPE  C21910502   2.399   7.104   4.656 -0.1569  0.1173  0.0967
  103SAPE  H19R10503   2.359   7.032   4.730  1.1506 -0.4622  0.2667
  103SAPE  H19S10504   2.337   7.084   4.566 -1.0555  2.1772  0.1988
  103SAPE  C22010505   2.371   7.244   4.711  0.4542 -0.0282 -0.2361
  103SAPE  H20R10506   2.425   7.267   4.805  2.1896 -0.9561 -0.9756
  103SAPE  H20S10507   2.264   7.265   4.733 -0.2348 -2.0573 -1.3867
  103SAPE  H20T10508   2.412   7.321   4.644  2.6613  1.3110  2.4526
  103SAPE   C3310509   2.364   6.799   3.302  0.2912  0.7314  0.0279
  103SAPE   H3X10510   2.375   6.910   3.298 -1.0355  0.8565 -0.9615
  103SAPE   H3Y10511   2.460   6.758   3.340 -0.3389 -0.3825  0.4430
  103SAPE   C3410512   2.255   6.790   3.415 -0.3502 -0.0213 -0.7785
  103SAPE   H4X10513   2.231   6.684   3.438 -0.6686 -0.0071 -1.0366
  103SAPE   H4Y10514   2.160   6.846   3.405 -0.2491  0.2067 -0.4570
  103SAPE   C3510515   2.314   6.843   3.556 -0.2336 -0.0817  0.4312
  103SAPE   H5X10516   2.328   6.952   3.536  0.6993  0.2128  2.3853
  103SAPE   H5Y10517   2.411   6.793   3.575  0.6096  1.5239  0.5761
  103SAPE   C3610518   2.238   6.837   3.684 -0.2401  0.5965 -0.0940
  103SAPE   H6X10519   2.291   6.876   3.774 -0.9688 -1.3899  1.2814
  103SAPE   H6Y10520   2.243   6.730   3.714 -0.6668 -0.3490 -3.0410
  103SAPE   C3710521   2.097   6.886   3.672 -0.2120 -0.6441  0.2927
  103SAPE   H7X10522   2.035   6.831   3.599  0.6031  0.6455 -1.4232
  103SAPE   H7Y10523   2.090   6.993   3.644  0.7450 -0.0321  2.2243
  103SAPE   C3810524   2.021   6.879   3.802 -0.8837 -0.1386  0.2233
  103SAPE   H8X10525   2.010   6.775   3.838 -2.5061  0.4476  1.4904
  103SAPE   H8Y10526   1.921   6.919   3.775 -2.0118 -2.9797 -0.1855
  103SAPE   C3910527   2.070   6.971   3.909  0.3170 -0.7687 -0.3189
  103SAPE   H9X10528   2.092   7.069   3.860  3.2908 -2.0713 -1.8011
  103SAPE   H9Y10529   2.171   6.942   3.945 -0.2766 -1.5316  0.7892
  103SAPE  C31010530   1.976   6.968   4.030 -0.0680  0.0821 -0.1835
  103SAPE  H10X10531   1.938   6.863   4.035 -0.0597  0.0466 -0.7595
  103SAPE  H10Y10532   1.886   7.028   4.007  0.1142  0.3734 -0.1421
  103SAPE  C31110533   2.037   7.014   4.166 -0.4475  0.1516 -0.1792
  103SAPE  H11X10534   2.091   7.111   4.166  0.8931 -0.3263  4.7438
  103SAPE  H11Y10535   2.108   6.935   4.198 -1.6969 -1.0208 -0.2313
  103SAPE  C31210536   1.923   7.041   4.268  0.8104  0.1087 -0.4346
  103SAPE  H12X10537   1.855   6.953   4.270 -0.8821  1.2728 -2.5293
  103SAPE  H12Y10538   1.857   7.127   4.243  1.0395  0.3579 -0.1968
  103SAPE  C31310539   1.982   7.072   4.414  0.2834  0.0962  0.0141
  103SAPE  H13X10540   2.033   7.169   4.395 -1.2567  0.7978 -0.7000
  103SAPE  H13Y10541   2.055   7.000   4.457  0.9835  0.2846 -0.8220
  103SAPE  C31410542   1.857   7.092   4.504 -0.1462  0.4971 -0.1322
  103SAPE  H14X10543   1.816   6.991   4.524 -0.8211  0.4183 -1.7633
  103SAPE  H14Y10544   1.777   7.146   4.449 -1.5960 -1.7451 -0.3764
  103SAPE  C31510545   1.892   7.157   4.633  0.1128 -0.4742  0.3500
  103SAPE  H15X10546   1.962   7.243   4.621  0.3045 -0.7915 -0.9155
  103SAPE  H15Y10547   1.931   7.079   4.702 -1.1497 -1.0638  0.4241
  103SAPE  C31610548   1.774   7.225   4.703  0.3844 -0.1902  0.3447
  103SAPE  H16X10549   1.702   7.147   4.736 -0.2456 -0.0758 -0.6992
  103SAPE  H16Y10550   1.728   7.282   4.620 -0.1917 -0.0673  0.7447
  103SAPE  C31710551   1.810   7.306   4.822  0.9722  0.7242 -0.3486
  103SAPE  H17X10552   1.869   7.395   4.793  1.5252  0.7208  0.7164
  103SAPE  H17Y10553   1.874   7.246   4.889 -1.4203 -0.3985  1.0761
  103SAPE  C31810554   1.690   7.343   4.912 -0.0727 -0.2487  0.6783
  103SAPE  H18X10555   1.630   7.251   4.931  1.1446 -0.8179  2.0146
  103SAPE  H18Y10556   1.620   7.410   4.859  2.1703  0.2961 -1.8397
  103SAPE  H18Z10557   1.732   7.387   5.005 -0.3838  0.3321  0.5459
  104SAPE     N10558   3.921   1.624   2.693 -0.1822 -0.0660  0.2162
  104SAPE   HN110559   4.023   1.612   2.710 -0.0743 -1.6264 -1.2395
  104SAPE   HN210560   3.885   1.532   2.660  1.4231 -0.5323 -0.3174
  104SAPE   HN310561   3.906   1.698   2.622  1.2980  0.6278  0.5985
  104SAPE   C1210562   3.847   1.672   2.819  0.3139  0.4830  0.4452
  104SAPE  H12A10563   3.883   1.774   2.845  2.4038  0.8774 -3.3451
  104SAPE  H12B10564   3.870   1.597   2.899  2.6824 -0.0922 -0.6882
  104SAPE   C1110565   3.694   1.685   2.801  0.0095  0.0649 -0.3596
  104SAPE  H11A10566   3.665   1.723   2.901  2.0368 -2.4507  1.3169
  104SAPE  H11B10567   3.653   1.583   2.787  0.8778 -0.1430 -1.6553
  104SAPE     P10568   3.504   1.766   2.658  0.0739  0.4024 -0.0293
  104SAPE   O1310569   3.484   1.857   2.538 -0.5098 -0.0744 -0.3270
  104SAPE   O1410570   3.452   1.626   2.640  0.3587  0.3271 -0.0773
  104SAPE   O1210571   3.666   1.767   2.692  0.2081 -0.3050  0.1522
  104SAPE   O1110572   3.449   1.829   2.798  0.1154 -0.9883 -0.5122
  104SAPE    C110573   3.425   1.968   2.798 -0.2778  0.3471  0.3080
  104SAPE    HA10574   3.357   2.010   2.720 -0.7668 -1.2368 -0.1791
  104SAPE    HB10575   3.385   1.995   2.898  0.2121 -2.5361  1.3784
  104SAPE    C210576   3.558   2.051   2.788  0.1879 -0.8179 -0.4835
  104SAPE    HS10577   3.619   2.024   2.699 -0.2791 -2.9245 -0.2149
  104SAPE   O2110578   3.642   2.019   2.901 -0.1959 -0.1266  0.3050
  104SAPE   C2110579   3.755   2.082   2.902  0.1259 -0.2696 -0.9604
  104SAPE   O2210580   3.808   2.141   2.811  0.7834 -0.5376  0.1912
  104SAPE   C2210581   3.815   2.083   3.041  0.2288 -0.1872  0.6299
  104SAPE   H2R10582   3.919   2.122   3.034  1.2254 -2.4875  1.7332
  104SAPE   H2S10583   3.765   2.153   3.112 -2.3405 -0.2271 -1.0305
  104SAPE    C310584   3.522   2.201   2.801  0.9384 -0.5765 -0.1069
  104SAPE    HX10585   3.458   2.229   2.715  0.2589 -1.0113  0.2445
  104SAPE    HY10586   3.608   2.271   2.798  0.9639 -0.6248 -0.5901
  104SAPE   O3110587   3.436   2.227   2.910 -0.7061 -0.1570 -0.3768
  104SAPE   C3110588   3.491   2.292   3.016 -0.4813 -0.3626  0.5921
  104SAPE   O3210589   3.600   2.345   3.024 -0.1266  0.1363  0.4934
  104SAPE   C3210590   3.397   2.272   3.132  0.0048  0.1490  0.6216
  104SAPE   H2X10591   3.376   2.163   3.131  0.7815 -0.0212 -1.3253
  104SAPE   H2Y10592   3.303   2.322   3.099  0.5680  2.7658  2.6133
  104SAPE   C2310593   3.816   1.942   3.113 -0.0875  0.0517 -0.0570
  104SAPE   H3R10594   3.869   1.864   3.054 -3.0426 -0.3679 -2.3577
  104SAPE   H3S10595   3.715   1.897   3.108 -0.1835  0.3245 -0.8590
  104SAPE   C2410596   3.863   1.948   3.259  0.2456 -1.0915 -1.2749
  104SAPE   H4R10597   3.797   2.018   3.315  0.5521 -1.8584  0.0977
  104SAPE   H4S10598   3.966   1.987   3.270 -0.0150  0.0234 -2.5665
  104SAPE   C2510599   3.848   1.807   3.317  0.2871 -0.1980 -0.0421
  104SAPE   H5R10600   3.844   1.727   3.241  1.3665  0.4568 -0.8027
  104SAPE   C2610601   3.849   1.782   3.446 -0.3880 -0.4768 -0.6944
  104SAPE   H6R10602   3.845   1.675   3.473  0.5195 -0.1649  0.8061
  104SAPE   C2710603   3.884   1.874   3.558  0.2033  0.1279 -0.0625
  104SAPE   H7R10604   3.885   1.982   3.529 -1.2821  0.2262  0.1722
  104SAPE   H7S10605   3.975   1.841   3.611  2.0371  2.1104 -1.7894
  104SAPE   C2810606   3.788   1.868   3.672 -0.2309 -0.2705 -0.0636
  104SAPE   H8R10607   3.711   1.791   3.661 -1.2812  0.7931 -0.3185
  104SAPE   C2910608   3.782   1.953   3.775  0.0158  0.2821  0.0050
  104SAPE   H9R10609   3.715   1.942   3.861  1.6261  0.9650  1.4036
  104SAPE  C21010610   3.888   2.065   3.786 -0.0644  0.6781 -0.3971
  104SAPE  H10R10611   3.843   2.165   3.771  2.3125  1.8910  0.1161
  104SAPE  H10S10612   3.970   2.060   3.711 -0.5138  0.6678 -0.8969
  104SAPE  C21110613   3.948   2.056   3.922  0.8456 -0.2015 -0.3984
  104SAPE  H11R10614   3.983   1.955   3.947 -0.2177 -1.5438 -3.7685
  104SAPE  C21210615   3.978   2.156   4.007 -0.0342 -0.5811  0.5893
  104SAPE  H12R10616   4.014   2.117   4.104 -0.4658 -0.6603  0.7207
  104SAPE  C21310617   3.964   2.311   3.991  0.0786 -0.0814  0.2519
  104SAPE  H13R10618   3.859   2.337   3.964 -0.6078 -1.6631  1.2343
  104SAPE  H13S10619   4.015   2.349   3.900 -0.0373  2.1233  1.0382
  104SAPE  C21410620   4.015   2.394   4.108 -0.1821 -0.4340 -0.2009
  104SAPE  H14R10621   4.094   2.467   4.086 -0.9846  0.1576 -1.1988
  104SAPE  C21510622   3.959   2.400   4.231  0.1818  0.2160 -0.0614
  104SAPE  H15R10623   4.016   2.461   4.303  1.0101 -0.5685 -0.0386
  104SAPE  C21610624   3.844   2.333   4.292  0.4914  0.4463 -0.3297
  104SAPE  H16R10625   3.785   2.271   4.221  1.6412 -2.3825  0.9961
  104SAPE  H16S10626   3.768   2.404   4.331 -0.0160  0.0132 -0.4988
  104SAPE  C21710627   3.891   2.247   4.413  0.1877  0.2710  0.3926
  104SAPE  H17R10628   3.950   2.158   4.384 -1.9724 -0.3912 -2.3162
  104SAPE  H17S10629   3.797   2.207   4.457 -0.3854  1.3511  0.1874
  104SAPE  C21810630   3.938   2.329   4.534 -0.1768  0.0589 -0.3479
  104SAPE  H18R10631   3.855   2.398   4.559 -1.5003 -0.8588 -2.0392
  104SAPE  H18S10632   4.037   2.372   4.508  0.5715 -1.6693 -0.5062
  104SAPE  C21910633   3.965   2.236   4.656  0.0490  0.4003  0.1025
  104SAPE  H19R10634   4.040   2.158   4.631  0.5438  0.7223  0.5650
  104SAPE  H19S10635   3.874   2.178   4.678 -0.6616  0.6769 -1.8591
  104SAPE  C22010636   4.011   2.302   4.790 -0.5025  0.5147 -0.3948
  104SAPE  H20R10637   4.115   2.339   4.783  0.1494 -1.1102  0.0711
  104SAPE  H20S10638   4.016   2.223   4.869 -1.4936  1.4210  0.6209
  104SAPE  H20T10639   3.948   2.390   4.817  1.7544  1.9172  0.6110
  104SAPE   C3310640   3.432   2.333   3.264 -0.4332  0.6880  0.1300
  104SAPE   H3X10641   3.348   2.319   3.336 -0.7585 -0.2876 -0.4224
  104SAPE   H3Y10642   3.442   2.444   3.253 -0.0777  0.8694  2.0575
  104SAPE   C3410643   3.555   2.264   3.326 -0.2042 -0.4665  0.1554
  104SAPE   H4X10644   3.644   2.267   3.259  1.0835  0.5239  1.8152
  104SAPE   H4Y10645   3.540   2.157   3.352  1.8870 -0.7200  0.5759
  104SAPE   C3510646   3.579   2.325   3.463 -0.4511 -0.0170 -0.6129
  104SAPE   H5X10647   3.585   2.436   3.460  0.9267  0.0805  2.3202
  104SAPE   H5Y10648   3.682   2.299   3.497 -1.5363 -0.9038  2.2894
  104SAPE   C3610649   3.484   2.275   3.570 -0.2820 -0.1655 -0.2234
  104SAPE   H6X10650   3.485   2.165   3.560  1.9970 -0.3348  1.1965
  104SAPE   H6Y10651   3.376   2.297   3.551 -0.0172 -0.3475 -2.1583
  104SAPE   C3710652   3.537   2.315   3.711 -0.3439 -0.2041  0.4762
  104SAPE   H7X10653   3.553   2.425   3.708 -0.5119 -0.1833 -2.6809
  104SAPE   H7Y10654   3.635   2.266   3.730 -0.6094 -1.4077 -1.0852
  104SAPE   C3810655   3.442   2.259   3.814 -0.0171  1.1494  0.0891
  104SAPE   H8X10656   3.454   2.149   3.820  1.4435  1.3066  0.4537
  104SAPE   H8Y10657   3.333   2.278   3.803 -0.5583 -1.3125  0.4647
  104SAPE   C3910658   3.486   2.297   3.964 -0.7838 -0.2560  0.4064
  104SAPE   H9X10659   3.448   2.399   3.984 -0.9763 -0.2675  0.0992
  104SAPE   H9Y10660   3.597   2.294   3.972 -0.7967 -1.6894  0.2779
  104SAPE  C31010661   3.426   2.201   4.072  0.8169 -0.1373  0.9593
  104SAPE  H10X10662   3.323   2.164   4.051  0.5846  0.0249  1.7647
  104SAPE  H10Y10663   3.418   2.267   4.161 -3.0571  1.3868 -0.2814
  104SAPE  C31110664   3.509   2.074   4.099  0.2986 -0.1923  0.9161
  104SAPE  H11X10665   3.618   2.095   4.089 -0.3190  2.5764 -1.4753
  104SAPE  H11Y10666   3.496   2.012   4.008  0.9355  1.5676 -0.4281
  104SAPE  C31210667   3.465   2.004   4.224 -0.4073 -0.1755  0.7415
  104SAPE  H12X10668   3.515   1.905   4.229  1.1090  0.5644  0.9701
  104SAPE  H12Y10669   3.355   1.986   4.219 -0.3748  0.0668 -1.8164
  104SAPE  C31310670   3.510   2.079   4.355  0.2190  0.4258  0.1313
  104SAPE  H13X10671   3.456   2.175   4.363 -1.3356 -0.4287  0.3895
  104SAPE  H13Y10672   3.620   2.089   4.342  0.3151 -0.8893 -0.2174
  104SAPE  C31410673   3.469   2.018   4.490 -0.0287  0.1179  0.3884
  104SAPE  H14X10674   3.519   1.921   4.513 -3.0522 -1.9301 -0.9840
  104SAPE  H14Y10675   3.367   1.974   4.496  0.0427 -0.2369 -0.8094
  104SAPE  C31510676   3.490   2.119   4.605 -0.1732  0.3796 -0.2353
  104SAPE  H15X10677   3.442   2.215   4.575  0.8779  1.5691  1.6381
  104SAPE  H15Y10678   3.599   2.136   4.618 -0.5226  1.1393  2.2244
  104SAPE  C31610679   3.434   2.084   4.743  0.3394 -0.4926 -0.0658
  104SAPE  H16X10680   3.352   2.011   4.724 -0.0807  0.3729 -1.6807
  104SAPE  H16Y10681   3.377   2.173   4.779 -0.7654 -0.5850 -1.5197
  104SAPE  C31710682   3.534   2.035   4.843 -0.1197  1.0844 -0.0332
  104SAPE  H17X10683   3.603   2.122   4.853  0.2488  1.0782 -2.0744
  104SAPE  H17Y10684   3.581   1.940   4.812 -0.2420  0.6762  0.9894
  104SAPE  C31810685   3.479   2.005   4.985 -0.6778  0.4445 -0.5356
  104SAPE  H18X10686   3.461   2.101   5.037 -1.4676 -0.6254  1.2760
  104SAPE  H18Y10687   3.545   1.942   5.048 -2.8975 -0.6646  0.8155
  104SAPE  H18Z10688   3.386   1.945   4.974 -0.8204  0.8564 -1.6349
  105SAPE     N10689   6.811   4.942   2.695  0.6993  0.1957 -0.0721
  105SAPE   HN110690   6.896   4.997   2.722 -0.8477  1.8654  1.7620
  105SAPE   HN210691   6.844   4.856   2.649  2.6733  1.8930 -2.0432
  105SAPE   HN310692   6.763   4.991   2.617  0.5895 -0.3496 -0.3469
  105SAPE   C1210693   6.718   4.922   2.813 -0.5832 -1.0078  0.4782
  105SAPE  H12A10694   6.732   5.015   2.873  3.3028  0.2765 -2.0562
  105SAPE  H12B10695   6.761   4.832   2.862  2.3451  0.2655  0.4833
  105SAPE   C1110696   6.575   4.904   2.756  0.3417 -0.0407 -0.2700
  105SAPE  H11A10697   6.547   5.000   2.709  2.0262  0.7323  0.2222
  105SAPE  H11B10698   6.506   4.883   2.840 -1.1835  2.3402 -0.8436
  105SAPE     P10699   6.472   4.788   2.544 -0.0197  0.1928  0.0391
  105SAPE   O1310700   6.516   4.879   2.434  0.0491  0.1609 -0.1861
  105SAPE   O1410701   6.453   4.646   2.517  0.2903  0.6534 -0.2614
  105SAPE   O1210702   6.571   4.798   2.665 -0.2581 -0.2534 -0.1002
  105SAPE   O1110703   6.341   4.859   2.603 -0.2496 -0.2207  0.2180
  105SAPE    C110704   6.262   4.772   2.681  0.0071 -0.4084  0.8576
  105SAPE    HA10705   6.220   4.687   2.623  3.3369 -1.5537 -0.1013
  105SAPE    HB10706   6.318   4.722   2.763  0.0505 -2.2749 -0.2468
  105SAPE    C210707   6.147   4.854   2.756  1.1766  0.4926 -0.5019
  105SAPE    HS10708   6.090   4.907   2.677 -2.3822 -0.1377  1.3941
  105SAPE   O2110709   6.210   4.939   2.852  0.1352 -0.2226 -0.0227
  105SAPE   C2110710   6.132   5.020   2.905  0.3802 -0.0579 -0.4070
  105SAPE   O2210711   6.013   5.029   2.880  0.4093 -0.2984 -0.6074
  105SAPE   C2210712   6.203   5.106   3.013  0.0193  0.2417 -0.2371
  105SAPE   H2R10713   6.214   5.204   2.962  1.0466  1.4621  2.1783
  105SAPE   H2S10714   6.125   5.115   3.092  1.8194  2.8525  1.3859
  105SAPE    C310715   6.054   4.741   2.823  0.2698  0.2851 -0.7868
  105SAPE    HX10716   6.003   4.691   2.737  0.0280  0.1162 -0.5473
  105SAPE    HY10717   5.975   4.785   2.888 -0.6422 -2.9793  0.4883
  105SAPE   O3110718   6.123   4.646   2.898 -0.1568  0.2883  0.4817
  105SAPE   C3110719   6.154   4.673   3.026 -0.0094  0.1132 -0.0834
  105SAPE   O3210720   6.133   4.771   3.085  0.8006 -0.3548  0.0805
  105SAPE   C3210721   6.220   4.547   3.086  0.5804 -0.3881 -0.3798
  105SAPE   H2X10722   6.321   4.578   3.122 -0.1121  0.9921  0.4477
  105SAPE   H2Y10723   6.218   4.466   3.010  0.0532 -0.6383 -0.0997
  105SAPE   C2310724   6.331   5.054   3.069  0.9371  0.2210  0.2080
  105SAPE   H3R10725   6.404   5.048   2.986  0.1963  0.0270 -0.4363
  105SAPE   H3S10726   6.320   4.952   3.111 -1.3676 -0.1757 -1.2162
  105SAPE   C2410727   6.400   5.134   3.170  0.2102  0.4414  0.4880
  105SAPE   H4R10728   6.428   5.232   3.126 -1.6897  1.1446  0.7474
  105SAPE   H4S10729   6.499   5.088   3.195 -0.6723 -0.4297  2.6257
  105SAPE   C2510730   6.323   5.149   3.295 -0.9064 -1.1216  0.1697
  105SAPE   H5R10731   6.251   5.232   3.301  1.6887  1.2868  0.2627
  105SAPE   C2610732   6.343   5.076   3.404  0.1678 -0.3504  0.0791
  105SAPE   H6R10733   6.274   5.089   3.488  0.1402 -1.9699  0.3218
  105SAPE   C2710734   6.437   4.956   3.418  0.5504 -0.3291 -0.1287
  105SAPE   H7R10735   6.483   4.963   3.519 -0.1199 -0.6147  0.2013
  105SAPE   H7S10736   6.517   4.955   3.340 -0.9848  3.6251 -2.0357
  105SAPE   C2810737   6.343   4.839   3.419 -0.7583  0.2679 -0.9674
  105SAPE   H8R10738   6.275   4.845   3.333  0.3480  1.4925 -1.7996
  105SAPE   C2910739   6.344   4.731   3.500  0.1839  0.6052  0.4426
  105SAPE   H9R10740   6.262   4.659   3.488 -0.2590  1.3978 -1.6572
  105SAPE  C21010741   6.442   4.711   3.620 -0.7376  0.1560  0.2461
  105SAPE  H10R10742   6.383   4.668   3.703 -0.1960 -4.0675 -1.3146
  105SAPE  H10S10743   6.477   4.812   3.652 -1.3105  0.6573 -0.6411
  105SAPE  C21110744   6.572   4.634   3.594 -0.2625 -0.1309  0.3459
  105SAPE  H11R10745   6.588   4.557   3.517 -0.6492  0.9524 -0.8531
  105SAPE  C21210746   6.686   4.661   3.660 -0.1918  0.3489 -0.6045
  105SAPE  H12R10747   6.782   4.625   3.620 -0.5174 -1.2958  0.0120
  105SAPE  C21310748   6.699   4.759   3.787 -0.4398  0.6355  0.1908
  105SAPE  H13R10749   6.600   4.792   3.825  0.6874  1.6016  2.5515
  105SAPE  H13S10750   6.758   4.846   3.750 -0.3632  0.5987  0.2250
  105SAPE  C21410751   6.785   4.697   3.893  0.0729 -0.4925  0.2870
  105SAPE  H14R10752   6.892   4.711   3.875 -0.0564  1.3592  0.7255
  105SAPE  C21510753   6.753   4.658   4.017 -0.3089 -0.0898 -0.2432
  105SAPE  H15R10754   6.843   4.619   4.068  0.1264  2.8528  1.4150
  105SAPE  C21610755   6.618   4.646   4.084 -0.4029 -0.0898  0.0958
  105SAPE  H16R10756   6.590   4.542   4.056 -1.6382  0.4989 -0.9708
  105SAPE  H16S10757   6.547   4.718   4.039  0.7402 -0.6061 -2.7779
  105SAPE  C21710758   6.645   4.644   4.230  0.2083  0.0578  0.6053
  105SAPE  H17R10759   6.721   4.724   4.247  1.0620 -0.2610 -1.4196
  105SAPE  H17S10760   6.684   4.545   4.260 -1.0263 -0.2012  1.4362
  105SAPE  C21810761   6.527   4.688   4.312  0.2612  0.5850 -0.1316
  105SAPE  H18R10762   6.435   4.635   4.280  0.0174 -0.2590  1.7623
  105SAPE  H18S10763   6.500   4.795   4.300  0.4115  0.7706  1.0367
  105SAPE  C21910764   6.558   4.660   4.465 -0.3122 -0.2639 -0.4293
  105SAPE  H19R10765   6.561   4.550   4.484 -1.4973 -0.4255 -1.0782
  105SAPE  H19S10766   6.464   4.696   4.513  0.6473  0.3861  1.0371
  105SAPE  C22010767   6.679   4.732   4.525  0.7563 -0.1723 -0.4486
  105SAPE  H20R10768   6.771   4.677   4.492  0.3899 -2.0046  1.3896
  105SAPE  H20S10769   6.683   4.758   4.632 -0.3435 -1.3957 -0.0865
  105SAPE  H20T10770   6.691   4.833   4.481  0.3321  1.7785  3.4999
  105SAPE   C3310771   6.149   4.502   3.215 -0.3605  0.4748 -0.2673
  105SAPE   H3X10772   6.044   4.481   3.185 -1.7132  2.4292  2.5419
  105SAPE   H3Y10773   6.152   4.582   3.292  0.8927  1.8940 -1.7095
  105SAPE   C3410774   6.204   4.379   3.293 -0.9114 -0.1471 -0.0473
  105SAPE   H4X10775   6.166   4.281   3.258 -3.7018 -0.3734  3.0830
  105SAPE   H4Y10776   6.169   4.386   3.398  3.4010 -1.2954  1.6548
  105SAPE   C3510777   6.358   4.370   3.308  0.4387  0.1657 -0.2556
  105SAPE   H5X10778   6.383   4.446   3.385 -1.2349  0.1224  0.3750
  105SAPE   H5Y10779   6.408   4.401   3.215  0.3666  0.5992 -0.1518
  105SAPE   C3610780   6.416   4.235   3.356 -0.0728 -0.2032 -0.0308
  105SAPE   H6X10781   6.526   4.240   3.348 -0.1651  0.0584 -1.4303
  105SAPE   H6Y10782   6.387   4.146   3.295  1.8681 -1.0270  0.1761
  105SAPE   C3710783   6.383   4.203   3.506  0.4066 -0.0369  0.1556
  105SAPE   H7X10784   6.425   4.104   3.534  0.1196  0.1299  1.2154
  105SAPE   H7Y10785   6.273   4.210   3.518  0.6151  0.6639  1.9276
  105SAPE   C3810786   6.434   4.306   3.610 -0.4999  0.6161 -1.0246
  105SAPE   H8X10787   6.394   4.407   3.587  0.0801  0.8020 -1.2485
  105SAPE   H8Y10788   6.544   4.320   3.617 -0.8333  2.6473  1.6815
  105SAPE   C3910789   6.388   4.267   3.750  0.4940  0.2966  0.5037
  105SAPE   H9X10790   6.418   4.167   3.790 -1.5338 -0.3325  0.6017
  105SAPE   H9Y10791   6.278   4.263   3.735  0.6847 -0.7960 -0.7495
  105SAPE  C31010792   6.419   4.373   3.853  0.8729  1.0664 -0.1858
  105SAPE  H10X10793   6.417   4.478   3.816 -0.0034  1.4308  0.8611
  105SAPE  H10Y10794   6.518   4.360   3.902  1.6268 -0.6595 -2.0152
  105SAPE  C31110795   6.302   4.360   3.958  0.2538 -1.3054  0.5551
  105SAPE  H11X10796   6.211   4.361   3.894  1.7000 -0.1366 -1.6160
  105SAPE  H11Y10797   6.294   4.458   4.008  0.9469 -0.8184 -0.2753
  105SAPE  C31210798   6.317   4.244   4.059  0.0541 -0.3153 -0.0799
  105SAPE  H12X10799   6.372   4.168   3.999 -0.1251  0.2110 -0.9250
  105SAPE  H12Y10800   6.215   4.215   4.091 -0.3222 -0.3672 -1.2823
  105SAPE  C31310801   6.393   4.297   4.184 -0.4199  0.3167  0.7002
  105SAPE  H13X10802   6.324   4.362   4.242 -1.0878  1.5425 -1.3805
  105SAPE  H13Y10803   6.480   4.358   4.152  0.3111 -0.7627  0.5697
  105SAPE  C31410804   6.460   4.187   4.268  0.0857 -0.2521 -0.1224
  105SAPE  H14X10805   6.542   4.224   4.334 -0.7329 -0.2327  0.9004
  105SAPE  H14Y10806   6.500   4.102   4.207 -0.2917 -1.6021  1.4481
  105SAPE  C31510807   6.356   4.127   4.365 -0.1294  0.5216  0.0265
  105SAPE  H15X10808   6.263   4.087   4.319  1.4825 -1.1732 -1.9999
  105SAPE  H15Y10809   6.324   4.219   4.418 -1.5144  0.0447  0.0713
  105SAPE  C31610810   6.419   4.035   4.466  0.7155 -0.2601 -0.7285
  105SAPE  H16X10811   6.502   4.092   4.513  0.0238 -0.2903  0.5560
  105SAPE  H16Y10812   6.460   3.939   4.427 -0.4269 -1.1277  0.1343
  105SAPE  C31710813   6.312   4.013   4.565  0.1397  0.1332 -0.8700
  105SAPE  H17X10814   6.220   3.971   4.519 -1.9982 -0.5855  3.5214
  105SAPE  H17Y10815   6.279   4.116   4.590 -1.2729 -0.2923 -0.8706
  105SAPE  C31810816   6.353   3.945   4.695  0.0372  0.4631  0.0333
  105SAPE  H18X10817   6.333   4.013   4.781  0.5824  0.1485  0.4200
  105SAPE  H18Y10818   6.464   3.937   4.692 -0.0449 -0.9942  0.1542
  105SAPE  H18Z10819   6.298   3.852   4.722  0.7310  0.3087  0.9705
  106SAPE     N10820   4.696   1.449   2.698 -0.0505  0.1785 -0.3005
  106SAPE   HN110821   4.765   1.407   2.631 -0.3982 -0.6139 -0.1783
  106SAPE   HN210822   4.754   1.475   2.780  1.4650 -3.0138 -0.2121
  106SAPE   HN310823   4.640   1.367   2.728  0.4593 -0.2242 -0.4353
  106SAPE   C1210824   4.608   1.561   2.644 -0.3451  0.5909  0.4398
  106SAPE  H12A10825   4.651   1.593   2.547  0.1251  2.7230  1.2926
  106SAPE  H12B10826   4.613   1.641   2.721 -0.6399  1.1366 -0.1011
  106SAPE   C1110827   4.466   1.504   2.627 -0.5131 -0.9194 -0.3101
  106SAPE  H11A10828   4.470   1.419   2.556  0.1056 -0.4365 -0.8714
  106SAPE  H11B10829   4.402   1.580   2.575  0.4943  0.9006  0.9934
  106SAPE     P10830   4.266   1.414   2.788  0.0593 -0.1285 -0.1848
  106SAPE   O1310831   4.173   1.505   2.716 -0.1066 -0.1667 -0.3994
  106SAPE   O1410832   4.250   1.269   2.773  0.2630  0.3068 -0.4787
  106SAPE   O1210833   4.418   1.461   2.760  0.6188  0.0787  0.0786
  106SAPE   O1110834   4.248   1.452   2.940  0.1286  0.7425 -0.2334
  106SAPE    C110835   4.355   1.523   3.012 -0.6400 -0.8304 -0.0806
  106SAPE    HA10836   4.455   1.483   2.989 -1.1693 -2.0479 -0.3504
  106SAPE    HB10837   4.341   1.632   2.994  0.1821 -0.7034  0.0243
  106SAPE    C210838   4.335   1.509   3.165  0.2163 -0.1050  0.1624
  106SAPE    HS10839   4.430   1.543   3.211  0.5313 -0.0249 -0.5363
  106SAPE   O2110840   4.310   1.371   3.194 -0.0006  0.9322  0.5903
  106SAPE   C2110841   4.408   1.282   3.166 -0.3489 -0.5272 -0.1735
  106SAPE   O2210842   4.513   1.301   3.108 -0.0614  0.2232  0.1971
  106SAPE   C2210843   4.365   1.146   3.214  0.1962  0.2923  0.2212
  106SAPE   H2R10844   4.336   1.149   3.321 -1.0124 -2.3796  0.0618
  106SAPE   H2S10845   4.274   1.128   3.152  1.1041  1.5316 -1.5328
  106SAPE    C310846   4.214   1.592   3.228 -0.4394 -0.4664 -0.5588
  106SAPE    HX10847   4.126   1.545   3.180 -0.9992 -0.0084  0.0109
  106SAPE    HY10848   4.210   1.698   3.194 -0.9666 -0.5605 -0.7908
  106SAPE   O3110849   4.209   1.583   3.375  1.0295 -0.0871  0.6431
  106SAPE   C3110850   4.286   1.670   3.437  0.6204  0.0844 -0.4078
  106SAPE   O3210851   4.382   1.735   3.394  0.2726  0.1976 -0.1268
  106SAPE   C3210852   4.258   1.653   3.586 -0.1071 -0.0608  0.8794
  106SAPE   H2X10853   4.224   1.549   3.602  1.8571 -0.8183  0.4144
  106SAPE   H2Y10854   4.169   1.716   3.604  0.7774  1.1836  1.0909
  106SAPE   C2310855   4.473   1.032   3.189  0.2093 -0.1457 -0.1079
  106SAPE   H3R10856   4.570   1.070   3.228 -0.6832  1.3846  0.7309
  106SAPE   H3S10857   4.488   1.024   3.079 -0.7827  0.7017 -0.3180
  106SAPE   C2410858   4.440   0.888   3.235  0.1916 -0.3988 -0.5147
  106SAPE   H4R10859   4.354   0.847   3.176 -2.9642  4.6494 -0.0203
  106SAPE   H4S10860   4.413   0.891   3.343 -1.0592  1.6404 -0.8220
  106SAPE   C2510861   4.569   0.804   3.227 -0.1683  0.3988  0.4172
  106SAPE   H5R10862   4.580   0.747   3.134  0.5496 -0.0840  0.7897
  106SAPE   C2610863   4.656   0.775   3.316 -0.4593 -0.4175 -0.1641
  106SAPE   H6R10864   4.742   0.714   3.282 -0.7880 -0.1653 -1.5016
  106SAPE   C2710865   4.662   0.832   3.451  0.3255  0.0200 -0.0816
  106SAPE   H7R10866   4.655   0.943   3.448  2.5167  0.1769 -2.5702
  106SAPE   H7S10867   4.764   0.818   3.492  0.2894 -0.3186 -0.1080
  106SAPE   C2810868   4.572   0.762   3.552 -0.0974 -0.4776  1.6063
  106SAPE   H8R10869   4.592   0.654   3.564  1.8501 -0.2962  0.3460
  106SAPE   C2910870   4.488   0.823   3.637  0.1138 -0.6603  0.0570
  106SAPE   H9R10871   4.438   0.759   3.712 -1.2546  0.3371  0.0364
  106SAPE  C21010872   4.467   0.973   3.646 -0.6758 -0.1886  0.2761
  106SAPE  H10R10873   4.525   1.031   3.571 -1.4804 -0.0315 -0.2444
  106SAPE  H10S10874   4.497   1.012   3.746 -2.3225 -1.0158  1.1386
  106SAPE  C21110875   4.325   1.018   3.620 -0.3420 -0.0793 -0.5956
  106SAPE  H11R10876   4.278   1.000   3.522  0.2546  3.6915 -1.7301
  106SAPE  C21210877   4.249   1.082   3.717  0.1611  0.0454  0.7726
  106SAPE  H12R10878   4.148   1.102   3.678  0.7079 -2.5157 -2.3770
  106SAPE  C21310879   4.288   1.108   3.862  0.1255 -0.0815 -0.5052
  106SAPE  H13R10880   4.382   1.167   3.869 -0.8174  1.5746 -1.0971
  106SAPE  H13S10881   4.299   1.005   3.902 -1.4672 -0.3288 -0.6499
  106SAPE  C21410882   4.176   1.172   3.946 -0.4057 -0.2836  0.1385
  106SAPE  H14R10883   4.094   1.213   3.885 -0.8102 -0.5248  0.5205
  106SAPE  C21510884   4.186   1.215   4.072 -0.1521 -1.2768 -0.1293
  106SAPE  H15R10885   4.107   1.264   4.129  2.7564 -0.4122  3.5546
  106SAPE  C21610886   4.302   1.186   4.164  0.5756  0.2362  0.3115
  106SAPE  H16R10887   4.396   1.134   4.136  1.3672  1.8057 -0.0289
  106SAPE  H16S10888   4.261   1.115   4.238 -0.7948  1.2099  0.5216
  106SAPE  C21710889   4.349   1.305   4.250 -0.3198  0.4897  0.0329
  106SAPE  H17R10890   4.267   1.353   4.308 -0.2429  0.3196  0.2820
  106SAPE  H17S10891   4.384   1.365   4.163 -0.9412  0.5672 -0.1677
  106SAPE  C21810892   4.475   1.263   4.326 -0.5212  0.3464 -0.4944
  106SAPE  H18R10893   4.550   1.231   4.251 -0.4867 -1.9365  0.4491
  106SAPE  H18S10894   4.446   1.175   4.388  0.8638 -0.9483 -1.6162
  106SAPE  C21910895   4.525   1.388   4.407  0.5077 -0.1604  0.7332
  106SAPE  H19R10896   4.442   1.428   4.469 -1.4097 -0.7415 -1.3496
  106SAPE  H19S10897   4.534   1.475   4.339 -0.7079  0.2194  1.0332
  106SAPE  C22010898   4.659   1.377   4.479  0.3474  0.4902  0.3444
  106SAPE  H20R10899   4.743   1.349   4.412 -1.2750  0.2499 -1.6765
  106SAPE  H20S10900   4.649   1.291   4.549 -1.2633 -0.5152 -1.0673
  106SAPE  H20T10901   4.685   1.471   4.533 -2.5225  0.9299  1.1169
  106SAPE   C3310902   4.373   1.696   3.682 -0.1810 -0.1731 -0.0226
  106SAPE   H3X10903   4.416   1.795   3.657  4.0479 -2.0211 -0.9393
  106SAPE   H3Y10904   4.466   1.636   3.681  0.4314  0.7604 -0.3700
  106SAPE   C3410905   4.312   1.689   3.823  0.3699 -0.0201 -0.0220
  106SAPE   H4X10906   4.259   1.593   3.839  0.2789  0.1342  0.6282
  106SAPE   H4Y10907   4.229   1.763   3.824 -2.0288 -2.5170 -0.9945
  106SAPE   C3510908   4.423   1.710   3.929  0.1368 -0.0111  0.7032
  106SAPE   H5X10909   4.475   1.806   3.906 -0.4434  0.2103  0.3054
  106SAPE   H5Y10910   4.493   1.626   3.909  1.9620  1.4813  0.4413
  106SAPE   C3610911   4.372   1.719   4.077 -0.2582  0.3343  0.3554
  106SAPE   H6X10912   4.470   1.733   4.127  0.8929 -3.2107 -0.5543
  106SAPE   H6Y10913   4.335   1.617   4.103 -0.5665  0.1763 -0.6472
  106SAPE   C3710914   4.269   1.821   4.092  0.5216  0.4930 -0.0043
  106SAPE   H7X10915   4.176   1.805   4.033  1.1702 -1.5613 -0.5434
  106SAPE   H7Y10916   4.304   1.914   4.042 -0.6728  0.8467 -0.2045
  106SAPE   C3810917   4.222   1.850   4.236 -0.0105  0.2353 -0.8336
  106SAPE   H8X10918   4.185   1.759   4.288  0.6950  0.6723  0.4756
  106SAPE   H8Y10919   4.136   1.919   4.226 -0.0626  0.4593  0.8792
  106SAPE   C3910920   4.329   1.928   4.316 -0.6964  0.0896 -0.6799
  106SAPE   H9X10921   4.369   2.015   4.260 -0.6745 -0.4996 -1.6111
  106SAPE   H9Y10922   4.418   1.863   4.322 -0.9403 -0.5153 -2.8533
  106SAPE  C31010923   4.284   1.970   4.452 -0.6969 -0.5076  0.3134
  106SAPE  H10X10924   4.213   1.894   4.493 -0.1415 -1.7116 -0.8878
  106SAPE  H10Y10925   4.219   2.060   4.445 -0.4669 -0.3571  0.1012
  106SAPE  C31110926   4.403   1.997   4.557 -0.2689  0.1498 -0.1392
  106SAPE  H11X10927   4.471   2.075   4.515  0.1682 -0.6353 -0.9375
  106SAPE  H11Y10928   4.468   1.908   4.570  0.0518  0.4808  0.5982
  106SAPE  C31210929   4.354   2.048   4.696  0.4042  0.1554 -0.0796
  106SAPE  H12X10930   4.289   1.972   4.746  1.3658 -1.2813 -0.9278
  106SAPE  H12Y10931   4.296   2.142   4.686  0.0946 -0.1261 -1.0944
  106SAPE  C31310932   4.469   2.091   4.783 -0.5395 -0.7682  0.0222
  106SAPE  H13X10933   4.515   2.184   4.743 -1.7998  0.7625  1.9423
  106SAPE  H13Y10934   4.538   2.005   4.795  0.2853 -0.3912 -1.7030
  106SAPE  C31410935   4.433   2.148   4.918 -0.4531  0.0471 -0.3937
  106SAPE  H14X10936   4.371   2.239   4.903  0.6302  1.3006  2.0488
  106SAPE  H14Y10937   4.519   2.186   4.976 -2.5402  0.1178  2.9420
  106SAPE  C31510938   4.365   2.036   5.007  0.1016  0.7295  0.4101
  106SAPE  H15X10939   4.433   1.949   5.020  0.4279  1.0615  0.9440
  106SAPE  H15Y10940   4.267   1.999   4.969  0.0041 -0.9017  2.1172
  106SAPE  C31610941   4.325   2.091   5.146  0.2131  0.3731 -0.2497
  106SAPE  H16X10942   4.288   2.006   5.208  0.2588  0.6263  0.1322
  106SAPE  H16Y10943   4.255   2.176   5.133  0.2363  0.2741 -1.0645
  106SAPE  C31710944   4.442   2.148   5.228  0.1819  0.2334  0.4919
  106SAPE  H17X10945   4.487   2.225   5.161 -0.1274 -2.7842 -3.6284
  106SAPE  H17Y10946   4.524   2.073   5.237  2.6767  2.9564  2.4714
  106SAPE  C31810947   4.397   2.192   5.365  0.1468  0.4351 -0.2367
  106SAPE  H18X10948   4.482   2.225   5.428 -0.8801 -0.0540  1.4815
  106SAPE  H18Y10949   4.348   2.103   5.410 -0.9601  0.8276 -0.6148
  106SAPE  H18Z10950   4.316   2.268   5.375 -1.2862 -0.8269 -1.5689
  107SAPE     N10951   4.993   4.608   2.064 -0.3686 -0.2663  0.4749
  107SAPE   HN110952   5.031   4.564   2.150 -0.1492  1.4728  1.3018
  107SAPE   HN210953   5.050   4.572   1.984 -2.3938 -1.8309 -0.3624
  107SAPE   HN310954   5.025   4.707   2.069  1.8919 -0.8932 -0.3933
  107SAPE   C1210955   4.849   4.578   2.077  0.0448  0.0873  0.7195
  107SAPE  H12A10956   4.840   4.468   2.086  0.4727 -0.0158 -0.0629
  107SAPE  H12B10957   4.804   4.608   1.980  1.4475  1.5340  0.4551
  107SAPE   C1110958   4.796   4.656   2.184  0.3530  0.0914 -0.3861
  107SAPE  H11A10959   4.829   4.612   2.280 -2.7123  1.8823  1.6772
  107SAPE  H11B10960   4.685   4.654   2.177  0.3436  2.1565 -1.6268
  107SAPE     P10961   4.757   4.922   2.198 -0.3483  0.3016 -0.0272
  107SAPE   O1310962   4.847   5.025   2.253  0.1971 -0.9352 -0.1077
  107SAPE   O1410963   4.689   4.953   2.071  0.2344 -0.3344  0.2829
  107SAPE   O1210964   4.842   4.789   2.190 -0.0405  0.3908  0.0811
  107SAPE   O1110965   4.645   4.891   2.298 -0.3906  0.5661 -0.2961
  107SAPE    C110966   4.590   4.995   2.374 -0.0171 -0.5119  0.2810
  107SAPE    HA10967   4.585   5.093   2.322 -1.3684 -1.7007 -1.9789
  107SAPE    HB10968   4.486   4.966   2.399 -0.0059  0.8503  2.1284
  107SAPE    C210969   4.654   5.017   2.513  0.3753  0.3466  0.1072
  107SAPE    HS10970   4.759   5.041   2.488  0.3337  0.6185  0.1906
  107SAPE   O2110971   4.650   4.889   2.592 -0.2689  0.3599 -0.9431
  107SAPE   C2110972   4.735   4.888   2.692  0.0359  0.2741 -0.1316
  107SAPE   O2210973   4.838   4.954   2.698  0.4140  0.2857 -0.3024
  107SAPE   C2210974   4.693   4.785   2.806  0.4195  0.4194 -0.1212
  107SAPE   H2R10975   4.645   4.855   2.878  0.7532  0.9666 -0.4199
  107SAPE   H2S10976   4.616   4.721   2.759  0.2226  0.5413  0.0318
  107SAPE    C310977   4.589   5.132   2.591 -0.1603 -0.5301 -0.4654
  107SAPE    HX10978   4.478   5.126   2.593 -0.3465  1.9077  0.3408
  107SAPE    HY10979   4.616   5.219   2.527  1.3502 -0.4567  0.2351
  107SAPE   O3110980   4.634   5.158   2.724  0.4561 -0.6433 -0.8888
  107SAPE   C3110981   4.740   5.246   2.748 -0.5883  0.3614  0.7514
  107SAPE   O3210982   4.810   5.293   2.659 -0.0338 -0.0467 -0.3119
  107SAPE   C3210983   4.756   5.263   2.897 -0.1603  0.0135  0.3712
  107SAPE   H2X10984   4.671   5.225   2.957  0.7100  0.3690  1.8878
  107SAPE   H2Y10985   4.784   5.370   2.911 -0.0984  0.1887 -0.9731
  107SAPE   C2310986   4.800   4.702   2.876  0.4100  0.5485  0.8251
  107SAPE   H3R10987   4.882   4.769   2.911 -1.2253  2.6285  0.9084
  107SAPE   H3S10988   4.841   4.628   2.805 -2.5756 -2.7946  2.2922
  107SAPE   C2410989   4.757   4.616   3.000 -0.1370 -0.1863  0.4536
  107SAPE   H4R10990   4.716   4.686   3.076 -1.3954 -2.3992  1.9610
  107SAPE   H4S10991   4.851   4.578   3.047  0.7889  0.5580 -0.7403
  107SAPE   C2510992   4.656   4.504   2.973 -0.3235  0.1332  0.5809
  107SAPE   H5R10993   4.697   4.417   2.920  2.4234 -0.3493  3.1572
  107SAPE   C2610994   4.516   4.507   2.995  0.1413  1.1525 -0.2784
  107SAPE   H6R10995   4.456   4.421   2.963  0.8256  0.9574 -1.0582
  107SAPE   C2710996   4.446   4.628   3.065  0.5975 -0.0337  1.1124
  107SAPE   H7R10997   4.507   4.690   3.133 -1.6998 -0.0596  3.3470
  107SAPE   H7S10998   4.362   4.590   3.127 -0.4375 -0.6023 -0.5595
  107SAPE   C2810999   4.374   4.717   2.961 -0.0040 -0.2122 -0.2242
  107SAPE   H8R11000   4.368   4.684   2.856  0.2585  0.9322 -0.6090
  107SAPE   C2911001   4.316   4.839   2.987 -0.6015  0.2520  0.5548
  107SAPE   H9R11002   4.273   4.893   2.901 -2.3849 -1.3146  0.4017
  107SAPE  C21011003   4.308   4.912   3.118 -0.0362 -0.1045  0.0224
  107SAPE  H10R11004   4.328   4.838   3.199  1.1158  1.6196  1.4014
  107SAPE  H10S11005   4.208   4.958   3.134 -0.0825 -0.8987  2.5446
  107SAPE  C21111006   4.410   5.024   3.138 -0.0371  0.3037 -0.1738
  107SAPE  H11R11007   4.485   5.023   3.057  1.9228 -0.3229  1.5654
  107SAPE  C21211008   4.416   5.105   3.245  0.0582 -0.2856  0.4472
  107SAPE  H12R11009   4.500   5.176   3.248  1.2941 -1.6509 -0.4374
  107SAPE  C21311010   4.325   5.099   3.366  0.0283  0.5913 -0.2333
  107SAPE  H13R11011   4.382   5.115   3.459  0.7314 -0.2066 -0.5084
  107SAPE  H13S11012   4.273   5.001   3.374 -0.0382  0.6438 -0.0329
  107SAPE  C21411013   4.220   5.204   3.339 -0.7807  0.7279  0.5967
  107SAPE  H14R11014   4.260   5.299   3.298 -0.3339  0.3922  0.2359
  107SAPE  C21511015   4.095   5.197   3.377  0.5841 -0.2627 -0.6190
  107SAPE  H15R11016   4.035   5.289   3.390  0.9121 -0.3383  2.0769
  107SAPE  C21611017   4.021   5.075   3.429 -0.0474  0.7069 -0.5593
  107SAPE  H16R11018   4.071   4.979   3.406 -2.9578 -0.8285 -0.8674
  107SAPE  H16S11019   3.932   5.058   3.365  1.3921 -1.6269 -2.0836
  107SAPE  C21711020   3.989   5.090   3.582  0.4774 -0.2243 -0.3405
  107SAPE  H17R11021   3.930   5.001   3.611 -0.0209  0.1317 -0.2503
  107SAPE  H17S11022   3.911   5.167   3.599  1.0863  0.6637 -1.3981
  107SAPE  C21811023   4.112   5.103   3.680 -0.3925 -0.3020  0.5609
  107SAPE  H18R11024   4.171   5.195   3.660 -1.8483  0.5327 -0.0942
  107SAPE  H18S11025   4.173   5.016   3.651 -0.9744 -0.9077  1.1037
  107SAPE  C21911026   4.058   5.101   3.828 -0.6439  1.0848  0.5730
  107SAPE  H19R11027   4.140   5.064   3.893  2.0339  3.8484 -0.9618
  107SAPE  H19S11028   3.984   5.018   3.831 -1.3744  1.7357  0.9191
  107SAPE  C22011029   4.007   5.218   3.897  0.0779 -1.1371  0.1184
  107SAPE  H20R11030   4.013   5.196   4.006 -0.5639 -0.7465  0.2378
  107SAPE  H20S11031   3.904   5.249   3.870  0.8299 -0.5258 -2.2873
  107SAPE  H20T11032   4.067   5.308   3.871  1.1876 -1.8001  0.3535
  107SAPE   C3311033   4.877   5.188   2.958  0.5110 -0.0255  0.5719
  107SAPE   H3X11034   4.979   5.208   2.919  1.6805 -0.8039  3.0151
  107SAPE   H3Y11035   4.853   5.082   2.936  3.0264 -0.3242 -1.1942
  107SAPE   C3411036   4.881   5.213   3.111 -0.2551 -0.5096  0.2737
  107SAPE   H4X11037   4.774   5.201   3.139  0.0278 -0.8012  1.2728
  107SAPE   H4Y11038   4.924   5.311   3.140 -0.0796 -0.9130  1.4002
  107SAPE   C3511039   4.948   5.098   3.186  0.7234  0.1858 -0.6406
  107SAPE   H5X11040   5.055   5.086   3.161  0.9648 -1.7947  1.0551
  107SAPE   H5Y11041   4.894   5.008   3.147  1.1570 -0.7225  0.7778
  107SAPE   C3611042   4.940   5.107   3.342 -0.9855  0.0881 -0.8601
  107SAPE   H6X11043   4.999   5.020   3.379  1.7485  1.9900 -0.4352
  107SAPE   H6Y11044   4.833   5.100   3.373 -1.2478  0.8158 -1.5868
  107SAPE   C3711045   5.000   5.229   3.411 -0.0188  0.4200  0.9928
  107SAPE   H7X11046   4.946   5.318   3.372 -0.6998  0.6529  2.4277
  107SAPE   H7Y11047   5.109   5.227   3.390 -0.2070  1.4929 -0.1957
  107SAPE   C3811048   4.989   5.232   3.564  0.3457 -0.4358  0.1384
  107SAPE   H8X11049   4.889   5.201   3.599  0.3691  0.7273  1.3134
  107SAPE   H8Y11050   5.012   5.335   3.599  2.3997 -0.8986  0.3278
  107SAPE   C3911051   5.108   5.144   3.633  0.3438  0.9770  0.0550
  107SAPE   H9X11052   5.205   5.188   3.599  0.6765 -1.8455 -3.3048
  107SAPE   H9Y11053   5.093   5.044   3.586  1.5355  1.1216 -0.6864
  107SAPE  C31011054   5.108   5.142   3.781 -0.1183  0.1351  0.1077
  107SAPE  H10X11055   5.095   5.246   3.817  2.2045  0.4712  0.1216
  107SAPE  H10Y11056   5.206   5.109   3.821  0.2926  1.0425 -0.1192
  107SAPE  C31111057   5.007   5.049   3.854 -0.1670 -0.1055 -0.0789
  107SAPE  H11X11058   4.901   5.079   3.844 -0.4350 -0.8221  0.5443
  107SAPE  H11Y11059   5.047   5.039   3.957 -1.4099 -4.4259  0.1660
  107SAPE  C31211060   5.011   4.900   3.800  0.5500 -0.2078 -0.8827
  107SAPE  H12X11061   4.991   4.884   3.692  1.1575  0.2538 -1.0657
  107SAPE  H12Y11062   4.947   4.836   3.864  0.7787 -0.0418 -0.4860
  107SAPE  C31311063   5.147   4.827   3.838 -0.6037  0.1150 -0.2633
  107SAPE  H13X11064   5.231   4.891   3.805 -1.4357  0.8551 -1.0137
  107SAPE  H13Y11065   5.156   4.735   3.777 -1.2005 -0.4924  0.5344
  107SAPE  C31411066   5.159   4.808   3.990  0.0699  0.0922  0.2280
  107SAPE  H14X11067   5.110   4.892   4.045  0.5497  1.2068 -1.0017
  107SAPE  H14Y11068   5.265   4.827   4.018  0.2121  0.0635 -0.2833
  107SAPE  C31511069   5.121   4.670   4.044 -0.2529 -0.0397 -0.0949
  107SAPE  H15X11070   5.176   4.591   3.989  2.5807  1.3765  0.5482
  107SAPE  H15Y11071   5.015   4.655   4.015 -0.6574  0.9632  0.8140
  107SAPE  C31611072   5.137   4.656   4.201  0.4797  0.4857  0.4395
  107SAPE  H16X11073   5.097   4.752   4.242 -0.0159  0.0477  0.9950
  107SAPE  H16Y11074   5.236   4.635   4.247  0.3411 -2.2361 -0.3218
  107SAPE  C31711075   5.038   4.549   4.252 -0.0358 -0.1250 -0.3966
  107SAPE  H17X11076   5.060   4.450   4.207 -1.7684 -0.5789 -0.2962
  107SAPE  H17Y11077   4.939   4.581   4.212 -0.6550 -0.0220  1.1455
  107SAPE  C31811078   5.035   4.524   4.403  0.3132 -0.1541  0.1762
  107SAPE  H18X11079   5.135   4.492   4.438 -1.3417 -2.4657  3.2498
  107SAPE  H18Y11080   4.954   4.450   4.426  0.4804 -0.4616 -0.2058
  107SAPE  H18Z11081   5.009   4.616   4.459 -1.2973 -0.8588  0.6716
  108SAPE     N11082   1.627   5.865   2.337  0.1935 -0.0184 -0.0689
  108SAPE   HN111083   1.677   5.898   2.253 -0.6341  1.2005 -0.1085
  108SAPE   HN211084   1.531   5.851   2.301  0.7726 -0.1725 -1.6090
  108SAPE   HN311085   1.616   5.943   2.405 -1.8754  0.4997 -0.9435
  108SAPE   C1211086   1.681   5.735   2.400 -0.4174  0.2614 -0.5640
  108SAPE  H12A11087   1.669   5.655   2.324 -2.0419 -0.5891  0.5272
  108SAPE  H12B11088   1.603   5.700   2.471  0.5719  1.1447  1.0302
  108SAPE   C1111089   1.824   5.731   2.458 -0.7473 -0.0370 -0.4260
  108SAPE  H11A11090   1.831   5.640   2.522 -1.2743 -0.6490 -1.2163
  108SAPE  H11B11091   1.865   5.813   2.520 -0.2839 -0.3693 -0.2834
  108SAPE     P11092   1.974   5.841   2.286  0.3268  0.4593  0.3841
  108SAPE   O1311093   2.090   5.814   2.199 -0.8175  0.0199  0.5439
  108SAPE   O1411094   1.858   5.906   2.227 -0.7094  0.3951  0.7832
  108SAPE   O1211095   1.924   5.705   2.355  0.0749  0.1898  0.1337
  108SAPE   O1111096   2.025   5.938   2.402 -0.1952 -0.2954 -0.1605
  108SAPE    C111097   2.150   5.912   2.478  0.0548 -0.3941  0.8553
  108SAPE    HA11098   2.233   5.871   2.417 -0.1444  0.2614  0.1303
  108SAPE    HB11099   2.177   6.007   2.529  0.8644  0.8004 -1.6476
  108SAPE    C211100   2.129   5.815   2.605 -0.1267  0.5535  1.1988
  108SAPE    HS11101   2.095   5.719   2.561  1.5195  0.8213 -0.8175
  108SAPE   O2111102   2.039   5.862   2.707  0.4777  0.3439  0.3085
  108SAPE   C2111103   1.988   5.772   2.782  0.3036 -0.4587  0.3898
  108SAPE   O2211104   2.003   5.654   2.770  0.0445 -0.2947 -0.2205
  108SAPE   C2211105   1.891   5.829   2.884  0.1919 -0.5397 -0.2937
  108SAPE   H2R11106   1.920   5.933   2.906 -0.2663 -0.1986 -1.2423
  108SAPE   H2S11107   1.792   5.833   2.834  1.0828 -1.6191 -2.2875
  108SAPE    C311108   2.261   5.781   2.673 -0.5132  0.0089  1.3686
  108SAPE    HX11109   2.319   5.726   2.596 -2.0029  0.8468 -0.4188
  108SAPE    HY11110   2.248   5.708   2.756 -0.8379 -1.3622  0.1438
  108SAPE   O3111111   2.333   5.899   2.711  0.1127 -0.5997  0.3656
  108SAPE   C3111112   2.314   5.940   2.838  0.3137  0.0800 -0.1269
  108SAPE   O3211113   2.244   5.883   2.924 -0.5808  0.0244 -0.0350
  108SAPE   C3211114   2.380   6.073   2.867  0.3288 -0.4746  0.4001
  108SAPE   H2X11115   2.292   6.141   2.869 -0.2590 -1.1371 -1.4741
  108SAPE   H2Y11116   2.443   6.111   2.785 -1.2902  2.2836  0.3265
  108SAPE   C2311117   1.874   5.750   3.016 -0.0127 -0.0014  0.4524
  108SAPE   H3R11118   1.961   5.764   3.084  0.2041 -1.7875  0.6047
  108SAPE   H3S11119   1.866   5.641   2.993  3.0838 -0.3218  0.5466
  108SAPE   C2411120   1.747   5.783   3.091 -0.0407  0.1034 -0.3378
  108SAPE   H4R11121   1.723   5.704   3.166  1.8556  0.2051  0.4071
  108SAPE   H4S11122   1.661   5.790   3.020  0.8200 -0.1308 -1.4367
  108SAPE   C2511123   1.759   5.923   3.134 -1.0337  0.1440  0.4665
  108SAPE   H5R11124   1.751   5.990   3.047  4.3383 -0.1077 -0.5764
  108SAPE   C2611125   1.756   5.977   3.256 -0.8481  0.5362  0.8424
  108SAPE   H6R11126   1.763   6.086   3.270  1.1313  0.7565 -1.2942
  108SAPE   C2711127   1.760   5.892   3.381 -0.2875 -0.4006 -0.4765
  108SAPE   H7R11128   1.838   5.929   3.451 -0.9101 -1.2168  0.6902
  108SAPE   H7S11129   1.792   5.786   3.367  0.5864 -0.4175  1.3851
  108SAPE   C2811130   1.631   5.886   3.460 -0.1100  1.0329  0.8641
  108SAPE   H8R11131   1.548   5.850   3.398 -0.4845  3.0451  0.1368
  108SAPE   C2911132   1.617   5.911   3.594  0.4574  0.4930 -0.0888
  108SAPE   H9R11133   1.514   5.918   3.632  0.3914  0.6620 -0.2941
  108SAPE  C21011134   1.731   5.941   3.688  0.7735 -0.1261 -0.0444
  108SAPE  H10R11135   1.761   6.047   3.673 -0.7008  0.3992  0.5319
  108SAPE  H10S11136   1.809   5.866   3.663  0.8851 -0.8164  2.1172
  108SAPE  C21111137   1.691   5.903   3.830 -0.3335  0.0752  0.0921
  108SAPE  H11R11138   1.687   5.798   3.861 -3.7139 -0.0639 -0.4488
  108SAPE  C21211139   1.644   5.993   3.924 -0.0926 -0.4967  0.8966
  108SAPE  H12R11140   1.624   5.958   4.027 -1.7947  0.4816  0.9446
  108SAPE  C21311141   1.624   6.141   3.906  0.6384  0.1568  0.3490
  108SAPE  H13R11142   1.523   6.165   3.946  0.9747  0.1552  1.2093
  108SAPE  H13S11143   1.631   6.167   3.798  0.3374 -2.6703 -0.4317
  108SAPE  C21411144   1.734   6.209   3.988  0.5051  0.9265 -0.4662
  108SAPE  H14R11145   1.833   6.218   3.942  0.1772 -1.7427 -1.9218
  108SAPE  C21511146   1.719   6.262   4.109  0.2771  0.0031  0.7288
  108SAPE  H15R11147   1.807   6.302   4.162  0.7259 -0.5261  0.3894
  108SAPE  C21611148   1.597   6.266   4.199  0.3706 -0.4334  0.0496
  108SAPE  H16R11149   1.543   6.174   4.168  2.1835 -1.5388  0.0364
  108SAPE  H16S11150   1.541   6.360   4.178  0.7410  0.4812  2.7926
  108SAPE  C21711151   1.630   6.269   4.349  0.4969 -0.3443 -0.4266
  108SAPE  H17R11152   1.694   6.356   4.375 -0.1014  0.4868 -1.6420
  108SAPE  H17S11153   1.690   6.179   4.376 -0.5517 -0.5956  1.2531
  108SAPE  C21811154   1.502   6.260   4.430 -0.3192  0.1464 -0.4345
  108SAPE  H18R11155   1.455   6.163   4.401  1.2073 -0.0890 -2.3377
  108SAPE  H18S11156   1.424   6.335   4.406 -0.4409  0.5679  1.1455
  108SAPE  C21911157   1.537   6.275   4.577 -1.3020 -0.3833 -0.4883
  108SAPE  H19R11158   1.567   6.377   4.608  1.7089 -1.5689  0.9069
  108SAPE  H19S11159   1.624   6.210   4.597 -1.9597 -1.0398  0.3129
  108SAPE  C22011160   1.433   6.224   4.671  0.3381  0.0833 -0.6300
  108SAPE  H20R11161   1.396   6.126   4.636  0.5583  0.4495 -1.9218
  108SAPE  H20S11162   1.344   6.290   4.669 -0.0340 -0.4311 -1.1268
  108SAPE  H20T11163   1.463   6.207   4.777  1.3880  2.6118 -0.4319
  108SAPE   C3311164   2.449   6.066   3.005  0.3095  0.0320  1.0134
  108SAPE   H3X11165   2.526   5.986   3.012  0.1726 -0.1344  0.6536
  108SAPE   H3Y11166   2.366   6.045   3.075 -0.4354 -0.6049 -0.0340
  108SAPE   C3411167   2.516   6.192   3.057  0.5556  0.2627  0.5471
  108SAPE   H4X11168   2.433   6.264   3.073  0.1220  0.3099 -1.5924
  108SAPE   H4Y11169   2.581   6.238   2.980 -1.6540  1.2724 -0.8332
  108SAPE   C3511170   2.615   6.163   3.171  0.6995  0.3547  0.0736
  108SAPE   H5X11171   2.687   6.085   3.138 -0.4383 -1.1855  1.0650
  108SAPE   H5Y11172   2.649   6.264   3.201 -4.0196  1.9946  0.7191
  108SAPE   C3611173   2.559   6.102   3.304  0.4648 -0.1404  0.2465
  108SAPE   H6X11174   2.528   5.996   3.287  0.7180 -0.8810  3.5941
  108SAPE   H6Y11175   2.475   6.167   3.338  0.5452  0.2252 -0.2513
  108SAPE   C3711176   2.666   6.091   3.417  0.2448 -0.9000 -0.2707
  108SAPE   H7X11177   2.717   6.189   3.432  0.1486 -1.1771  2.4255
  108SAPE   H7Y11178   2.750   6.021   3.399  0.9868 -1.1365  3.2808
  108SAPE   C3811179   2.607   6.078   3.562 -0.6291 -0.2765 -0.9326
  108SAPE   H8X11180   2.567   5.974   3.561  0.1568 -0.5898 -0.6841
  108SAPE   H8Y11181   2.533   6.160   3.576  2.9151  3.0799 -0.3473
  108SAPE   C3911182   2.706   6.079   3.679  0.0977  0.3951 -0.2372
  108SAPE   H9X11183   2.763   6.172   3.657 -2.1209  1.5710 -1.2948
  108SAPE   H9Y11184   2.780   5.995   3.681  1.1327  1.2628  2.1665
  108SAPE  C31011185   2.641   6.080   3.809 -0.0359  0.5887 -0.4516
  108SAPE  H10X11186   2.593   5.984   3.837  0.5838  0.4615  0.2047
  108SAPE  H10Y11187   2.557   6.152   3.803 -0.2429  0.2824 -1.4227
  108SAPE  C31111188   2.732   6.110   3.933 -0.8945  0.1991 -0.1043
  108SAPE  H11X11189   2.818   6.169   3.894 -1.5557  3.1589  2.5710
  108SAPE  H11Y11190   2.766   6.010   3.968  1.1247  0.2103 -1.7926
  108SAPE  C31211191   2.654   6.176   4.041 -0.0314  0.2377 -0.0244
  108SAPE  H12X11192   2.553   6.131   4.050  0.3880 -0.6531  0.3872
  108SAPE  H12Y11193   2.628   6.281   4.017 -1.1760 -0.6133 -2.9259
  108SAPE  C31311194   2.725   6.172   4.168 -0.0971 -0.4795  0.4248
  108SAPE  H13X11195   2.822   6.226   4.159 -0.2280 -0.3469 -0.2411
  108SAPE  H13Y11196   2.757   6.067   4.185 -0.8526 -0.4512  2.2701
  108SAPE  C31411197   2.634   6.201   4.286  0.1129  0.5812 -0.3030
  108SAPE  H14X11198   2.690   6.169   4.376 -3.0890  0.2232  1.7104
  108SAPE  H14Y11199   2.544   6.139   4.268  1.6110 -1.4022 -1.4083
  108SAPE  C31511200   2.601   6.354   4.284  0.2185  0.0800  0.2933
  108SAPE  H15X11201   2.551   6.374   4.186 -1.7629 -2.0626  0.7758
  108SAPE  H15Y11202   2.700   6.402   4.272 -0.2996  0.8058 -1.3498
  108SAPE  C31611203   2.520   6.404   4.400  0.6712 -0.6260 -0.6054
  108SAPE  H16X11204   2.436   6.338   4.430  0.1849 -1.3076 -3.2350
  108SAPE  H16Y11205   2.468   6.499   4.374  2.5732  0.9752  1.1472
  108SAPE  C31711206   2.605   6.439   4.524  0.1029  0.0107 -0.2338
  108SAPE  H17X11207   2.693   6.493   4.482 -1.2770  1.6153 -1.1956
  108SAPE  H17Y11208   2.635   6.341   4.567 -0.1266 -0.5389 -1.3078
  108SAPE  C31811209   2.535   6.510   4.629  0.8718 -0.6193  0.4434
  108SAPE  H18X11210   2.554   6.618   4.614  1.1537 -0.8021 -0.6075
  108SAPE  H18Y11211   2.582   6.493   4.728  2.6741  2.5503  0.2638
  108SAPE  H18Z11212   2.425   6.498   4.635  0.1327  2.5150 -3.0587
  109SAPE     N11213   5.119   1.381   2.793 -0.0644 -0.6930 -0.2758
  109SAPE   HN111214   5.114   1.317   2.711  0.2561 -0.8556 -0.1707
  109SAPE   HN211215   5.070   1.465   2.755  1.4960  0.8124  0.9003
  109SAPE   HN311216   5.215   1.421   2.804 -0.7434  0.9153  0.1014
  109SAPE   C1211217   5.069   1.332   2.921  0.0217  0.5431 -0.4655
  109SAPE  H12A11218   5.119   1.236   2.944 -0.9736  0.4514  1.5430
  109SAPE  H12B11219   4.961   1.310   2.910 -0.0373  1.0951 -1.1184
  109SAPE   C1111220   5.079   1.426   3.040 -0.2997  0.1994  0.2397
  109SAPE  H11A11221   5.188   1.434   3.061  0.1883  0.5087 -2.1673
  109SAPE  H11B11222   5.035   1.385   3.134 -0.9921  0.8431  0.2019
  109SAPE     P11223   4.875   1.581   3.033 -0.6889  0.0209  0.0166
  109SAPE   O1311224   4.832   1.720   3.013 -0.0592  0.0280  0.4252
  109SAPE   O1411225   4.813   1.486   2.934 -0.0398  0.5585  0.0998
  109SAPE   O1211226   5.028   1.559   3.014 -0.3520  0.0527 -0.3832
  109SAPE   O1111227   4.842   1.532   3.178 -0.1671 -0.3328 -0.2387
  109SAPE    C111228   4.911   1.599   3.285 -0.6837 -0.1782  0.0457
  109SAPE    HA11229   4.933   1.527   3.366 -0.0836 -0.4285 -0.3357
  109SAPE    HB11230   5.003   1.652   3.253 -0.6794  0.0738  0.4675
  109SAPE    C211231   4.823   1.707   3.352  0.5269 -0.4415  0.1352
  109SAPE    HS11232   4.782   1.768   3.269 -0.6857 -1.3914  0.0219
  109SAPE   O2111233   4.907   1.786   3.432 -0.2598 -0.1987 -0.0317
  109SAPE   C2111234   4.979   1.887   3.371  0.0795 -0.5943 -0.1021
  109SAPE   O2211235   4.969   1.925   3.255  0.1069 -0.5468 -0.0253
  109SAPE   C2211236   5.065   1.959   3.477 -0.2286  0.6150  0.1003
  109SAPE   H2R11237   5.010   2.048   3.514  1.7644  1.2914  1.6281
  109SAPE   H2S11238   5.083   1.886   3.559  0.7173 -2.1686 -2.4141
  109SAPE    C311239   4.700   1.650   3.428  0.9725 -0.0752  0.1651
  109SAPE    HX11240   4.620   1.615   3.358  0.4846  0.8177  0.2606
  109SAPE    HY11241   4.652   1.737   3.477 -0.1289  0.7987 -2.2915
  109SAPE   O3111242   4.736   1.547   3.516 -0.1911 -0.4971 -0.1007
  109SAPE   C3111243   4.755   1.573   3.644  0.0614  0.5162 -0.6684
  109SAPE   O3211244   4.743   1.683   3.693  0.3647 -0.0490  0.3290
  109SAPE   C3211245   4.790   1.444   3.723 -0.1016 -1.2026 -0.5861
  109SAPE   H2X11246   4.898   1.426   3.706  0.8657 -0.3447  3.4686
  109SAPE   H2Y11247   4.727   1.366   3.676 -2.6683  1.5440 -2.1218
  109SAPE   C2311248   5.203   2.007   3.424 -0.0767 -0.0930  0.2178
  109SAPE   H3R11249   5.178   2.089   3.353 -2.3905 -0.6165  0.3599
  109SAPE   H3S11250   5.254   1.925   3.369 -0.1679  0.9387 -1.4960
  109SAPE   C2411251   5.304   2.056   3.528 -0.5453  0.4193  0.6248
  109SAPE   H4R11252   5.316   1.967   3.594 -0.4998  0.3254  0.4899
  109SAPE   H4S11253   5.249   2.131   3.590 -3.2123 -2.2129  1.6910
  109SAPE   C2511254   5.435   2.094   3.456  0.0467 -0.1455 -0.0361
  109SAPE   H5R11255   5.476   2.020   3.386  1.4757  0.4658  0.1268
  109SAPE   C2611256   5.504   2.204   3.468 -0.3262 -0.7028  0.1204
  109SAPE   H6R11257   5.590   2.216   3.401  0.2239 -0.7843  0.8050
  109SAPE   C2711258   5.476   2.316   3.569  0.2419 -0.2645  0.4197
  109SAPE   H7R11259   5.443   2.268   3.663  1.0598  0.0826  0.8942
  109SAPE   H7S11260   5.404   2.395   3.539  0.1712  0.0377  1.3449
  109SAPE   C2811261   5.604   2.386   3.622  0.3812 -0.1239 -0.5045
  109SAPE   H8R11262   5.662   2.317   3.685 -0.9107  1.2622  2.3949
  109SAPE   C2911263   5.628   2.516   3.624  0.1402 -0.8331  0.2186
  109SAPE   H9R11264   5.725   2.547   3.664 -0.1337  0.9082 -0.3699
  109SAPE  C21011265   5.544   2.629   3.573  0.3583 -1.1902 -0.2527
  109SAPE  H10R11266   5.438   2.618   3.602 -0.0689  0.8485 -0.8378
  109SAPE  H10S11267   5.546   2.635   3.462  0.1208 -0.9670 -0.2455
  109SAPE  C21111268   5.602   2.758   3.621  0.2464  0.1888  0.5341
  109SAPE  H11R11269   5.685   2.802   3.565 -1.1247  1.2460 -0.7379
  109SAPE  C21211270   5.570   2.816   3.742 -0.1295  1.0031  0.3295
  109SAPE  H12R11271   5.629   2.907   3.763  0.6530  0.8168 -0.9329
  109SAPE  C21311272   5.463   2.773   3.835  0.0464 -0.3907 -1.5336
  109SAPE  H13R11273   5.500   2.831   3.923  1.4552 -1.2714 -1.5195
  109SAPE  H13S11274   5.472   2.663   3.848  1.8200 -0.4080 -2.5748
  109SAPE  C21411275   5.332   2.826   3.780 -0.7442  0.3483 -0.1018
  109SAPE  H14R11276   5.280   2.773   3.699 -1.4633 -0.2534  0.7378
  109SAPE  C21511277   5.270   2.923   3.835  0.5271  0.1247  0.2096
  109SAPE  H15R11278   5.172   2.948   3.791  0.4883 -0.6312 -0.1542
  109SAPE  C21611279   5.294   3.019   3.944  0.5088  0.5703  0.4176
  109SAPE  H16R11280   5.307   3.123   3.906  0.0138  0.2495 -0.6789
  109SAPE  H16S11281   5.390   2.993   3.993 -1.2757 -0.3868  3.7429
  109SAPE  C21711282   5.167   3.013   4.039 -0.4311 -0.3704  0.7597
  109SAPE  H17R11283   5.081   3.066   3.992  0.6595  0.8377  0.0281
  109SAPE  H17S11284   5.201   3.080   4.121  1.7769 -0.3718 -0.0750
  109SAPE  C21811285   5.133   2.872   4.096  0.2248  0.2468  0.4800
  109SAPE  H18R11286   5.226   2.810   4.088  0.6594  1.0039 -0.5570
  109SAPE  H18S11287   5.071   2.818   4.021 -2.0488 -0.2946  2.6194
  109SAPE  C21911288   5.048   2.874   4.227  0.1328 -0.3115  0.3130
  109SAPE  H19R11289   5.104   2.945   4.292  0.9560 -0.2744 -0.4095
  109SAPE  H19S11290   5.060   2.769   4.263  1.2100 -0.5258 -0.6297
  109SAPE  C22011291   4.905   2.917   4.211  0.3236 -0.2759 -0.7445
  109SAPE  H20R11292   4.867   2.852   4.130  1.1736 -1.3128 -0.3288
  109SAPE  H20S11293   4.890   3.026   4.195 -3.7681 -0.0497  2.8949
  109SAPE  H20T11294   4.846   2.904   4.304  0.3642  0.9569 -0.5335
  109SAPE   C3311295   4.749   1.453   3.869  0.3366  0.9992  0.0864
  109SAPE   H3X11296   4.706   1.358   3.908 -2.9317  2.6689  0.8560
  109SAPE   H3Y11297   4.659   1.517   3.880  1.0339  2.1664 -0.7665
  109SAPE   C3411298   4.854   1.519   3.960 -0.1602  0.5400  0.5076
  109SAPE   H4X11299   4.887   1.623   3.937 -2.4471  1.1820 -0.2260
  109SAPE   H4Y11300   4.947   1.459   3.962  0.5621  1.5832 -0.3589
  109SAPE   C3511301   4.808   1.513   4.113 -0.1938  0.4511 -0.1583
  109SAPE   H5X11302   4.824   1.410   4.152  3.3666  1.0858  0.4033
  109SAPE   H5Y11303   4.701   1.542   4.106 -0.2065  0.2799 -0.6827
  109SAPE   C3611304   4.885   1.613   4.203 -0.7047 -0.3242 -0.2313
  109SAPE   H6X11305   4.894   1.712   4.155  1.5358  1.8203  4.1121
  109SAPE   H6Y11306   4.993   1.587   4.209  0.0502  2.4449 -0.5030
  109SAPE   C3711307   4.837   1.634   4.344  0.2310  0.3971  0.8814
  109SAPE   H7X11308   4.862   1.547   4.408 -0.9807 -0.4590  0.2358
  109SAPE   H7Y11309   4.726   1.628   4.339  0.2834  0.1097 -0.0375
  109SAPE   C3811310   4.871   1.769   4.409 -0.0863 -0.2663 -0.1816
  109SAPE   H8X11311   4.837   1.848   4.339  1.1796  1.9973  1.6212
  109SAPE   H8Y11312   4.979   1.785   4.432 -0.3594  3.0138 -0.7502
  109SAPE   C3911313   4.805   1.789   4.546  0.4981  0.4460  0.0649
  109SAPE   H9X11314   4.705   1.742   4.558  0.6458  0.6728  2.8084
  109SAPE   H9Y11315   4.802   1.895   4.580  1.3753 -0.1224  2.0366
  109SAPE  C31011316   4.877   1.710   4.655  0.6368  0.0426 -0.1143
  109SAPE  H10X11317   4.988   1.718   4.644  0.6686 -1.9077 -1.8989
  109SAPE  H10Y11318   4.860   1.604   4.627  1.6588  0.0482 -0.8146
  109SAPE  C31111319   4.820   1.740   4.799  1.0465 -0.3196  0.2973
  109SAPE  H11X11320   4.873   1.660   4.856  1.6353 -0.1817 -0.0388
  109SAPE  H11Y11321   4.711   1.722   4.806  1.0533  0.2845  2.6598
  109SAPE  C31211322   4.859   1.878   4.853 -0.5250  0.2515  0.4330
  109SAPE  H12X11323   4.801   1.954   4.795 -2.1588 -0.6728  0.7933
  109SAPE  H12Y11324   4.968   1.897   4.845 -0.4657  0.6890  1.9443
  109SAPE  C31311325   4.817   1.914   5.000  0.2812 -0.4661  0.3790
  109SAPE  H13X11326   4.833   1.819   5.054  0.4010 -0.4310  0.4074
  109SAPE  H13Y11327   4.709   1.938   5.007  0.4485  0.5500 -0.1843
  109SAPE  C31411328   4.889   2.036   5.058  0.2464 -0.1976  0.3372
  109SAPE  H14X11329   4.833   2.114   5.001  0.3314 -1.4956 -1.6174
  109SAPE  H14Y11330   4.994   2.034   5.020 -0.7325  0.7644 -2.6878
  109SAPE  C31511331   4.881   2.051   5.214  0.4461  0.3268  0.4362
  109SAPE  H15X11332   4.943   1.977   5.270  1.2698  0.9020  0.3121
  109SAPE  H15Y11333   4.774   2.033   5.235  0.7499  0.0895  1.9179
  109SAPE  C31611334   4.900   2.198   5.254 -0.2041  0.1311  0.2775
  109SAPE  H16X11335   4.840   2.269   5.192 -0.6293  2.4629  3.1521
  109SAPE  H16Y11336   5.008   2.222   5.241  0.0575 -0.6383  0.9943
  109SAPE  C31711337   4.848   2.222   5.396  0.1511 -0.1499 -0.2150
  109SAPE  H17X11338   4.921   2.182   5.469 -3.3404 -0.9962  3.1914
  109SAPE  H17Y11339   4.759   2.158   5.418  0.8357 -0.9848  0.1854
  109SAPE  C31811340   4.823   2.368   5.419  0.3720  0.4005 -0.0154
  109SAPE  H18X11341   4.750   2.405   5.344 -0.7053 -2.4293 -0.4833
  109SAPE  H18Y11342   4.914   2.430   5.403  0.8848 -0.3436 -0.0452
  109SAPE  H18Z11343   4.789   2.381   5.524 -1.1600  0.9686 -0.5470
  110SAPE     N11344   4.741   2.085   3.134  0.7282 -0.9134  0.2861
  110SAPE   HN111345   4.664   2.089   3.203  0.0594  1.1452 -0.5103
  110SAPE   HN211346   4.769   1.989   3.105  1.3118 -1.2439  1.8560
  110SAPE   HN311347   4.821   2.126   3.187  1.7184 -2.1817 -0.1504
  110SAPE   C1211348   4.706   2.175   3.011  0.1155 -0.0169  0.4490
  110SAPE  H12A11349   4.629   2.120   2.951  0.6639  1.1914 -1.4292
  110SAPE  H12B11350   4.802   2.194   2.960 -0.1466 -0.0202 -0.0499
  110SAPE   C1111351   4.642   2.313   3.058  0.0230  0.3254  0.2237
  110SAPE  H11A11352   4.558   2.281   3.124 -1.3112 -0.3005 -1.7111
  110SAPE  H11B11353   4.596   2.360   2.969 -0.3343  0.4005  0.4455
  110SAPE     P11354   4.759   2.544   3.074  0.3817  0.0310  0.0404
  110SAPE   O1311355   4.870   2.534   2.972  0.4343 -0.1981  0.2018
  110SAPE   O1411356   4.631   2.608   3.024  0.6761 -0.2553 -0.5265
  110SAPE   O1211357   4.734   2.397   3.127 -0.0303 -0.6753 -0.2800
  110SAPE   O1111358   4.813   2.628   3.199  0.2960 -0.0954  0.7243
  110SAPE    C111359   4.954   2.614   3.234  0.7469 -0.0994 -0.2003
  110SAPE    HA11360   5.007   2.531   3.181 -1.4601 -0.9693 -1.1668
  110SAPE    HB11361   5.009   2.706   3.205  1.0347 -0.3829 -0.5807
  110SAPE    C211362   4.966   2.593   3.387  0.1023 -0.2386 -0.4637
  110SAPE    HS11363   4.894   2.515   3.420 -0.2982 -0.6471 -2.1758
  110SAPE   O2111364   4.947   2.717   3.449 -0.2714 -0.1490 -0.6387
  110SAPE   C2111365   4.919   2.717   3.582  0.1061  0.0304  0.2443
  110SAPE   O2211366   4.879   2.628   3.653  0.5064 -0.0576  0.3291
  110SAPE   C2211367   4.924   2.867   3.632 -0.0797  0.2237  0.2500
  110SAPE   H2R11368   5.022   2.918   3.618  0.3600 -0.7342 -0.2461
  110SAPE   H2S11369   4.857   2.919   3.560  0.0367 -0.5645 -0.4377
  110SAPE    C311370   5.112   2.540   3.417  0.1869  0.3155  0.3183
  110SAPE    HX11371   5.121   2.449   3.353  0.6550  1.0176 -0.6475
  110SAPE    HY11372   5.193   2.609   3.383  0.4247 -1.1484 -2.4515
  110SAPE   O3111373   5.138   2.509   3.553  0.4850 -0.1661 -0.3152
  110SAPE   C3111374   5.106   2.385   3.591 -0.2496 -0.2123  0.3629
  110SAPE   O3211375   5.058   2.303   3.515 -0.9377  0.1277 -0.0235
  110SAPE   C3211376   5.101   2.384   3.745 -0.9387  0.3017  0.4168
  110SAPE   H2X11377   5.099   2.279   3.782  1.5012  0.8827  2.5153
  110SAPE   H2Y11378   5.010   2.430   3.788 -1.3483 -0.9043  0.8989
  110SAPE   C2311379   4.879   2.894   3.776 -0.2546 -0.2432  0.1597
  110SAPE   H3R11380   4.956   2.843   3.838 -0.2635  0.4660  0.7792
  110SAPE   H3S11381   4.789   2.836   3.804  0.6906 -2.5951 -1.3854
  110SAPE   C2411382   4.874   3.043   3.823  0.2456  0.9427  0.1075
  110SAPE   H4R11383   4.972   3.090   3.799  0.5922 -0.4273 -1.3690
  110SAPE   H4S11384   4.865   3.036   3.933 -1.8015 -2.2556 -0.1566
  110SAPE   C2511385   4.758   3.114   3.756  0.4202  0.5532  0.2298
  110SAPE   H5R11386   4.717   3.068   3.665  2.6943  1.4127 -1.3288
  110SAPE   C2611387   4.708   3.237   3.796  0.0564 -0.4348  0.2880
  110SAPE   H6R11388   4.629   3.293   3.742  0.2570  0.8981  1.3123
  110SAPE   C2711389   4.768   3.309   3.914  0.3167  0.4364 -0.6457
  110SAPE   H7R11390   4.744   3.416   3.894  2.5053  0.9763 -0.6949
  110SAPE   H7S11391   4.877   3.288   3.922 -0.0464 -1.2326  0.1907
  110SAPE   C2811392   4.703   3.269   4.039 -0.0500  0.4701 -0.0366
  110SAPE   H8R11393   4.621   3.196   4.045 -0.0991  0.3849 -1.4477
  110SAPE   C2911394   4.724   3.336   4.155 -0.3512 -0.1428  0.5925
  110SAPE   H9R11395   4.661   3.308   4.241  0.9473  1.1792  2.0479
  110SAPE  C21011396   4.828   3.440   4.184  0.3254  0.0996  0.2074
  110SAPE  H10R11397   4.779   3.528   4.231 -0.8428 -2.1192  3.5134
  110SAPE  H10S11398   4.862   3.485   4.088  1.0845  3.4154  1.8671
  110SAPE  C21111399   4.942   3.391   4.264 -0.4810  0.1867  0.9179
  110SAPE  H11R11400   5.014   3.329   4.210  0.7285  1.4909  0.9760
  110SAPE  C21211401   4.948   3.402   4.397 -0.1401 -0.5849 -0.3241
  110SAPE  H12R11402   5.021   3.342   4.452  1.8219  0.9320 -1.1684
  110SAPE  C21311403   4.851   3.473   4.483  0.0095 -0.7369 -1.0107
  110SAPE  H13R11404   4.813   3.559   4.424  2.7444  0.9726 -0.4569
  110SAPE  H13S11405   4.904   3.517   4.570  2.3427 -2.2838 -1.5369
  110SAPE  C21411406   4.721   3.408   4.530 -0.3897  0.0162  0.0103
  110SAPE  H14R11407   4.666   3.363   4.446 -0.3006 -0.8631  0.4118
  110SAPE  C21511408   4.667   3.393   4.657 -0.0049  0.2383 -0.0217
  110SAPE  H15R11409   4.566   3.352   4.667 -1.1425  2.7882 -0.1808
  110SAPE  C21611410   4.717   3.467   4.781  0.3931  0.1150  0.3330
  110SAPE  H16R11411   4.819   3.509   4.771  0.2719  0.7333  1.4749
  110SAPE  H16S11412   4.710   3.414   4.879  2.4365  2.6354  1.9636
  110SAPE  C21711413   4.626   3.589   4.802  0.1745  0.4375 -0.0698
  110SAPE  H17R11414   4.667   3.638   4.893 -2.3157  2.8362 -0.1181
  110SAPE  H17S11415   4.524   3.557   4.830 -0.3448  0.8652 -1.4132
  110SAPE  C21811416   4.637   3.696   4.694  0.0712 -0.1603  0.5362
  110SAPE  H18R11417   4.610   3.643   4.601  2.2645  0.9276 -0.7944
  110SAPE  H18S11418   4.747   3.710   4.685  0.0689 -0.5871 -0.2814
  110SAPE  C21911419   4.546   3.821   4.716  0.2477  0.0397  0.3656
  110SAPE  H19R11420   4.599   3.875   4.797  0.9440 -0.5161  0.2901
  110SAPE  H19S11421   4.446   3.786   4.748  0.1233  0.7423  0.7688
  110SAPE  C22011422   4.532   3.909   4.593  0.2290  0.3439  0.4981
  110SAPE  H20R11423   4.600   3.997   4.597 -0.3736  0.9629 -1.8202
  110SAPE  H20S11424   4.430   3.952   4.593 -0.4836 -1.2622 -0.6329
  110SAPE  H20T11425   4.550   3.848   4.502 -0.6247  0.4891  0.2228
  110SAPE   C3311426   5.204   2.462   3.823 -0.3488 -0.3274 -0.0928
  110SAPE   H3X11427   5.164   2.566   3.821 -2.2785 -0.9758  1.5679
  110SAPE   H3Y11428   5.308   2.449   3.785 -0.8000 -2.0094 -0.8403
  110SAPE   C3411429   5.200   2.419   3.968  0.0195 -0.1156  0.4217
  110SAPE   H4X11430   5.215   2.309   3.978  0.2212 -0.1584 -0.3002
  110SAPE   H4Y11431   5.097   2.448   3.999 -0.8990 -0.9353 -1.7063
  110SAPE   C3511432   5.307   2.488   4.056 -0.5902 -0.2472 -0.0627
  110SAPE   H5X11433   5.317   2.599   4.045  2.3909 -0.5592 -1.6337
  110SAPE   H5Y11434   5.401   2.439   4.022 -1.2693 -0.1799 -2.2002
  110SAPE   C3611435   5.280   2.454   4.204 -0.1638 -0.0381 -0.1379
  110SAPE   H6X11436   5.241   2.350   4.208  3.2376 -1.4470  2.8686
  110SAPE   H6Y11437   5.200   2.523   4.237 -1.3745 -2.3700  2.1975
  110SAPE   C3711438   5.399   2.477   4.298 -0.6881  0.3582  0.2412
  110SAPE   H7X11439   5.441   2.580   4.285  0.6669 -0.1053  0.7682
  110SAPE   H7Y11440   5.474   2.397   4.286 -0.6502  0.5108 -0.6574
  110SAPE   C3811441   5.345   2.469   4.443  0.2886  0.0561  0.6132
  110SAPE   H8X11442   5.302   2.367   4.458  1.6138 -1.2726 -3.3191
  110SAPE   H8Y11443   5.267   2.548   4.450 -1.2487 -1.3229 -0.0791
  110SAPE   C3911444   5.449   2.495   4.558 -0.3958 -0.0013  0.2219
  110SAPE   H9X11445   5.489   2.392   4.561 -1.7372 -0.5914 -1.0602
  110SAPE   H9Y11446   5.399   2.519   4.655  1.4896 -3.5602  2.2777
  110SAPE  C31011447   5.550   2.609   4.533 -0.2243  0.3469 -0.3650
  110SAPE  H10X11448   5.504   2.709   4.517  0.0091  0.5338  0.1406
  110SAPE  H10Y11449   5.606   2.585   4.440  1.0884 -4.6486  1.4033
  110SAPE  C31111450   5.643   2.624   4.652  0.8394 -0.3647  0.5279
  110SAPE  H11X11451   5.598   2.610   4.753 -0.6249  1.5474  0.2166
  110SAPE  H11Y11452   5.662   2.733   4.641  1.5033 -0.7434 -3.0017
  110SAPE  C31211453   5.769   2.540   4.639 -0.2233 -0.0424 -0.6813
  110SAPE  H12X11454   5.791   2.525   4.531 -1.3695 -0.5269 -0.8595
  110SAPE  H12Y11455   5.753   2.435   4.671 -2.2534  1.2904  3.3529
  110SAPE  C31311456   5.889   2.597   4.731  0.3583  0.4873 -0.3049
  110SAPE  H13X11457   5.842   2.655   4.813  1.0308  0.3494  0.1852
  110SAPE  H13Y11458   5.943   2.673   4.670  0.8191  0.8330  0.5273
  110SAPE  C31411459   5.984   2.492   4.781 -0.2658  0.7857  0.4741
  110SAPE  H14X11460   6.027   2.427   4.701  2.8295  1.2184  1.6424
  110SAPE  H14Y11461   5.926   2.431   4.853 -1.3954  1.5123  0.2031
  110SAPE  C31511462   6.104   2.562   4.838  0.2217 -0.4156 -0.2405
  110SAPE  H15X11463   6.114   2.655   4.777 -3.0508  0.1070 -0.1721
  110SAPE  H15Y11464   6.199   2.505   4.838 -0.8385 -2.2687 -1.3755
  110SAPE  C31611465   6.087   2.611   4.982 -0.0216 -0.6495 -0.6452
  110SAPE  H16X11466   5.995   2.670   5.001 -0.2564 -1.1614 -0.1381
  110SAPE  H16Y11467   6.174   2.676   5.005  0.3476 -1.2148 -0.4125
  110SAPE  C31711468   6.092   2.503   5.089  0.0268 -0.0512 -0.1241
  110SAPE  H17X11469   6.170   2.432   5.055 -0.5053  0.6285 -3.0000
  110SAPE  H17Y11470   5.993   2.453   5.105  0.4098 -0.3456  1.4691
  110SAPE  C31811471   6.123   2.559   5.231 -0.3659  0.1815  0.5363
  110SAPE  H18X11472   6.134   2.470   5.297  1.2498 -0.7696 -0.9328
  110SAPE  H18Y11473   6.040   2.615   5.280 -1.4250  0.0142 -1.0044
  110SAPE  H18Z11474   6.223   2.606   5.230  0.1066 -0.7909 -0.1929
  111SAPE     N11475   2.629   2.817   2.088  0.3824  0.0722  0.1185
  111SAPE   HN111476   2.679   2.906   2.108  0.3269 -0.4296  2.7990
  111SAPE   HN211477   2.547   2.830   2.025  2.1436  1.0513 -2.1163
  111SAPE   HN311478   2.606   2.771   2.178 -1.3634  1.7369  0.5625
  111SAPE   C1211479   2.729   2.727   2.023 -0.1547  0.1935 -0.3702
  111SAPE  H12A11480   2.775   2.773   1.934  1.9334  1.7170  1.3815
  111SAPE  H12B11481   2.668   2.640   1.991  0.6008 -1.0408  1.3704
  111SAPE   C1111482   2.841   2.686   2.121 -0.4692 -0.1327  0.1056
  111SAPE  H11A11483   2.913   2.632   2.056 -4.1461 -2.4439 -2.5015
  111SAPE  H11B11484   2.800   2.628   2.206  0.3354 -0.8484  0.0188
  111SAPE     P11485   3.021   2.799   2.278 -0.4450  0.4594  0.0282
  111SAPE   O1311486   3.141   2.708   2.254 -0.1256  0.2844 -0.3598
  111SAPE   O1411487   3.063   2.940   2.297  0.0219  0.4780 -0.5162
  111SAPE   O1211488   2.910   2.801   2.166  0.1766 -0.3073 -0.1295
  111SAPE   O1111489   2.945   2.736   2.407  0.0812 -0.2561 -0.1401
  111SAPE    C111490   2.849   2.800   2.486  0.2800 -0.4470  0.4241
  111SAPE    HA11491   2.794   2.877   2.427  1.2161  0.5846  0.8673
  111SAPE    HB11492   2.771   2.738   2.536 -0.9054  0.5485 -0.1060
  111SAPE    C211493   2.916   2.878   2.605  0.6325 -0.2949  0.3080
  111SAPE    HS11494   3.012   2.921   2.571  0.9819 -0.8881  0.5182
  111SAPE   O2111495   2.932   2.779   2.710  0.5727 -0.2666 -0.2475
  111SAPE   C2111496   3.051   2.728   2.717 -0.2418 -0.7502  0.1104
  111SAPE   O2211497   3.141   2.742   2.628  0.0530  0.0770 -0.6799
  111SAPE   C2211498   3.076   2.630   2.834  0.8962 -0.8416 -0.1228
  111SAPE   H2R11499   3.050   2.528   2.798  0.4865 -0.6023 -0.5151
  111SAPE   H2S11500   3.185   2.626   2.858  0.9034 -0.0168  0.0240
  111SAPE    C311501   2.823   2.987   2.643 -0.2293 -0.4902  0.1539
  111SAPE    HX11502   2.723   2.944   2.663 -1.1717  0.8200 -1.4232
  111SAPE    HY11503   2.813   3.055   2.556 -0.5739  1.4412  1.6319
  111SAPE   O3111504   2.881   3.068   2.746  0.3258  0.4759 -0.2460
  111SAPE   C3111505   2.848   3.038   2.870  0.1030 -0.8287 -0.4318
  111SAPE   O3211506   2.784   2.941   2.909 -0.8707  0.1823 -0.4241
  111SAPE   C3211507   2.906   3.137   2.961  0.4759 -0.1517 -0.0420
  111SAPE   H2X11508   2.862   3.236   2.933 -0.3868 -0.3747  0.4859
  111SAPE   H2Y11509   3.016   3.144   2.945  0.4260 -0.8853 -0.7233
  111SAPE   C2311510   2.975   2.655   2.951  0.2625 -0.3723  0.0690
  111SAPE   H3R11511   2.873   2.661   2.910  0.3029  1.2970  0.1608
  111SAPE   H3S11512   2.990   2.755   2.996  2.5965 -0.2349 -0.8711
  111SAPE   C2411513   2.980   2.538   3.055  0.2755 -0.4395 -0.6022
  111SAPE   H4R11514   3.006   2.439   3.012  2.5836 -0.6518  1.0909
  111SAPE   H4S11515   2.877   2.532   3.096  0.7014  1.5127  0.8734
  111SAPE   C2511516   3.078   2.573   3.164 -0.3263 -0.3255 -0.4764
  111SAPE   H5R11517   3.182   2.572   3.128 -0.6511  1.5185 -1.6319
  111SAPE   C2611518   3.048   2.600   3.291  0.0199  0.1181  0.8649
  111SAPE   H6R11519   3.130   2.602   3.364  0.6483 -1.4160  0.2455
  111SAPE   C2711520   2.911   2.607   3.358  0.4007 -0.2290  0.4453
  111SAPE   H7R11521   2.858   2.509   3.366 -2.7613  1.3976  0.9136
  111SAPE   H7S11522   2.849   2.664   3.286  2.0626 -1.1303 -1.8371
  111SAPE   C2811523   2.916   2.685   3.489 -0.1321 -0.2385 -0.2218
  111SAPE   H8R11524   2.964   2.783   3.476 -0.2526 -0.2560 -0.8481
  111SAPE   C2911525   2.857   2.646   3.605 -0.2506 -0.4322  0.0204
  111SAPE   H9R11526   2.875   2.697   3.701  0.3673 -1.3848  0.4287
  111SAPE  C21011527   2.783   2.510   3.634  0.1153  0.1132  0.1049
  111SAPE  H10R11528   2.789   2.491   3.743  1.3274 -0.6748 -0.0872
  111SAPE  H10S11529   2.844   2.427   3.592 -1.1538 -0.8037  0.0135
  111SAPE  C21111530   2.641   2.489   3.586  0.6389 -0.3361 -0.3790
  111SAPE  H11R11531   2.633   2.465   3.480 -0.0642  1.9692 -0.9057
  111SAPE  C21211532   2.526   2.497   3.663 -0.0926  0.4512  0.2563
  111SAPE  H12R11533   2.427   2.496   3.616  0.4176  1.1666 -0.8701
  111SAPE  C21311534   2.514   2.535   3.804 -0.8022  0.0632 -0.0357
  111SAPE  H13R11535   2.410   2.565   3.827 -0.2174  1.3786  1.0092
  111SAPE  H13S11536   2.578   2.625   3.812  2.1606 -2.0125  1.2646
  111SAPE  C21411537   2.537   2.427   3.917  0.5514  0.5036  0.4931
  111SAPE  H14R11538   2.514   2.322   3.892 -1.7693  0.6859  1.6343
  111SAPE  C21511539   2.575   2.458   4.045  0.5892 -0.2759  0.3457
  111SAPE  H15R11540   2.587   2.371   4.111 -2.3076 -2.4422 -1.7204
  111SAPE  C21611541   2.603   2.589   4.111  0.0464  0.5061  0.5095
  111SAPE  H16R11542   2.612   2.672   4.037  2.2025  0.7055  0.9029
  111SAPE  H16S11543   2.707   2.590   4.150  0.1804  0.1650  0.1669
  111SAPE  C21711544   2.506   2.627   4.225 -0.2800 -0.2036 -0.3864
  111SAPE  H17R11545   2.496   2.534   4.284 -1.2843 -0.3207 -0.7212
  111SAPE  H17S11546   2.404   2.646   4.183 -0.4459  0.4852  0.3030
  111SAPE  C21811547   2.542   2.756   4.303  0.3173  0.1110  0.1090
  111SAPE  H18R11548   2.533   2.844   4.236 -1.1607  0.0526  0.2045
  111SAPE  H18S11549   2.648   2.749   4.336 -0.0415 -1.0592  1.1087
  111SAPE  C21911550   2.455   2.796   4.427 -0.3615 -0.2760 -0.1426
  111SAPE  H19R11551   2.498   2.732   4.508 -1.3959  0.0060  0.6585
  111SAPE  H19S11552   2.350   2.766   4.411 -1.1907  1.1143  2.1573
  111SAPE  C22011553   2.465   2.942   4.477 -0.3306 -0.5231 -1.0101
  111SAPE  H20R11554   2.564   2.985   4.448 -0.5978  1.4475  0.8140
  111SAPE  H20S11555   2.465   2.956   4.587  1.2888  2.1399 -1.2601
  111SAPE  H20T11556   2.382   2.995   4.426  0.5641  0.2261 -1.7271
  111SAPE   C3311557   2.879   3.107   3.113  0.2247 -0.2539  0.4200
  111SAPE   H3X11558   2.921   3.007   3.135 -0.7216 -1.0883 -1.3550
  111SAPE   H3Y11559   2.771   3.093   3.133  0.0013 -2.4288 -1.7969
  111SAPE   C3411560   2.939   3.202   3.215  0.0242  0.0586  0.2673
  111SAPE   H4X11561   2.863   3.271   3.258  0.5984  1.1750 -0.4530
  111SAPE   H4Y11562   3.007   3.265   3.155 -0.7161  1.9035  1.2899
  111SAPE   C3511563   3.040   3.136   3.321  0.3162  0.1738 -0.0857
  111SAPE   H5X11564   3.144   3.149   3.282 -0.7225  0.4382 -3.0061
  111SAPE   H5Y11565   3.007   3.032   3.344 -1.1850  0.2585 -1.6510
  111SAPE   C3611566   3.030   3.206   3.456  0.5858 -0.2718  0.1687
  111SAPE   H6X11567   2.929   3.250   3.464  1.3986  2.2044 -1.8113
  111SAPE   H6Y11568   3.094   3.297   3.465 -0.9364  0.7015  1.6356
  111SAPE   C3711569   3.072   3.113   3.572 -0.3694 -0.0535 -0.5076
  111SAPE   H7X11570   3.166   3.067   3.533  2.4998  2.8538  2.2658
  111SAPE   H7Y11571   3.001   3.028   3.578  0.5707 -1.0573 -2.5704
  111SAPE   C3811572   3.094   3.182   3.705 -0.3386 -0.9406  0.4043
  111SAPE   H8X11573   3.005   3.244   3.730 -0.0197 -0.5678  0.6239
  111SAPE   H8Y11574   3.184   3.247   3.701  0.9801 -2.7258 -0.5491
  111SAPE   C3911575   3.111   3.083   3.821  0.4299 -0.3559 -0.4085
  111SAPE   H9X11576   3.192   3.010   3.800 -1.0535 -1.9530 -0.7666
  111SAPE   H9Y11577   3.015   3.029   3.829 -0.0498  0.5218 -0.2006
  111SAPE  C31011578   3.134   3.150   3.962 -0.4863  0.1135  0.2352
  111SAPE  H10X11579   3.158   3.071   4.037 -2.3669 -0.4344  0.3161
  111SAPE  H10Y11580   3.041   3.196   3.999  0.9832  1.5139  2.3903
  111SAPE  C31111581   3.248   3.252   3.972  0.3483 -0.6193 -0.4082
  111SAPE  H11X11582   3.254   3.317   3.881 -1.1950 -2.6336 -2.0506
  111SAPE  H11Y11583   3.345   3.197   3.973  1.4641  1.2576  0.9502
  111SAPE  C31211584   3.255   3.329   4.096 -0.1224  0.7166  0.4653
  111SAPE  H12X11585   3.358   3.370   4.102  0.3771 -0.0976 -1.5663
  111SAPE  H12Y11586   3.235   3.254   4.176 -3.2608  0.8669 -0.0559
  111SAPE  C31311587   3.152   3.446   4.118  0.3029  0.4672  0.2690
  111SAPE  H13X11588   3.052   3.410   4.085  0.6505 -0.4318  0.1660
  111SAPE  H13Y11589   3.175   3.537   4.059 -0.7951 -0.0698 -1.0332
  111SAPE  C31411590   3.149   3.487   4.275 -0.1176  0.4493  0.3057
  111SAPE  H14X11591   3.252   3.525   4.293  0.9460 -0.7212 -2.5502
  111SAPE  H14Y11592   3.133   3.395   4.335  0.7431 -0.1227 -0.3126
  111SAPE  C31511593   3.041   3.594   4.314 -0.5703  0.0333 -0.0377
  111SAPE  H15X11594   2.940   3.558   4.286  0.2054 -1.6658 -0.7790
  111SAPE  H15Y11595   3.060   3.682   4.249 -1.9243  0.1149 -0.3547
  111SAPE  C31611596   3.047   3.628   4.461  0.2172 -0.1460 -0.0710
  111SAPE  H16X11597   3.037   3.540   4.528  2.5617  1.4755  2.6338
  111SAPE  H16Y11598   2.956   3.684   4.490  0.1856 -0.5326  0.6160
  111SAPE  C31711599   3.183   3.688   4.496  0.2541  0.0331  0.3500
  111SAPE  H17X11600   3.193   3.779   4.433  1.1983  0.5938  1.2838
  111SAPE  H17Y11601   3.272   3.623   4.480  1.2029  1.0251  1.4239
  111SAPE  C31811602   3.187   3.729   4.644  1.1384 -0.4360  0.1800
  111SAPE  H18X11603   3.160   3.642   4.708 -0.3467  0.9512  1.5254
  111SAPE  H18Y11604   3.115   3.802   4.687  0.4219 -0.4601 -0.9519
  111SAPE  H18Z11605   3.290   3.762   4.668  0.6254  1.3406  0.0752
  112SAPE     N11606   0.808   1.066   2.418  0.2481  0.4433 -0.2745
  112SAPE   HN111607   0.850   0.991   2.359  0.1323 -1.0442  1.4690
  112SAPE   HN211608   0.740   1.020   2.482 -0.9342  1.1535 -0.9861
  112SAPE   HN311609   0.750   1.137   2.368  0.4715  0.8634  0.0599
  112SAPE   C1211610   0.922   1.134   2.494  0.7525  0.1866 -0.3199
  112SAPE  H12A11611   0.990   1.168   2.413  0.2250 -0.1788 -0.9274
  112SAPE  H12B11612   0.969   1.056   2.557  0.6834  1.9268  2.0250
  112SAPE   C1111613   0.866   1.240   2.586  0.4471  0.0545 -0.0240
  112SAPE  H11A11614   0.951   1.307   2.610  0.6288 -0.1363 -0.1389
  112SAPE  H11B11615   0.828   1.192   2.679 -1.6991 -1.8475 -1.7926
  112SAPE     P11616   0.765   1.468   2.519  0.0519 -0.0890  0.1406
  112SAPE   O1311617   0.905   1.510   2.521 -0.3181 -0.3076  0.0594
  112SAPE   O1411618   0.688   1.517   2.398 -0.4326  0.5186  0.0378
  112SAPE   O1211619   0.760   1.308   2.516 -0.4947 -0.7297 -0.2884
  112SAPE   O1111620   0.693   1.502   2.656 -0.3432 -0.3501 -0.7075
  112SAPE    C111621   0.566   1.452   2.683  0.2399  0.9602 -0.2068
  112SAPE    HA11622   0.487   1.486   2.614 -1.1485 -2.1624 -0.3040
  112SAPE    HB11623   0.562   1.341   2.678  1.1131  0.9118 -0.0576
  112SAPE    C211624   0.510   1.490   2.824 -0.0415 -0.2227 -0.2069
  112SAPE    HS11625   0.407   1.448   2.822 -1.7612  3.5356  0.6447
  112SAPE   O2111626   0.491   1.628   2.850 -0.5888 -0.0371 -0.4391
  112SAPE   C2111627   0.379   1.667   2.914  0.2078  0.0353 -0.1324
  112SAPE   O2211628   0.276   1.598   2.930 -0.5638  0.9639  0.1594
  112SAPE   C2211629   0.395   1.812   2.950 -0.1617  0.2864 -0.5141
  112SAPE   H2R11630   0.491   1.858   2.916 -0.7529  0.6395 -1.7645
  112SAPE   H2S11631   0.317   1.873   2.900 -0.2340  1.5694  1.0785
  112SAPE    C311632   0.587   1.422   2.938  0.1098  0.1614  0.0862
  112SAPE    HX11633   0.691   1.459   2.953  0.4254 -0.3607 -0.7318
  112SAPE    HY11634   0.594   1.315   2.908  0.2152  0.2900 -0.3642
  112SAPE   O3111635   0.513   1.439   3.059  0.1621  0.9192  0.1944
  112SAPE   C3111636   0.411   1.350   3.088 -0.2435 -0.6541  0.5672
  112SAPE   O3211637   0.379   1.264   3.003 -0.0049 -0.3734 -0.1597
  112SAPE   C3211638   0.346   1.385   3.219  0.7918 -0.5050 -0.3710
  112SAPE   H2X11639   0.301   1.486   3.207  0.3677 -0.4892  1.1390
  112SAPE   H2Y11640   0.419   1.392   3.303 -0.2592 -0.4050  0.5518
  112SAPE   C2311641   0.358   1.830   3.105  0.4596 -0.1189  0.1348
  112SAPE   H3R11642   0.299   1.741   3.137  0.1824  0.3317  0.9150
  112SAPE   H3S11643   0.299   1.924   3.108  1.2624  0.5253 -2.0066
  112SAPE   C2411644   0.485   1.838   3.197  0.0668  0.3356  0.0517
  112SAPE   H4R11645   0.533   1.738   3.188 -0.9701 -0.0643 -1.4622
  112SAPE   H4S11646   0.446   1.836   3.301  1.0016  0.3803  0.4131
  112SAPE   C2511647   0.578   1.948   3.178 -0.5132 -0.1800  0.1631
  112SAPE   H5R11648   0.634   1.953   3.084  0.9378  4.1766  1.0332
  112SAPE   C2611649   0.598   2.054   3.261  0.5381  0.2952 -1.3626
  112SAPE   H6R11650   0.669   2.131   3.229  1.4763 -0.0704 -0.2204
  112SAPE   C2711651   0.528   2.087   3.394 -0.1904 -0.2210  0.2813
  112SAPE   H7R11652   0.418   2.091   3.381 -0.0250  1.9918 -0.8914
  112SAPE   H7S11653   0.544   2.193   3.420  0.2001 -0.3721  0.6761
  112SAPE   C2811654   0.589   2.005   3.496 -0.9126  0.5346 -0.4284
  112SAPE   H8R11655   0.679   1.947   3.471 -1.9256 -0.9714 -0.7593
  112SAPE   C2911656   0.539   1.989   3.620 -0.1094 -0.0172 -0.0478
  112SAPE   H9R11657   0.604   1.931   3.688 -0.1122 -0.2675 -0.2546
  112SAPE  C21011658   0.423   2.071   3.671  0.6220 -0.1550 -0.5531
  112SAPE  H10R11659   0.339   2.003   3.700  0.8342 -0.5900 -0.9451
  112SAPE  H10S11660   0.378   2.137   3.594 -0.9224 -0.2800  0.1943
  112SAPE  C21111661   0.469   2.151   3.786 -0.6019 -0.2910  0.1332
  112SAPE  H11R11662   0.507   2.250   3.756  1.2119 -0.4915  1.5777
  112SAPE  C21211663   0.471   2.109   3.913 -0.0386 -0.2615 -0.2763
  112SAPE  H12R11664   0.509   2.181   3.986 -2.3233  1.2232 -0.4749
  112SAPE  C21311665   0.421   1.971   3.958  0.4303  0.0915 -0.6706
  112SAPE  H13R11666   0.412   1.899   3.874 -0.5321  1.7012 -2.0077
  112SAPE  H13S11667   0.313   1.974   3.984  0.2821  1.6131 -1.3807
  112SAPE  C21411668   0.506   1.904   4.063 -0.1914  0.2649 -0.4402
  112SAPE  H14R11669   0.598   1.860   4.023 -1.1474 -0.7381 -1.6563
  112SAPE  C21511670   0.474   1.882   4.193  0.2915  0.0365  0.9330
  112SAPE  H15R11671   0.539   1.833   4.267  0.3429  0.4567  1.1723
  112SAPE  C21611672   0.352   1.939   4.255  0.8577  0.2271  0.0216
  112SAPE  H16R11673   0.268   1.869   4.232  0.9133 -0.1017  0.7729
  112SAPE  H16S11674   0.332   2.039   4.211 -1.2279 -0.5145 -0.8496
  112SAPE  C21711675   0.363   1.961   4.409  0.1239 -0.4136 -0.0391
  112SAPE  H17R11676   0.285   2.031   4.444  0.6434  0.4294 -0.5202
  112SAPE  H17S11677   0.463   2.002   4.435  0.2396 -0.5799 -0.2186
  112SAPE  C21811678   0.353   1.825   4.486 -0.1438 -0.2032  0.6005
  112SAPE  H18R11679   0.443   1.762   4.468 -0.9533 -1.3174  0.3594
  112SAPE  H18S11680   0.259   1.777   4.451 -0.3131 -0.0347  0.8237
  112SAPE  C21911681   0.350   1.835   4.640 -0.5787  0.3324 -0.2541
  112SAPE  H19R11682   0.270   1.905   4.672 -1.9827 -3.0255  4.9655
  112SAPE  H19S11683   0.448   1.870   4.678 -0.1352  0.8677 -1.8298
  112SAPE  C22011684   0.316   1.702   4.715 -0.0029 -0.4401 -0.3192
  112SAPE  H20R11685   0.400   1.631   4.697  1.5067  0.5946  2.2737
  112SAPE  H20S11686   0.218   1.659   4.684 -0.4207 -0.2275  0.6689
  112SAPE  H20T11687   0.319   1.713   4.825  0.0086 -1.0091 -0.2576
  112SAPE   C3311688   0.249   1.267   3.253  0.4520  0.6045  0.6993
  112SAPE   H3X11689   0.309   1.174   3.254  1.9031  1.5071  0.5507
  112SAPE   H3Y11690   0.177   1.255   3.168  1.1148  2.0943 -0.1144
  112SAPE   C3411691   0.170   1.277   3.378  0.1437 -0.0638 -0.3991
  112SAPE   H4X11692   0.098   1.194   3.393 -2.4492  2.1083 -0.1868
  112SAPE   H4Y11693   0.106   1.368   3.373 -2.0656 -1.2618  2.6432
  112SAPE   C3511694   0.265   1.305   3.501 -0.4479  0.7093  0.6446
  112SAPE   H5X11695   0.307   1.405   3.482 -1.9922  1.4533  0.9321
  112SAPE   H5Y11696   0.348   1.236   3.526  0.8074  1.4594 -1.2661
  112SAPE   C3611697   0.185   1.296   3.635 -0.1739 -0.3747  0.0166
  112SAPE   H6X11698   0.096   1.358   3.615  0.2153  0.0633 -0.3816
  112SAPE   H6Y11699   0.249   1.337   3.716  2.1378 -3.1257 -0.2202
  112SAPE   C3711700   0.140   1.157   3.675  0.0789  0.5665 -1.0688
  112SAPE   H7X11701   0.230   1.092   3.665  1.8482  2.1900  2.3241
  112SAPE   H7Y11702   0.058   1.127   3.607 -0.6355 -2.4914  0.9307
  112SAPE   C3811703   0.078   1.148   3.819  0.4839  0.1028 -0.0659
  112SAPE   H8X11704  -0.001   1.226   3.829 -0.8475 -1.4586  2.9253
  112SAPE   H8Y11705   0.167   1.165   3.883  2.3781 -1.3098 -2.1717
  112SAPE   C3911706   0.022   1.018   3.865 -0.0908  0.7116 -0.1360
  112SAPE   H9X11707   0.104   0.942   3.868 -0.7227 -0.1729 -2.6998
  112SAPE   H9Y11708  -0.054   0.971   3.800 -0.2261  1.3144 -0.4172
  112SAPE  C31011709  -0.036   1.013   4.006 -0.4897 -0.3704 -0.6596
  112SAPE  H10X11710  -0.118   1.087   4.008  0.6934  0.9955  1.6335
  112SAPE  H10Y11711   0.034   1.046   4.086 -1.0058 -3.2825  1.1911
  112SAPE  C31111712  -0.101   0.876   4.039 -0.0678 -0.0511 -0.0623
  112SAPE  H11X11713  -0.024   0.795   4.046  1.2747  1.2012  0.1256
  112SAPE  H11Y11714  -0.181   0.862   3.963  0.3494  2.0491 -0.9520
  112SAPE  C31211715  -0.166   0.899   4.177 -0.0558  0.6724  0.0787
  112SAPE  H12X11716  -0.238   0.983   4.166 -0.1526  0.4176 -1.5191
  112SAPE  H12Y11717  -0.083   0.913   4.250  0.4386  0.3351 -0.4138
  112SAPE  C31311718  -0.250   0.777   4.223  0.0529  0.1347  0.1190
  112SAPE  H13X11719  -0.193   0.682   4.212 -0.6057 -0.4771  1.5848
  112SAPE  H13Y11720  -0.344   0.767   4.164  0.2235 -0.9310 -0.0003
  112SAPE  C31411721  -0.283   0.788   4.371  0.1684 -0.6649  0.5618
  112SAPE  H14X11722  -0.334   0.884   4.397  0.2057 -0.8552  1.3625
  112SAPE  H14Y11723  -0.188   0.789   4.430  1.3495 -0.4792 -1.2459
  112SAPE  C31511724  -0.386   0.687   4.420  0.4841  0.3264  0.6251
  112SAPE  H15X11725  -0.339   0.587   4.412 -1.6138 -1.0051  3.1671
  112SAPE  H15Y11726  -0.462   0.695   4.340  0.1887  1.5393  1.0069
  112SAPE  C31611727  -0.445   0.715   4.559  0.8892 -0.3593  0.3911
  112SAPE  H16X11728  -0.526   0.640   4.571  2.5872 -2.1839  0.9038
  112SAPE  H16Y11729  -0.484   0.818   4.577  1.5609 -0.5827  3.6515
  112SAPE  C31711730  -0.353   0.694   4.678  0.2038  0.0824  0.0270
  112SAPE  H17X11731  -0.419   0.687   4.767 -0.2178  1.1143 -0.1926
  112SAPE  H17Y11732  -0.280   0.775   4.703  1.2124 -1.3923  2.1890
  112SAPE  C31811733  -0.256   0.575   4.667  0.1151  0.6721  0.1957
  112SAPE  H18X11734  -0.174   0.569   4.742  1.6242  0.0896 -1.4322
  112SAPE  H18Y11735  -0.199   0.577   4.572  2.0603 -1.0892  1.2373
  112SAPE  H18Z11736  -0.318   0.482   4.666 -0.9531  1.2932  2.2760
  113SAPE     N11737   1.662   0.729   2.584  0.1239  0.6009 -0.1290
  113SAPE   HN111738   1.568   0.774   2.583 -0.1099  0.1136 -0.8168
  113SAPE   HN211739   1.695   0.713   2.487  1.0897  2.2313 -0.1012
  113SAPE   HN311740   1.661   0.641   2.640  1.4417  0.7141  0.0969
  113SAPE   C1211741   1.752   0.824   2.651  0.5274 -0.2348 -0.3671
  113SAPE  H12A11742   1.708   0.850   2.750  1.3864  2.5237 -0.6315
  113SAPE  H12B11743   1.742   0.914   2.587  1.1844 -0.9210 -1.4639
  113SAPE   C1111744   1.898   0.776   2.670  0.8123  0.5637 -0.5836
  113SAPE  H11A11745   1.906   0.722   2.767  2.2969  1.0431 -0.4136
  113SAPE  H11B11746   1.959   0.867   2.682 -2.4470  2.7933  0.4206
  113SAPE     P11747   2.093   0.671   2.528  0.0967  0.0822  0.0842
  113SAPE   O1311748   2.119   0.706   2.389 -0.1773 -0.8526 -0.7772
  113SAPE   O1411749   2.174   0.719   2.636 -0.0563 -0.0731 -0.2135
  113SAPE   O1211750   1.939   0.689   2.567 -0.3924 -0.1599  0.6231
  113SAPE   O1111751   2.106   0.510   2.523  0.6799  0.0455 -0.2357
  113SAPE    C111752   2.006   0.412   2.534  0.5068  0.3532 -0.3863
  113SAPE    HA11753   1.912   0.435   2.478 -0.1155  1.0017  0.8822
  113SAPE    HB11754   2.040   0.310   2.505 -0.2290  0.0310 -0.1449
  113SAPE    C211755   1.960   0.383   2.683  0.4565  0.1168 -0.1836
  113SAPE    HS11756   1.937   0.482   2.727  1.0853  0.1959 -0.0140
  113SAPE   O2111757   2.074   0.319   2.750 -0.3231 -0.7740 -0.3298
  113SAPE   C2111758   2.116   0.375   2.864  0.7196  1.0443 -0.0821
  113SAPE   O2211759   2.062   0.468   2.919 -0.3518  0.1015 -0.0245
  113SAPE   C2211760   2.248   0.303   2.907 -0.2789 -0.4668 -0.3592
  113SAPE   H2R11761   2.265   0.227   2.829  0.4445 -0.4898 -0.1816
  113SAPE   H2S11762   2.318   0.389   2.903 -1.0659  0.1731 -0.6881
  113SAPE    C311763   1.827   0.296   2.690  0.4836 -0.2195 -0.0581
  113SAPE    HX11764   1.838   0.190   2.661 -1.3298 -0.2450 -0.7388
  113SAPE    HY11765   1.759   0.337   2.613  0.1394  2.4610  1.5070
  113SAPE   O3111766   1.769   0.306   2.823 -0.3157  0.3029  0.3331
  113SAPE   C3111767   1.694   0.415   2.856 -0.5208 -1.3783 -0.2330
  113SAPE   O3211768   1.688   0.519   2.787 -0.2259  1.1958 -0.0152
  113SAPE   C3211769   1.624   0.392   2.988 -0.1601 -0.4132 -0.5734
  113SAPE   H2X11770   1.691   0.327   3.048  1.2595  1.5342  0.0559
  113SAPE   H2Y11771   1.530   0.336   2.972 -1.1383  1.0797 -0.1832
  113SAPE   C2311772   2.244   0.242   3.053 -0.1439  0.1260  0.1234
  113SAPE   H3R11773   2.323   0.164   3.046  0.4311  0.8369 -2.0636
  113SAPE   H3S11774   2.140   0.205   3.064 -0.8234  2.1525  0.9847
  113SAPE   C2411775   2.266   0.352   3.157  0.5563  0.4938 -0.6286
  113SAPE   H4R11776   2.178   0.420   3.151 -1.3062 -1.3349  2.9464
  113SAPE   H4S11777   2.350   0.421   3.133  1.6529  0.6734  3.0801
  113SAPE   C2511778   2.299   0.315   3.300  0.2966  0.2717  0.0481
  113SAPE   H5R11779   2.385   0.247   3.307  0.6868  0.4131 -2.5799
  113SAPE   C2611780   2.229   0.343   3.412 -0.8247 -0.2191  0.7124
  113SAPE   H6R11781   2.275   0.309   3.506  0.0509 -1.8852 -0.2757
  113SAPE   C2711782   2.111   0.442   3.414 -0.2243  0.6807  0.1729
  113SAPE   H7R11783   2.085   0.477   3.312  2.0178  0.8805 -0.3804
  113SAPE   H7S11784   2.137   0.530   3.477 -1.0978 -0.1257  1.7229
  113SAPE   C2811785   1.990   0.364   3.470 -0.8917  0.2956 -0.5143
  113SAPE   H8R11786   1.953   0.294   3.394 -1.2202  0.9431 -0.9608
  113SAPE   C2911787   1.915   0.401   3.579 -0.6020 -0.0983 -0.5229
  113SAPE   H9R11788   1.824   0.354   3.618 -2.1972  1.9584 -1.5425
  113SAPE  C21011789   1.959   0.508   3.680  0.7527 -0.2346 -0.6241
  113SAPE  H10R11790   1.873   0.522   3.749  1.8530 -1.5316  1.0884
  113SAPE  H10S11791   1.972   0.610   3.638  0.6651  0.6223  1.3452
  113SAPE  C21111792   2.077   0.460   3.766 -0.4518 -0.5413  0.0081
  113SAPE  H11R11793   2.142   0.384   3.720 -1.1226 -1.0863 -0.0576
  113SAPE  C21211794   2.093   0.501   3.893  0.4122  0.3282 -0.5715
  113SAPE  H12R11795   2.186   0.470   3.944  0.1508 -2.0904 -1.4441
  113SAPE  C21311796   2.003   0.582   3.982 -0.4785 -0.1504  1.3694
  113SAPE  H13R11797   1.941   0.650   3.919  1.3670  0.8210  0.5277
  113SAPE  H13S11798   2.081   0.642   4.032  2.1057 -1.4281 -0.8363
  113SAPE  C21411799   1.919   0.501   4.076 -0.4832 -0.5269  0.1306
  113SAPE  H14R11800   1.893   0.397   4.051  2.8576 -1.6539  0.7888
  113SAPE  C21511801   1.882   0.541   4.201 -0.5079  0.3776  0.3683
  113SAPE  H15R11802   1.842   0.461   4.265 -0.3065 -1.4983 -1.7282
  113SAPE  C21611803   1.894   0.670   4.270 -0.3698  0.5783 -0.2349
  113SAPE  H16R11804   1.806   0.679   4.338  0.1033 -0.7642  0.6045
  113SAPE  H16S11805   1.920   0.752   4.200  0.8895  2.7354  2.5717
  113SAPE  C21711806   2.010   0.668   4.374 -0.1038 -0.1938 -0.1641
  113SAPE  H17R11807   2.033   0.774   4.399 -2.3567 -0.1207  2.0015
  113SAPE  H17S11808   2.098   0.615   4.332 -0.3385 -1.1867  0.5709
  113SAPE  C21811809   1.964   0.616   4.512  0.3504 -0.7418  0.3865
  113SAPE  H18R11810   1.926   0.515   4.487 -0.3192 -0.3891 -0.0424
  113SAPE  H18S11811   1.887   0.683   4.556  1.4735  1.2068 -0.5025
  113SAPE  C21911812   2.083   0.581   4.601  0.2019  0.5698  0.1490
  113SAPE  H19R11813   2.145   0.508   4.545  0.7268  1.6927 -0.7863
  113SAPE  H19S11814   2.052   0.529   4.694  0.1582  1.0618  0.4150
  113SAPE  C22011815   2.165   0.703   4.650 -0.4783  0.2564  0.8532
  113SAPE  H20R11816   2.101   0.778   4.702  0.1214  2.4035 -1.3451
  113SAPE  H20S11817   2.225   0.759   4.575  1.8666 -0.3973  2.1352
  113SAPE  H20T11818   2.242   0.661   4.718 -0.1174  2.0091  1.5705
  113SAPE   C3311819   1.601   0.521   3.065  0.3491  0.3037 -0.5665
  113SAPE   H3X11820   1.494   0.519   3.094  0.5875  2.0370  0.5610
  113SAPE   H3Y11821   1.625   0.605   2.996 -0.4382  0.8465 -0.2062
  113SAPE   C3411822   1.688   0.543   3.187 -0.3876 -0.1065 -1.5724
  113SAPE   H4X11823   1.785   0.572   3.140 -0.9909  2.7381 -1.2003
  113SAPE   H4Y11824   1.702   0.460   3.259  1.9113  2.2194  0.8765
  113SAPE   C3511825   1.636   0.658   3.275  0.0366 -0.2602 -0.0845
  113SAPE   H5X11826   1.530   0.639   3.303  0.0813  1.2656  1.2531
  113SAPE   H5Y11827   1.633   0.750   3.213  0.1657 -1.8512 -2.5957
  113SAPE   C3611828   1.708   0.693   3.407  0.5904 -0.5065  0.8293
  113SAPE   H6X11829   1.812   0.729   3.390  0.3998 -0.2672  0.1643
  113SAPE   H6Y11830   1.724   0.594   3.457 -0.0645 -0.2190  1.6251
  113SAPE   C3711831   1.623   0.794   3.497 -0.0686  0.1342 -0.7778
  113SAPE   H7X11832   1.518   0.758   3.491 -0.7263  2.0038 -1.0820
  113SAPE   H7Y11833   1.641   0.892   3.448  1.9391  0.5942  0.7297
  113SAPE   C3811834   1.675   0.786   3.640  0.1353 -0.4481 -0.3053
  113SAPE   H8X11835   1.684   0.679   3.668  0.7809 -0.0863  0.9533
  113SAPE   H8Y11836   1.780   0.822   3.644 -0.1436  0.3287  2.2747
  113SAPE   C3911837   1.589   0.862   3.741 -0.1752  0.7874  0.4072
  113SAPE   H9X11838   1.479   0.846   3.731 -0.1311  0.9529 -0.4125
  113SAPE   H9Y11839   1.609   0.970   3.724  0.8057  0.8567  1.8676
  113SAPE  C31011840   1.624   0.822   3.889  0.1890  0.2218  0.4081
  113SAPE  H10X11841   1.730   0.834   3.919 -0.0019  2.4185  0.4014
  113SAPE  H10Y11842   1.601   0.714   3.883  0.0127  0.3311 -3.6503
  113SAPE  C31111843   1.536   0.897   3.984 -0.2552  0.6154 -0.1040
  113SAPE  H11X11844   1.430   0.882   3.954  0.1472  0.1775 -1.3849
  113SAPE  H11Y11845   1.539   1.008   3.983  0.7711  0.6404  1.7964
  113SAPE  C31211846   1.559   0.845   4.129 -0.2500 -0.2204 -0.0807
  113SAPE  H12X11847   1.660   0.874   4.167 -0.2341 -1.5707  0.9919
  113SAPE  H12Y11848   1.552   0.734   4.128 -0.1603 -0.2340  0.3018
  113SAPE  C31311849   1.448   0.908   4.222 -0.2680  0.0271 -1.0026
  113SAPE  H13X11850   1.358   0.860   4.178 -0.2201 -0.9762 -0.0547
  113SAPE  H13Y11851   1.454   1.019   4.223 -0.2396  0.0312 -0.0848
  113SAPE  C31411852   1.451   0.858   4.366 -0.4098  0.0297 -0.3191
  113SAPE  H14X11853   1.543   0.888   4.421 -1.1288 -1.2089  1.6490
  113SAPE  H14Y11854   1.464   0.748   4.366 -0.0875  0.0663 -0.0963
  113SAPE  C31511855   1.334   0.906   4.454 -0.3139  0.3915  0.4378
  113SAPE  H15X11856   1.246   0.901   4.386  0.5564 -0.6213 -0.6589
  113SAPE  H15Y11857   1.338   1.014   4.479 -0.3037  0.4974 -0.0098
  113SAPE  C31611858   1.314   0.835   4.577 -0.5592 -0.4132  0.1536
  113SAPE  H16X11859   1.314   0.726   4.554 -0.1388 -0.7220  1.5195
  113SAPE  H16Y11860   1.216   0.858   4.625 -0.3192 -0.3823  0.6365
  113SAPE  C31711861   1.429   0.844   4.676  0.0736 -0.5162  0.4181
  113SAPE  H17X11862   1.522   0.806   4.628 -0.0021  0.3738 -0.4609
  113SAPE  H17Y11863   1.405   0.770   4.756 -0.8257  1.8902  2.5054
  113SAPE  C31811864   1.444   0.980   4.739 -0.3028 -0.4404  0.4208
  113SAPE  H18X11865   1.495   1.054   4.674 -0.7054  0.9063  1.6031
  113SAPE  H18Y11866   1.487   0.966   4.840 -1.2900  0.4518  0.9853
  113SAPE  H18Z11867   1.339   1.014   4.753 -0.7604 -1.8025  0.4957
  114SAPE     N11868   3.315   1.397   2.703 -0.0701  0.0677  0.0131
  114SAPE   HN111869   3.356   1.341   2.625 -0.8352  2.1302 -1.9914
  114SAPE   HN211870   3.212   1.395   2.695 -0.0664  1.6700 -0.8840
  114SAPE   HN311871   3.358   1.492   2.700 -0.4425  0.2897  1.2321
  114SAPE   C1211872   3.358   1.320   2.826  0.9100  0.0250  0.3770
  114SAPE  H12A11873   3.288   1.235   2.838  1.3610 -0.3653  0.2637
  114SAPE  H12B11874   3.345   1.397   2.906  1.9429  2.8434 -1.9610
  114SAPE   C1111875   3.503   1.264   2.834  0.6620 -0.2372  0.3213
  114SAPE  H11A11876   3.491   1.158   2.805 -1.8139  0.0804 -0.0295
  114SAPE  H11B11877   3.539   1.267   2.939 -0.4456 -0.5322  0.7208
  114SAPE     P11878   3.719   1.281   2.704  0.3217 -0.0424 -0.2984
  114SAPE   O1311879   3.683   1.167   2.617  0.0294 -0.3896  0.3040
  114SAPE   O1411880   3.813   1.385   2.650  0.1807  0.1199  0.0327
  114SAPE   O1211881   3.588   1.349   2.761 -0.1328 -0.2790 -0.4764
  114SAPE   O1111882   3.780   1.224   2.836  0.3619 -0.2596  0.0311
  114SAPE    C111883   3.923   1.191   2.842  0.0701 -0.5385 -0.4209
  114SAPE    HA11884   3.950   1.094   2.794 -1.0269 -0.3986 -1.3648
  114SAPE    HB11885   3.990   1.271   2.804  0.6574 -0.0899  1.4616
  114SAPE    C211886   3.978   1.179   2.987  0.2826  0.5071 -0.2352
  114SAPE    HS11887   4.088   1.171   2.988  0.1653 -1.6732 -0.3709
  114SAPE   O2111888   3.919   1.067   3.050  1.0060  0.3312  0.6823
  114SAPE   C2111889   3.979   0.947   3.035  0.1409 -0.3736 -0.1378
  114SAPE   O2211890   4.086   0.931   2.972  0.5909  0.4978 -0.2716
  114SAPE   C2211891   3.908   0.839   3.114  0.3826  0.0334  0.1733
  114SAPE   H2R11892   3.830   0.890   3.176  0.6157 -3.8131  4.1181
  114SAPE   H2S11893   3.865   0.772   3.037 -0.6490  1.0898 -0.2002
  114SAPE    C311894   3.937   1.306   3.074  0.2114  0.3463 -0.3526
  114SAPE    HX11895   3.827   1.322   3.068  0.0018  0.1576  2.0509
  114SAPE    HY11896   3.982   1.399   3.033 -0.5196  0.7035 -0.3653
  114SAPE   O3111897   3.979   1.293   3.207 -0.1109  0.1442  0.1011
  114SAPE   C3111898   3.918   1.382   3.284  0.0289  0.6083  1.3622
  114SAPE   O3211899   3.838   1.466   3.243  0.2579  0.2913 -0.0512
  114SAPE   C3211900   3.967   1.357   3.422  0.5363  0.0310  0.2058
  114SAPE   H2X11901   4.040   1.434   3.455  1.9573 -1.7062  1.3172
  114SAPE   H2Y11902   4.019   1.260   3.433  1.0129  0.3668  0.9810
  114SAPE   C2311903   4.009   0.769   3.201 -0.2043 -0.3171  0.6093
  114SAPE   H3R11904   4.082   0.717   3.135 -0.0193  0.3492  0.2796
  114SAPE   H3S11905   3.972   0.694   3.274 -0.3292 -0.7574  0.1019
  114SAPE   C2411906   4.081   0.864   3.298  0.0708 -0.0542  0.3441
  114SAPE   H4R11907   4.136   0.940   3.238 -2.5101 -1.2575 -3.9387
  114SAPE   H4S11908   4.157   0.801   3.348 -0.6296 -0.3015  1.1245
  114SAPE   C2511909   3.987   0.936   3.398 -0.2770 -0.0761 -0.7596
  114SAPE   H5R11910   3.934   1.025   3.361 -1.2522  0.9187  2.7049
  114SAPE   C2611911   3.979   0.906   3.534 -0.1509 -0.1228  1.1178
  114SAPE   H6R11912   3.913   0.976   3.587  0.6764  3.5638 -2.2276
  114SAPE   C2711913   4.037   0.789   3.611  0.4272 -0.3676 -0.9081
  114SAPE   H7R11914   4.119   0.829   3.674  0.3407  2.8168 -2.6283
  114SAPE   H7S11915   4.092   0.724   3.539  3.4849 -0.5138  1.3387
  114SAPE   C2811916   3.941   0.711   3.698 -0.3969 -0.2419 -0.6806
  114SAPE   H8R11917   3.848   0.678   3.649 -0.9976 -1.1241  0.9721
  114SAPE   C2911918   3.963   0.667   3.822 -0.2125 -0.3556  0.3343
  114SAPE   H9R11919   3.887   0.611   3.878  1.1654 -3.0757 -0.3151
  114SAPE  C21011920   4.094   0.700   3.900  0.6608  0.0542 -0.2890
  114SAPE  H10R11921   4.094   0.809   3.916 -1.1883 -0.1772  1.5679
  114SAPE  H10S11922   4.185   0.678   3.839  0.3837 -0.4051 -0.5501
  114SAPE  C21111923   4.118   0.611   4.017  0.8056  0.1671  0.0018
  114SAPE  H11R11924   4.115   0.506   3.984  2.2714 -0.0627  0.4991
  114SAPE  C21211925   4.132   0.638   4.151  0.4605 -0.4310  0.1424
  114SAPE  H12R11926   4.139   0.556   4.224 -1.4730  0.0462  0.9057
  114SAPE  C21311927   4.134   0.776   4.211  0.0569  0.0625 -0.8926
  114SAPE  H13R11928   4.099   0.856   4.143  0.4240 -0.1494 -1.3313
  114SAPE  H13S11929   4.240   0.800   4.233  0.2815 -0.6058 -1.2305
  114SAPE  C21411930   4.050   0.782   4.339 -0.2226 -0.6090  0.2234
  114SAPE  H14R11931   3.941   0.767   4.330 -0.2794  0.3990 -1.0329
  114SAPE  C21511932   4.092   0.807   4.465 -0.4046  0.4985 -0.3664
  114SAPE  H15R11933   4.020   0.807   4.548 -0.2691 -1.0830 -0.2264
  114SAPE  C21611934   4.237   0.828   4.505  0.2528 -0.6210  0.0780
  114SAPE  H16R11935   4.310   0.777   4.438  0.3823 -1.3672  0.7827
  114SAPE  H16S11936   4.254   0.770   4.598 -1.5366  0.5765  1.2074
  114SAPE  C21711937   4.267   0.977   4.536  0.1056  0.0694 -0.0060
  114SAPE  H17R11938   4.182   1.021   4.593  2.5294 -1.0965  5.1348
  114SAPE  H17S11939   4.277   1.035   4.442 -2.7782 -1.2325 -1.2180
  114SAPE  C21811940   4.401   0.997   4.612  0.0817  0.5938  0.1892
  114SAPE  H18R11941   4.496   0.992   4.555  1.1965 -0.0523  2.0104
  114SAPE  H18S11942   4.394   0.914   4.686 -1.3666 -0.1602 -0.7553
  114SAPE  C21911943   4.409   1.124   4.694  0.3512  0.3602 -0.1262
  114SAPE  H19R11944   4.316   1.134   4.754  0.4876 -0.5540  0.2509
  114SAPE  H19S11945   4.420   1.209   4.623 -3.7716  0.7929 -0.4843
  114SAPE  C22011946   4.532   1.125   4.785  0.3485 -0.5285 -0.9832
  114SAPE  H20R11947   4.525   1.037   4.853 -1.8053  0.2365 -0.1601
  114SAPE  H20S11948   4.539   1.213   4.852  2.1027  1.3399 -3.4280
  114SAPE  H20T11949   4.620   1.126   4.716  0.2366  1.4538 -1.1394
  114SAPE   C3311950   3.848   1.365   3.519  0.0334 -0.1144  0.4589
  114SAPE   H3X11951   3.773   1.286   3.497  0.0291  0.1404 -0.5115
  114SAPE   H3Y11952   3.798   1.463   3.501 -0.2507 -0.0049  1.7361
  114SAPE   C3411953   3.875   1.352   3.676  0.1964 -0.5343 -0.5221
  114SAPE   H4X11954   3.925   1.265   3.724  0.6286 -0.1172 -0.2134
  114SAPE   H4Y11955   3.771   1.342   3.714 -0.1992  1.6102 -0.9113
  114SAPE   C3511956   3.921   1.485   3.739  0.5474 -0.7424 -0.4790
  114SAPE   H5X11957   3.845   1.562   3.710 -1.1790 -2.6217 -1.1775
  114SAPE   H5Y11958   4.009   1.523   3.683  0.5142  0.4361  0.2232
  114SAPE   C3611959   3.939   1.477   3.891  0.1196 -0.4914  0.4577
  114SAPE   H6X11960   4.032   1.427   3.926  0.7982  2.1150  2.6967
  114SAPE   H6Y11961   3.857   1.422   3.943  0.7743 -0.6599  1.3426
  114SAPE   C3711962   3.936   1.611   3.966  0.2645  0.1997  0.3925
  114SAPE   H7X11963   3.841   1.662   3.936  0.0039 -1.2315 -1.4050
  114SAPE   H7Y11964   4.026   1.667   3.934  0.4320 -0.6887 -0.7824
  114SAPE   C3811965   3.941   1.598   4.120 -0.4201  0.1519  0.1153
  114SAPE   H8X11966   4.048   1.587   4.145 -0.7177 -2.9592  0.3510
  114SAPE   H8Y11967   3.882   1.511   4.155 -2.3951  2.5713  3.4872
  114SAPE   C3911968   3.878   1.708   4.208 -0.1198 -0.0840  0.5769
  114SAPE   H9X11969   3.771   1.725   4.185  0.4445 -0.7420 -3.0995
  114SAPE   H9Y11970   3.931   1.806   4.204 -0.4794  0.1964  2.0159
  114SAPE  C31011971   3.883   1.670   4.362  0.4452  0.3420 -0.0657
  114SAPE  H10X11972   3.979   1.615   4.375 -0.2924 -1.0594 -0.4117
  114SAPE  H10Y11973   3.797   1.605   4.389  0.2930  0.6599  0.2391
  114SAPE  C31111974   3.880   1.800   4.457 -0.5457  0.4097  0.6730
  114SAPE  H11X11975   3.785   1.846   4.422 -0.1817 -0.8754 -2.2609
  114SAPE  H11Y11976   3.959   1.875   4.436 -0.1348 -0.0294  0.6408
  114SAPE  C31211977   3.888   1.777   4.616  0.8493 -0.1534  0.6478
  114SAPE  H12X11978   3.855   1.675   4.647 -0.1583 -1.2008 -3.2298
  114SAPE  H12Y11979   3.816   1.849   4.659  0.4455  1.4042 -2.3663
  114SAPE  C31311980   4.024   1.800   4.674 -0.9709 -0.1494  0.0454
  114SAPE  H13X11981   4.058   1.905   4.689 -0.1823 -0.3999  0.0329
  114SAPE  H13Y11982   4.100   1.748   4.612 -1.3172 -0.4028 -0.1703
  114SAPE  C31411983   4.049   1.757   4.820 -0.5291  0.1474 -0.6948
  114SAPE  H14X11984   4.154   1.746   4.856 -0.8580 -2.6537 -0.3975
  114SAPE  H14Y11985   4.009   1.656   4.842  0.5149 -0.5187 -1.7461
  114SAPE  C31511986   3.963   1.847   4.911 -0.5812  0.5183  0.6182
  114SAPE  H15X11987   3.854   1.834   4.892 -0.4949  1.0273 -0.3212
  114SAPE  H15Y11988   3.990   1.950   4.879 -0.8487  0.7037  0.9834
  114SAPE  C31611989   3.977   1.815   5.061 -0.0173 -1.1550  0.5549
  114SAPE  H16X11990   3.948   1.903   5.123  1.2810 -0.1828 -0.1913
  114SAPE  H16Y11991   4.086   1.800   5.073  0.7381  0.7820 -2.6664
  114SAPE  C31711992   3.893   1.699   5.116 -0.0940  0.0408 -0.6660
  114SAPE  H17X11993   3.918   1.605   5.062  1.1561 -1.2734  2.0198
  114SAPE  H17Y11994   3.786   1.720   5.095 -1.0787 -1.3777  2.3866
  114SAPE  C31811995   3.911   1.676   5.266 -0.0930 -0.3148  0.3293
  114SAPE  H18X11996   3.836   1.611   5.316  0.4332  1.5537  3.8830
  114SAPE  H18Y11997   3.904   1.773   5.321  0.7937 -0.1975  0.2511
  114SAPE  H18Z11998   4.004   1.618   5.283 -0.9718 -1.4872  1.3223
  115SAPE     N11999   2.065   5.004   2.858  0.3620  0.2826 -0.5875
  115SAPE   HN112000   1.965   4.982   2.839  0.4808 -0.8150 -0.0375
  115SAPE   HN212001   2.078   5.076   2.931  0.0318  0.1371 -0.3858
  115SAPE   HN312002   2.109   5.031   2.768 -1.5116  0.2284 -1.5536
  115SAPE   C1212003   2.118   4.871   2.907  0.2832 -0.0548  0.4011
  115SAPE  H12A12004   2.047   4.832   2.983 -1.4750 -0.4462 -1.3862
  115SAPE  H12B12005   2.223   4.881   2.942  0.4934  0.5732 -0.3728
  115SAPE   C1112006   2.130   4.767   2.800 -0.6857  0.3007 -0.3754
  115SAPE  H11A12007   2.033   4.753   2.746 -1.1285 -1.5749  0.7990
  115SAPE  H11B12008   2.148   4.675   2.860  0.5808  0.8381  0.0992
  115SAPE     P12009   2.387   4.795   2.713 -0.1849  0.0929 -0.3180
  115SAPE   O1312010   2.437   4.682   2.800  0.1860  0.3294 -0.3677
  115SAPE   O1412011   2.435   4.791   2.572  0.0153 -0.4322  0.4548
  115SAPE   O1212012   2.236   4.798   2.708  0.3097  0.1551 -0.1269
  115SAPE   O1112013   2.420   4.929   2.782  0.2969 -0.1700 -0.3977
  115SAPE    C112014   2.559   4.969   2.790  0.3684  0.5861  0.3185
  115SAPE    HA12015   2.628   4.915   2.722  0.5327 -1.0679  1.7438
  115SAPE    HB12016   2.549   5.074   2.754  0.6225  0.2516 -0.7570
  115SAPE    C212017   2.603   4.967   2.935 -0.4275 -0.2661 -0.1609
  115SAPE    HS12018   2.607   4.861   2.969 -0.9795  0.2189  1.5017
  115SAPE   O2112019   2.509   5.045   3.015  0.8627 -0.1619  0.1691
  115SAPE   C2112020   2.454   4.985   3.116  0.9616  0.0685 -0.8383
  115SAPE   O2212021   2.470   4.873   3.157  0.1532 -0.2233  0.3517
  115SAPE   C2212022   2.336   5.069   3.174  1.0259 -0.0280 -0.3996
  115SAPE   H2R12023   2.375   5.173   3.172 -0.1963  0.4674  0.5221
  115SAPE   H2S12024   2.248   5.059   3.106  2.4188 -2.0937 -2.0446
  115SAPE    C312025   2.744   5.014   2.956 -0.3874 -1.2275  0.3720
  115SAPE    HX12026   2.738   5.113   2.906 -3.4241 -0.6536  1.6264
  115SAPE    HY12027   2.823   4.952   2.909  0.0098  0.7318 -1.6873
  115SAPE   O3112028   2.771   5.030   3.097  0.2392  0.2925 -0.4855
  115SAPE   C3112029   2.823   4.937   3.172  0.5566  0.6936  0.7042
  115SAPE   O3212030   2.848   4.823   3.131  0.5215  0.1535  0.0183
  115SAPE   C3212031   2.870   4.989   3.307 -0.2057  0.4023  0.4584
  115SAPE   H2X12032   2.804   5.070   3.345  2.0568  1.6285  1.9724
  115SAPE   H2Y12033   2.970   5.025   3.275  0.1381 -0.9510 -0.0752
  115SAPE   C2312034   2.291   5.027   3.320  0.3256 -0.2020 -0.2178
  115SAPE   H3R12035   2.284   4.919   3.344 -0.7195  0.1895  1.4717
  115SAPE   H3S12036   2.191   5.069   3.344  0.6859 -0.4417  1.9562
  115SAPE   C2412037   2.385   5.093   3.421  0.7177  0.3892  0.4398
  115SAPE   H4R12038   2.381   5.204   3.410  1.8886  0.2596 -2.1614
  115SAPE   H4S12039   2.489   5.058   3.401  0.7885 -0.3803  2.0051
  115SAPE   C2512040   2.358   5.043   3.563  0.3159 -0.4870 -0.0496
  115SAPE   H5R12041   2.311   4.944   3.566  0.1134 -0.3718  0.7100
  115SAPE   C2612042   2.390   5.096   3.676  0.0757 -0.7162 -0.9592
  115SAPE   H6R12043   2.357   5.048   3.770 -0.5882  1.1732 -0.1728
  115SAPE   C2712044   2.468   5.225   3.694 -0.2393 -0.6594 -0.0814
  115SAPE   H7R12045   2.492   5.275   3.598  0.2143 -0.7582 -0.0225
  115SAPE   H7S12046   2.561   5.196   3.749  0.9916  1.8126 -0.6962
  115SAPE   C2812047   2.393   5.321   3.782  0.7856  0.6765 -0.0240
  115SAPE   H8R12048   2.320   5.385   3.732 -0.9552 -2.0818 -1.2345
  115SAPE   C2912049   2.411   5.343   3.914 -0.2481  0.4792  0.4341
  115SAPE   H9R12050   2.344   5.414   3.964 -0.5560  1.0696 -0.7771
  115SAPE  C21012051   2.518   5.283   4.000 -0.3567 -0.3157  0.1607
  115SAPE  H10R12052   2.618   5.331   3.997  0.2418 -1.4618  0.9740
  115SAPE  H10S12053   2.558   5.189   3.956  0.3376  0.0752 -0.0695
  115SAPE  C21112054   2.466   5.253   4.136  0.0431  1.1436 -0.0360
  115SAPE  H11R12055   2.393   5.172   4.147 -0.2812  1.3440 -0.6936
  115SAPE  C21212056   2.525   5.311   4.244 -0.5066 -0.4352 -0.7768
  115SAPE  H12R12057   2.478   5.288   4.341  0.3207 -3.4353 -0.9912
  115SAPE  C21312058   2.637   5.416   4.243 -0.8190 -0.1900 -0.0811
  115SAPE  H13R12059   2.627   5.483   4.156 -1.3974  2.9570  2.2180
  115SAPE  H13S12060   2.735   5.368   4.222 -0.6195  0.4653 -0.6827
  115SAPE  C21412061   2.656   5.491   4.379  0.2421 -0.3992 -0.2030
  115SAPE  H14R12062   2.611   5.591   4.369 -3.1776 -1.9131 -1.9833
  115SAPE  C21512063   2.704   5.448   4.497 -0.1204  0.0106 -0.3050
  115SAPE  H15R12064   2.729   5.524   4.573 -0.5922  0.5430 -0.6780
  115SAPE  C21612065   2.774   5.312   4.522  0.4876  0.1507 -0.1366
  115SAPE  H16R12066   2.784   5.245   4.434 -1.5899 -1.9857  1.1517
  115SAPE  H16S12067   2.715   5.245   4.588 -0.6495  0.1095 -1.1418
  115SAPE  C21712068   2.920   5.333   4.562 -0.4406  0.6703  0.5953
  115SAPE  H17R12069   2.962   5.393   4.478 -1.1515 -1.1804 -1.1574
  115SAPE  H17S12070   2.985   5.243   4.560  0.0612  0.9387  2.7790
  115SAPE  C21812071   2.939   5.412   4.694 -0.1376  0.0806 -0.5267
  115SAPE  H18R12072   2.882   5.350   4.767  0.9717  1.9840  2.1062
  115SAPE  H18S12073   2.888   5.511   4.694  2.0683  1.2985  0.8474
  115SAPE  C21912074   3.081   5.424   4.742 -0.5914 -0.0530 -0.5724
  115SAPE  H19R12075   3.131   5.328   4.771  1.1397  1.1928  0.7910
  115SAPE  H19S12076   3.085   5.487   4.833  1.4388 -1.3552  0.3136
  115SAPE  C22012077   3.180   5.493   4.647 -0.1760  0.2587  0.3799
  115SAPE  H20R12078   3.137   5.590   4.615  0.0613 -0.7173 -3.3274
  115SAPE  H20S12079   3.178   5.438   4.550 -2.5064 -0.5892  0.8440
  115SAPE  H20T12080   3.283   5.496   4.689 -0.4725 -1.6371  1.3562
  115SAPE   C3312081   2.904   4.878   3.406 -0.4252  1.2365 -0.3375
  115SAPE   H3X12082   2.975   4.804   3.365  0.4337  1.2958  0.9901
  115SAPE   H3Y12083   2.812   4.826   3.439 -0.0814  0.4875 -0.5399
  115SAPE   C3412084   2.966   4.934   3.536  0.9504  0.2748  0.2806
  115SAPE   H4X12085   3.058   4.988   3.503  1.6128 -1.5658 -1.0737
  115SAPE   H4Y12086   2.995   4.844   3.595 -0.7966 -1.6768 -1.6684
  115SAPE   C3512087   2.880   5.025   3.619  0.3552  0.9261  0.1663
  115SAPE   H5X12088   2.778   4.981   3.621  0.9280 -0.4702 -0.3102
  115SAPE   H5Y12089   2.889   5.129   3.580 -3.6645  0.4072 -2.8373
  115SAPE   C3612090   2.935   5.027   3.765  0.2034  0.2556 -0.7237
  115SAPE   H6X12091   3.035   5.076   3.773 -0.3568  1.5269 -1.2876
  115SAPE   H6Y12092   2.940   4.924   3.808 -0.8789  1.2389  1.9111
  115SAPE   C3712093   2.842   5.117   3.848 -0.1161 -0.5800 -0.2463
  115SAPE   H7X12094   2.738   5.078   3.843  0.1546 -1.2886 -0.4667
  115SAPE   H7Y12095   2.845   5.209   3.786  0.4766 -0.4588 -0.0429
  115SAPE   C3812096   2.885   5.133   3.997  0.3206 -0.0055  0.1667
  115SAPE   H8X12097   2.912   5.033   4.037 -2.0619 -0.7179  0.1261
  115SAPE   H8Y12098   2.801   5.175   4.056  0.6653 -0.1554  0.7691
  115SAPE   C3912099   3.006   5.225   4.007  0.3273  0.0564 -0.3404
  115SAPE   H9X12100   2.985   5.332   3.987  1.4455  0.2790 -0.3875
  115SAPE   H9Y12101   3.082   5.193   3.933  0.7114 -1.1801  0.5405
  115SAPE  C31012102   3.062   5.220   4.151 -0.4555  0.0043 -0.1986
  115SAPE  H10X12103   3.075   5.116   4.190  0.9515 -0.1944 -1.0998
  115SAPE  H10Y12104   2.988   5.267   4.219 -0.7154 -0.9243  0.1834
  115SAPE  C31112105   3.188   5.301   4.172 -0.1894 -0.8451  0.2636
  115SAPE  H11X12106   3.163   5.409   4.177  1.7043 -0.3965  0.9460
  115SAPE  H11Y12107   3.254   5.295   4.082  0.0313  1.0227  0.2749
  115SAPE  C31212108   3.260   5.266   4.303 -0.3524 -0.3779  0.1668
  115SAPE  H12X12109   3.294   5.160   4.301 -0.9890 -0.5708 -0.7296
  115SAPE  H12Y12110   3.188   5.261   4.387  0.1330 -0.9998  0.5574
  115SAPE  C31312111   3.374   5.364   4.329  0.1842  0.1509  0.5603
  115SAPE  H13X12112   3.403   5.356   4.435 -0.2396  3.6037  1.0445
  115SAPE  H13Y12113   3.335   5.465   4.305 -0.6334  0.1275  1.7181
  115SAPE  C31412114   3.496   5.337   4.239 -0.2580  0.2693  0.1185
  115SAPE  H14X12115   3.472   5.348   4.131  0.9859  0.4641 -0.1635
  115SAPE  H14Y12116   3.528   5.232   4.256  1.9061  0.9524  0.6546
  115SAPE  C31512117   3.613   5.427   4.280 -0.5573 -0.1189 -0.1551
  115SAPE  H15X12118   3.616   5.439   4.391 -1.2340 -1.9443  0.1077
  115SAPE  H15Y12119   3.589   5.526   4.237  0.4517  0.5198  0.7091
  115SAPE  C31612120   3.749   5.392   4.215 -0.5185  0.0743  0.0387
  115SAPE  H16X12121   3.720   5.358   4.113 -0.8535 -2.6603  0.9835
  115SAPE  H16Y12122   3.793   5.300   4.259 -1.0260 -0.3260 -0.2783
  115SAPE  C31712123   3.843   5.511   4.195  0.3832 -0.2051  0.4404
  115SAPE  H17X12124   3.784   5.578   4.129  0.2847 -1.5117 -0.8689
  115SAPE  H17Y12125   3.938   5.484   4.144  1.0053 -0.3938  1.6648
  115SAPE  C31812126   3.878   5.596   4.318  0.4342 -0.4181 -0.1609
  115SAPE  H18X12127   3.963   5.547   4.371  1.1528  0.8178 -0.1186
  115SAPE  H18Y12128   3.803   5.593   4.400  0.3813 -1.9380 -0.2450
  115SAPE  H18Z12129   3.909   5.701   4.295  0.9709 -0.5621 -0.1147
  116SAPE     N12130   4.041   4.420   2.106 -0.4455 -0.6418 -0.1062
  116SAPE   HN112131   4.055   4.500   2.172  1.9463 -0.6441 -0.5234
  116SAPE   HN212132   4.132   4.385   2.068 -1.1457 -3.3504  0.5142
  116SAPE   HN312133   3.983   4.455   2.027 -1.4057 -1.3679  0.2607
  116SAPE   C1212134   3.982   4.311   2.184  0.6705  0.4570  0.8087
  116SAPE  H12A12135   3.955   4.226   2.117 -1.1670  1.9568 -0.4870
  116SAPE  H12B12136   3.884   4.349   2.221 -0.8517  0.0989 -2.4821
  116SAPE   C1112137   4.073   4.263   2.294 -0.1888  0.1392 -0.9271
  116SAPE  H11A12138   4.106   4.349   2.356  0.1289 -0.5293 -0.1693
  116SAPE  H11B12139   4.172   4.223   2.264  0.4085 -0.1691  1.3085
  116SAPE     P12140   4.040   4.012   2.349  0.1648  0.2079  0.0601
  116SAPE   O1312141   3.918   3.929   2.361  0.4923 -0.4942  0.0522
  116SAPE   O1412142   4.120   3.985   2.227 -0.0938  0.1712  0.4744
  116SAPE   O1212143   4.006   4.160   2.372  0.2502 -0.3954  0.2220
  116SAPE   O1112144   4.138   3.967   2.462  0.3744 -0.0771  0.2465
  116SAPE    C112145   4.242   4.048   2.522 -0.0515  0.3757  0.2163
  116SAPE    HA12146   4.342   4.002   2.507 -0.1591  0.1149  0.3037
  116SAPE    HB12147   4.254   4.148   2.474  1.9502  0.8679  1.6026
  116SAPE    C212148   4.214   4.075   2.674  0.6403  0.1874  0.1437
  116SAPE    HS12149   4.292   4.146   2.708 -1.4001  2.2543  0.7529
  116SAPE   O2112150   4.214   3.963   2.758 -0.1320 -0.8338  0.0384
  116SAPE   C2112151   4.332   3.916   2.799 -0.3468 -0.3962 -0.1344
  116SAPE   O2212152   4.439   3.953   2.758 -0.3648  0.2896  0.2469
  116SAPE   C2212153   4.325   3.806   2.915 -0.0576 -0.5748  0.0112
  116SAPE   H2R12154   4.271   3.719   2.872 -0.0219 -0.3423 -0.5187
  116SAPE   H2S12155   4.429   3.775   2.940  0.7298  2.1278  0.4741
  116SAPE    C312156   4.078   4.151   2.691 -0.2379 -0.1397  0.0833
  116SAPE    HX12157   4.001   4.088   2.641  0.4573 -1.7345  0.9752
  116SAPE    HY12158   4.078   4.245   2.631  2.0636 -0.4775 -0.5178
  116SAPE   O3112159   4.043   4.164   2.831 -0.6604 -0.5472  0.3851
  116SAPE   C3112160   4.076   4.273   2.893 -0.1670 -0.1399  0.3418
  116SAPE   O3212161   4.138   4.367   2.841  0.3880 -0.0709 -0.1779
  116SAPE   C3212162   4.030   4.253   3.036  0.6707 -0.2081  0.3617
  116SAPE   H2X12163   4.059   4.151   3.069  1.7118 -0.3520 -0.9344
  116SAPE   H2Y12164   3.920   4.267   3.040  0.6471 -0.2091 -0.2594
  116SAPE   C2312165   4.260   3.865   3.050  0.3534  0.3562 -0.0737
  116SAPE   H3R12166   4.250   3.774   3.113 -0.7185  1.0215  0.7562
  116SAPE   H3S12167   4.160   3.906   3.022  0.0450 -1.2864 -1.6174
  116SAPE   C2412168   4.341   3.979   3.111 -0.4346 -0.2001  0.2989
  116SAPE   H4R12169   4.362   4.054   3.032  0.3269  1.6313  2.1399
  116SAPE   H4S12170   4.435   3.927   3.138 -0.5261 -0.2654  0.4984
  116SAPE   C2512171   4.287   4.042   3.238  0.9854 -0.4263  0.1922
  116SAPE   H5R12172   4.183   4.017   3.266 -0.1551  2.5612 -0.9406
  116SAPE   C2612173   4.354   4.126   3.319  0.1123 -0.0653  0.3389
  116SAPE   H6R12174   4.313   4.164   3.414  0.2811 -1.2348  0.8937
  116SAPE   C2712175   4.494   4.173   3.295 -0.2847 -0.7357  0.2566
  116SAPE   H7R12176   4.520   4.174   3.187 -2.0096 -0.2115 -0.1894
  116SAPE   H7S12177   4.557   4.096   3.344 -0.3930 -0.7313  0.4070
  116SAPE   C2812178   4.534   4.304   3.357 -0.0222 -0.4623  0.5206
  116SAPE   H8R12179   4.546   4.389   3.289  3.2283  0.9635  2.5819
  116SAPE   C2912180   4.565   4.332   3.484 -0.4387 -0.1703 -0.1962
  116SAPE   H9R12181   4.605   4.429   3.518 -3.2396  0.7731  0.6808
  116SAPE  C21012182   4.590   4.211   3.577  0.4697 -0.2789 -0.7077
  116SAPE  H10R12183   4.686   4.163   3.550  0.6862 -0.2724  0.0502
  116SAPE  H10S12184   4.510   4.135   3.562  0.7487 -0.4870 -1.1368
  116SAPE  C21112185   4.582   4.253   3.720 -0.4045  0.2608 -0.0068
  116SAPE  H11R12186   4.484   4.297   3.744 -0.9611 -0.2560 -1.2043
  116SAPE  C21212187   4.672   4.250   3.819  0.1909  0.0779 -0.0327
  116SAPE  H12R12188   4.631   4.282   3.916 -1.6914 -1.2776 -0.3161
  116SAPE  C21312189   4.818   4.208   3.819 -0.5041 -0.2851  0.6917
  116SAPE  H13R12190   4.851   4.185   3.716  2.4623 -0.0763  1.5042
  116SAPE  H13S12191   4.827   4.112   3.874 -1.1009 -1.3089 -0.9388
  116SAPE  C21412192   4.907   4.313   3.886 -0.9682  0.4807 -0.3960
  116SAPE  H14R12193   4.912   4.314   3.996 -2.2525  1.1291 -0.3264
  116SAPE  C21512194   4.975   4.408   3.824 -0.2441 -0.1737  0.0718
  116SAPE  H15R12195   5.039   4.480   3.877  2.3264 -0.3897 -2.4981
  116SAPE  C21612196   4.975   4.432   3.674  0.2900 -0.3311  0.3616
  116SAPE  H16R12197   4.991   4.540   3.658  1.1841 -0.8387 -2.8219
  116SAPE  H16S12198   4.886   4.401   3.615 -1.2295  0.0780  2.3339
  116SAPE  C21712199   5.074   4.336   3.616 -0.0683 -0.2778  0.2253
  116SAPE  H17R12200   5.079   4.362   3.508  1.0909  0.1696  0.3712
  116SAPE  H17S12201   5.047   4.229   3.627 -2.4888  0.0747 -1.4694
  116SAPE  C21812202   5.219   4.366   3.657  0.0988  0.2152 -0.2322
  116SAPE  H18R12203   5.224   4.361   3.768  0.4468  0.0328 -0.2547
  116SAPE  H18S12204   5.240   4.471   3.626 -0.0845  0.0307 -1.0023
  116SAPE  C21912205   5.327   4.256   3.615 -0.2513 -0.7745  0.4531
  116SAPE  H19R12206   5.313   4.163   3.674  2.1510 -1.4170  0.1164
  116SAPE  H19S12207   5.428   4.296   3.639  0.2092  1.1761 -3.9450
  116SAPE  C22012208   5.327   4.212   3.467 -0.7406 -0.2970 -0.0178
  116SAPE  H20R12209   5.418   4.154   3.439  0.5903  2.5671 -2.2425
  116SAPE  H20S12210   5.323   4.293   3.391 -1.5224 -1.3836 -1.1788
  116SAPE  H20T12211   5.241   4.143   3.454 -0.2995 -0.7226 -0.7994
  116SAPE   C3312212   4.112   4.357   3.127  0.0968  0.4917 -0.6268
  116SAPE   H3X12213   4.082   4.458   3.094  1.6501  1.8143  1.7283
  116SAPE   H3Y12214   4.221   4.354   3.106  0.7011  2.4090  1.7220
  116SAPE   C3412215   4.079   4.334   3.279  0.1087 -0.0247 -0.2740
  116SAPE   H4X12216   4.115   4.232   3.304  3.3257  0.9618 -0.4355
  116SAPE   H4Y12217   3.969   4.344   3.290  0.2145 -1.2980  2.9403
  116SAPE   C3512218   4.152   4.434   3.375  0.3162 -0.6061 -0.6988
  116SAPE   H5X12219   4.093   4.528   3.366  0.8917  0.0117  1.4085
  116SAPE   H5Y12220   4.258   4.460   3.357  0.3188 -0.1805 -0.0727
  116SAPE   C3612221   4.128   4.397   3.522  0.2130  0.0310 -0.6012
  116SAPE   H6X12222   4.143   4.288   3.534 -0.5341  0.1784  2.8847
  116SAPE   H6Y12223   4.019   4.406   3.541 -0.2149  1.5678 -3.3430
  116SAPE   C3712224   4.217   4.469   3.620 -0.0184  0.0353 -0.1324
  116SAPE   H7X12225   4.318   4.461   3.575 -0.4808 -2.0037 -0.9498
  116SAPE   H7Y12226   4.225   4.419   3.719 -1.5882 -2.7968 -1.3194
  116SAPE   C3812227   4.166   4.620   3.628  0.3320  0.5278 -0.3648
  116SAPE   H8X12228   4.058   4.628   3.605  0.2459 -1.3057 -0.7494
  116SAPE   H8Y12229   4.212   4.667   3.539  1.0612 -1.9581 -1.3829
  116SAPE   C3912230   4.184   4.702   3.756  0.4176  0.5921  0.1087
  116SAPE   H9X12231   4.144   4.805   3.751  0.8632  0.8704  1.7769
  116SAPE   H9Y12232   4.293   4.717   3.772  0.4966 -0.0091  0.1770
  116SAPE  C31012233   4.128   4.633   3.871  0.2615 -0.2018 -0.0633
  116SAPE  H10X12234   4.194   4.552   3.910  1.0395  0.1129 -0.6958
  116SAPE  H10Y12235   4.026   4.589   3.864 -0.1755  0.6779  0.5447
  116SAPE  C31112236   4.118   4.725   3.993 -0.0262 -0.5050 -0.1500
  116SAPE  H11X12237   4.035   4.799   3.978  0.3643  0.5149  2.2418
  116SAPE  H11Y12238   4.215   4.772   4.018 -0.2957  0.3449 -0.6365
  116SAPE  C31212239   4.077   4.647   4.117  0.0264  0.2780  0.5719
  116SAPE  H12X12240   4.165   4.581   4.135 -1.6436 -2.1244  0.2436
  116SAPE  H12Y12241   3.988   4.584   4.098 -1.4771  2.4217  0.1269
  116SAPE  C31312242   4.047   4.730   4.238 -0.1710  0.4695 -0.8038
  116SAPE  H13X12243   4.066   4.661   4.323 -0.5487  0.8563 -0.3967
  116SAPE  H13Y12244   3.946   4.777   4.231 -0.4243  1.0908  3.7214
  116SAPE  C31412245   4.147   4.848   4.268  0.5471  0.7157 -0.4977
  116SAPE  H14X12246   4.148   4.938   4.202  1.1687  1.5747  0.6473
  116SAPE  H14Y12247   4.250   4.807   4.260  1.0985  1.9105  0.1203
  116SAPE  C31512248   4.139   4.894   4.411 -0.1947  0.7002  0.1614
  116SAPE  H15X12249   4.227   4.958   4.435 -0.9645  1.0006  2.4256
  116SAPE  H15Y12250   4.147   4.812   4.485  1.6128  1.2840  0.6695
  116SAPE  C31612251   4.016   4.967   4.461  0.6905 -0.1943  0.2271
  116SAPE  H16X12252   4.020   4.969   4.572 -0.5312 -2.2467  0.3473
  116SAPE  H16Y12253   3.929   4.913   4.419  0.4137  1.2102 -1.0797
  116SAPE  C31712254   4.020   5.111   4.410 -0.1725 -0.8634 -0.0038
  116SAPE  H17X12255   4.013   5.110   4.299 -1.4266  1.3207  0.0082
  116SAPE  H17Y12256   4.113   5.169   4.428 -0.0843 -1.2460  0.8209
  116SAPE  C31812257   3.898   5.196   4.465 -0.0274  0.4930 -0.1941
  116SAPE  H18X12258   3.898   5.305   4.444  0.0859  0.5476  0.0836
  116SAPE  H18Y12259   3.919   5.191   4.574 -1.0922 -0.5391 -0.0092
  116SAPE  H18Z12260   3.810   5.138   4.428  1.4963 -1.4215 -0.9805
  117SOPE     N12261   5.314   0.984   6.880  0.9236  0.7368  0.2423
  117SOPE   HN112262   5.359   0.942   6.964  0.6054 -0.2610 -0.0706
  117SOPE   HN212263   5.370   1.060   6.835 -0.1353  0.8208 -0.9947
  117SOPE   HN312264   5.222   1.023   6.909  0.0820  0.4811 -1.8708
  117SOPE   C1212265   5.282   0.864   6.789 -0.6836  0.7792  0.3317
  117SOPE  H12A12266   5.243   0.912   6.696 -1.4956 -1.1264 -0.3559
  117SOPE  H12B12267   5.203   0.801   6.835  0.7350 -1.2902  0.0504
  117SOPE   C1112268   5.406   0.774   6.759  0.0709 -0.5011  0.3051
  117SOPE  H11A12269   5.490   0.842   6.733  0.2913  0.3582  2.9662
  117SOPE  H11B12270   5.374   0.719   6.668 -2.3863  0.3062  0.6044
  117SOPE     P12271   5.577   0.626   6.885 -0.0999  0.1155 -0.1128
  117SOPE   O1312272   5.559   0.494   6.938  0.1372 -0.6386 -0.8514
  117SOPE   O1412273   5.665   0.715   6.957 -0.4948  0.5918 -0.3929
  117SOPE   O1212274   5.437   0.698   6.875  0.3232  0.1768 -0.2010
  117SOPE   O1112275   5.617   0.617   6.738  0.4646  0.6633  0.3627
  117SOPE    C112276   5.737   0.543   6.694  0.2875  0.2463 -0.1077
  117SOPE    HA12277   5.699   0.439   6.682 -3.4944  1.3910  0.8587
  117SOPE    HB12278   5.819   0.540   6.770 -0.0774 -0.2793  0.2776
  117SOPE    C212279   5.796   0.600   6.559  0.5045  0.1844 -0.1826
  117SOPE    HS12280   5.837   0.702   6.576 -0.6797  0.6256  0.0569
  117SOPE   O2112281   5.702   0.602   6.449  0.3847 -0.0803 -0.6076
  117SOPE   C2112282   5.641   0.718   6.441  0.0315  0.1443  0.0266
  117SOPE   O2212283   5.654   0.814   6.516  0.9005 -0.0533 -0.1757
  117SOPE   C2212284   5.566   0.713   6.309 -0.2409 -0.0486 -0.5618
  117SOPE   H2R12285   5.510   0.808   6.295 -1.2445 -0.5866 -0.2505
  117SOPE   H2S12286   5.497   0.627   6.302 -0.6380  0.3575 -2.0560
  117SOPE    C312287   5.926   0.518   6.526 -0.1153  0.0873  0.0502
  117SOPE    HX12288   5.904   0.410   6.536 -0.6254 -0.3418 -3.9615
  117SOPE    HY12289   5.995   0.560   6.602 -1.5270  1.5328  0.6158
  117SOPE   O3112290   5.966   0.522   6.390 -0.1879  0.2372  0.0657
  117SOPE   C3112291   6.027   0.633   6.358  0.3600  0.6900  0.0729
  117SOPE   O3212292   6.035   0.734   6.423 -0.1408  0.7184 -0.0029
  117SOPE   C3212293   6.090   0.609   6.216 -0.1847 -0.2478  0.1064
  117SOPE   H2X12294   6.051   0.513   6.175  0.0903  0.0369 -0.8212
  117SOPE   H2Y12295   6.196   0.593   6.245  0.3070 -1.5957 -2.2366
  117SOPE   C2312296   5.663   0.713   6.183  0.2286  0.0656 -0.6408
  117SOPE   H3R12297   5.741   0.637   6.202  0.5078  0.4494 -0.2279
  117SOPE   H3S12298   5.718   0.809   6.195  1.6748 -0.7317 -0.7400
  117SOPE   C2412299   5.594   0.723   6.051  0.1775  0.1291  0.1512
  117SOPE   H4R12300   5.530   0.634   6.031 -1.3876  1.3056 -0.2538
  117SOPE   H4S12301   5.535   0.817   6.059  1.1824  0.9665 -1.6720
  117SOPE   C2512302   5.690   0.742   5.937  0.7564 -0.0108  0.2723
  117SOPE   H5R12303   5.712   0.850   5.949 -2.3810  0.7839 -0.2842
  117SOPE   H5S12304   5.783   0.683   5.951  0.1344 -2.0384 -2.9874
  117SOPE   C2612305   5.632   0.720   5.796 -0.2146  0.6359 -0.5397
  117SOPE   H6R12306   5.611   0.611   5.786 -1.4756  1.0405 -3.3940
  117SOPE   H6S12307   5.538   0.777   5.779 -0.9796 -0.3984  0.0809
  117SOPE   C2712308   5.717   0.757   5.675 -0.1869  0.6205 -0.1287
  117SOPE   H7R12309   5.730   0.867   5.669 -0.0479  0.5323 -2.5416
  117SOPE   H7S12310   5.810   0.695   5.677 -1.1132 -0.8249 -0.1191
  117SOPE   C2812311   5.643   0.712   5.546  0.2508  0.5734  0.1876
  117SOPE   H8R12312   5.635   0.602   5.544 -0.1344  0.5897 -2.6855
  117SOPE   H8S12313   5.543   0.757   5.558  0.2835  0.1498  2.5252
  117SOPE   C2912314   5.708   0.761   5.419  0.1057  0.4534  0.5116
  117SOPE   H9112315   5.795   0.703   5.384 -1.1926 -0.8511 -0.6726
  117SOPE  C21012316   5.666   0.865   5.345 -0.1156 -0.2838  0.1994
  117SOPE  H10112317   5.724   0.876   5.252 -1.0750 -0.9843 -0.5000
  117SOPE  C21112318   5.549   0.961   5.367 -0.0089 -0.1276  0.1473
  117SOPE  H11R12319   5.483   0.929   5.450 -1.2655  1.6273 -0.1171
  117SOPE  H11S12320   5.496   0.977   5.271 -0.3400 -0.1988  0.3199
  117SOPE  C21212321   5.575   1.107   5.422  0.6236  0.3621  0.4371
  117SOPE  H12R12322   5.614   1.100   5.525 -2.0026 -1.2364  1.4001
  117SOPE  H12S12323   5.485   1.170   5.435  0.8051  1.1477 -1.5803
  117SOPE  C21312324   5.676   1.187   5.338  0.4467 -0.1963 -0.0299
  117SOPE  H13R12325   5.623   1.218   5.246 -2.1749  0.0387  1.4732
  117SOPE  H13S12326   5.771   1.132   5.320  0.2053 -0.6243 -0.0213
  117SOPE  C21412327   5.717   1.311   5.418  0.0921  0.1428 -1.0359
  117SOPE  H14R12328   5.763   1.270   5.510 -1.2647 -1.2581 -0.9335
  117SOPE  H14S12329   5.621   1.361   5.444 -0.3739 -1.2425  0.0856
  117SOPE  C21512330   5.803   1.407   5.333  0.1117  0.3819  0.4704
  117SOPE  H15R12331   5.834   1.494   5.393  0.8439 -0.3657  1.2050
  117SOPE  H15S12332   5.728   1.442   5.259 -1.4540 -2.0853  0.7910
  117SOPE  C21612333   5.928   1.343   5.265 -0.5417 -0.1804  0.1422
  117SOPE  H16R12334   5.890   1.259   5.203 -2.2234 -0.2830  1.2516
  117SOPE  H16S12335   6.003   1.303   5.336 -0.2781  0.1943  0.0748
  117SOPE  C21712336   6.001   1.427   5.161 -0.2655  0.0160 -0.5228
  117SOPE  H17R12337   6.035   1.524   5.201  2.2778 -0.8263 -0.5011
  117SOPE  H17S12338   5.928   1.451   5.080  0.3842  0.2298 -1.0559
  117SOPE  C21812339   6.128   1.356   5.099  1.1142 -0.3335 -1.1496
  117SOPE  H18R12340   6.106   1.247   5.096  1.9798 -0.5120 -1.1806
  117SOPE  H18S12341   6.207   1.376   5.175  1.0285 -2.0121 -0.5654
  117SOPE  H18T12342   6.160   1.412   5.009  3.6691 -0.0709 -0.1808
  117SOPE   C3312343   6.075   0.732   6.121  0.2397 -0.6846 -0.1782
  117SOPE   H3X12344   6.129   0.814   6.171  0.7225 -0.5692 -0.8701
  117SOPE   H3Y12345   5.966   0.751   6.110  0.0521 -0.6111  1.6082
  117SOPE   C3412346   6.133   0.702   5.989 -0.0999  0.2714 -0.3841
  117SOPE   H4X12347   6.091   0.603   5.962 -0.1838 -0.3328  1.8468
  117SOPE   H4Y12348   6.243   0.702   5.999 -0.1013 -2.4249  0.5591
  117SOPE   C3512349   6.082   0.807   5.888  0.3790 -0.5785  0.8267
  117SOPE   H5X12350   6.108   0.912   5.916 -4.8266  1.1600  0.1932
  117SOPE   H5Y12351   5.972   0.808   5.875  0.2723  1.2322  1.5573
  117SOPE   C3612352   6.139   0.774   5.748  0.4971  0.2215 -0.4503
  117SOPE   H6X12353   6.095   0.678   5.714 -0.3641 -0.3027  1.9753
  117SOPE   H6Y12354   6.249   0.761   5.757  0.2082 -1.1060  2.1299
  117SOPE   C3712355   6.107   0.884   5.643  0.1127  0.5250  0.0784
  117SOPE   H7X12356   6.158   0.979   5.669 -0.5591  0.9953 -0.2820
  117SOPE   H7Y12357   5.997   0.900   5.646  0.2172  1.3415 -0.2348
  117SOPE   C3812358   6.147   0.839   5.504  0.4699  0.6774  0.3453
  117SOPE   H8X12359   6.107   0.737   5.489  3.0061 -0.4073  0.4338
  117SOPE   H8Y12360   6.255   0.833   5.479  0.2322  0.1825 -0.6176
  117SOPE   C3912361   6.093   0.941   5.403  0.1136  0.2944  0.3370
  117SOPE   H9X12362   6.149   1.033   5.429  1.2217 -0.5873  1.2093
  117SOPE   H9Y12363   5.986   0.959   5.429  0.1478  0.0538  0.6604
  117SOPE  C31012364   6.116   0.898   5.257 -0.4201 -0.4279  0.8147
  117SOPE  H10X12365   6.116   0.789   5.236 -0.1386 -0.1621 -0.6749
  117SOPE  H10Y12366   6.216   0.929   5.221 -0.5166 -0.1675  0.7696
  117SOPE  C31112367   6.012   0.961   5.163 -0.0754 -0.3743  0.1243
  117SOPE  H11X12368   6.009   1.071   5.171 -0.5127 -0.2850 -0.9952
  117SOPE  H11Y12369   5.915   0.912   5.183  0.2701 -0.3362  2.0388
  117SOPE  C31212370   6.063   0.935   5.018 -0.8051  0.5386 -0.4117
  117SOPE  H12X12371   6.069   0.825   5.002 -1.4048  0.3023  0.8564
  117SOPE  H12Y12372   6.166   0.977   5.006  0.5634 -2.7659 -1.4399
  117SOPE  C31312373   5.970   1.002   4.914  0.1104  0.4320 -0.3583
  117SOPE  H13X12374   5.941   1.102   4.953 -2.1404  0.4941 -1.9557
  117SOPE  H13Y12375   5.875   0.946   4.895  0.4400  0.1196 -1.1388
  117SOPE  C31412376   6.057   1.018   4.788  0.0457 -0.4431  0.1271
  117SOPE  H14X12377   6.101   0.923   4.750 -3.5875 -1.3687 -2.1949
  117SOPE  H14Y12378   6.138   1.083   4.828 -0.8471  0.6964  0.1191
  117SOPE  C31512379   5.991   1.086   4.667 -0.1443 -0.1043  0.2378
  117SOPE  H15X12380   5.895   1.032   4.652 -0.5437  0.7891 -0.4749
  117SOPE  H15Y12381   6.054   1.072   4.577 -0.2654  0.8065  0.0016
  117SOPE  C31612382   5.940   1.237   4.686 -0.1212  0.1612 -0.7567
  117SOPE  H16X12383   5.966   1.289   4.591  2.4814  0.4254  0.0266
  117SOPE  H16Y12384   6.002   1.287   4.764  0.9751 -0.3609 -1.2761
  117SOPE  C31712385   5.788   1.240   4.726  0.7251  0.2773  0.0147
  117SOPE  H17X12386   5.761   1.147   4.780 -1.6465  1.0804  0.3303
  117SOPE  H17Y12387   5.728   1.239   4.632 -1.2193 -1.8321  1.1880
  117SOPE  C31812388   5.748   1.359   4.815  0.6005  0.1823 -0.1800
  117SOPE  H18X12389   5.644   1.349   4.853  0.6638 -0.3211 -0.1199
  117SOPE  H18Y12390   5.754   1.458   4.766  1.6669 -1.2711 -3.2213
  117SOPE  H18Z12391   5.809   1.358   4.908 -1.1671  2.0748  1.0807
  118SOPE     N12392   6.111   1.380   6.980  0.6038  0.6145  0.1350
  118SOPE   HN112393   6.113   1.480   7.008 -0.5087  1.0385 -1.1632
  118SOPE   HN212394   6.138   1.376   6.880  0.0962 -1.1690  0.0451
  118SOPE   HN312395   6.016   1.337   6.988 -0.3900  2.5667 -0.4446
  118SOPE   C1212396   6.220   1.322   7.058 -0.0705 -0.1249 -1.3769
  118SOPE  H12A12397   6.198   1.338   7.166  0.3912  0.5261 -1.3784
  118SOPE  H12B12398   6.305   1.390   7.035 -0.8288  2.4092  2.4010
  118SOPE   C1112399   6.241   1.171   7.030  0.1908  0.0049 -0.2318
  118SOPE  H11A12400   6.170   1.113   7.093 -0.8745  1.5127  0.0188
  118SOPE  H11B12401   6.337   1.141   7.076  0.9004 -1.0136 -2.2913
  118SOPE     P12402   6.332   1.057   6.814  0.0009 -0.0141 -0.4093
  118SOPE   O1312403   6.285   1.045   6.675 -0.2410 -0.5378  0.3715
  118SOPE   O1412404   6.375   0.936   6.892  0.3858  0.0692 -0.1352
  118SOPE   O1212405   6.227   1.133   6.894 -0.0115  0.3747  0.2494
  118SOPE   O1112406   6.462   1.146   6.823 -0.5154  0.0980 -0.6484
  118SOPE    C112407   6.475   1.272   6.750 -0.8637 -0.0886 -0.5547
  118SOPE    HA12408   6.553   1.335   6.798 -1.2231 -0.6738  0.8655
  118SOPE    HB12409   6.378   1.325   6.737  0.1123  1.9773  0.0818
  118SOPE    C212410   6.536   1.247   6.604  0.5696 -0.0521  0.4352
  118SOPE    HS12411   6.468   1.180   6.547  0.8711  0.8396 -1.0340
  118SOPE   O2112412   6.672   1.212   6.604  0.1018 -0.3088 -0.0663
  118SOPE   C2112413   6.689   1.083   6.617  0.2446 -0.1496 -0.4590
  118SOPE   O2212414   6.615   0.990   6.592 -1.1791 -0.2255  0.0898
  118SOPE   C2212415   6.838   1.067   6.642 -0.1190  0.5280 -0.3054
  118SOPE   H2R12416   6.860   0.958   6.631  2.1609  1.0432 -1.5050
  118SOPE   H2S12417   6.858   1.089   6.749  1.9793  0.0491 -0.5481
  118SOPE    C312418   6.521   1.385   6.528  0.5064 -0.1982  0.0330
  118SOPE    HX12419   6.608   1.450   6.550 -0.1116  0.1195  1.6640
  118SOPE    HY12420   6.431   1.441   6.561  2.0780  0.7813  3.0199
  118SOPE   O3112421   6.542   1.358   6.385  0.3570  0.0543 -0.0102
  118SOPE   C3112422   6.425   1.330   6.319 -0.4548 -0.0294 -0.2204
  118SOPE   O3212423   6.318   1.328   6.374  0.0039  0.1591 -0.7524
  118SOPE   C3212424   6.453   1.316   6.175  0.3051  0.2688 -0.0793
  118SOPE   H2X12425   6.545   1.256   6.159 -0.9996 -1.7547 -0.3481
  118SOPE   H2Y12426   6.481   1.414   6.131  1.9374  0.7684  1.8872
  118SOPE   C2312427   6.935   1.152   6.560  0.0576  0.0794 -0.1709
  118SOPE   H3R12428   7.040   1.156   6.595 -0.1295  3.0559  0.2928
  118SOPE   H3S12429   6.925   1.258   6.592  0.3241  0.7880 -2.2366
  118SOPE   C2412430   6.924   1.132   6.411  0.3319  0.3227  0.2333
  118SOPE   H4R12431   7.002   1.058   6.383 -0.7793 -0.4315 -0.9938
  118SOPE   H4S12432   6.824   1.096   6.380  0.7125  0.9459 -1.8963
  118SOPE   C2512433   6.967   1.260   6.337 -0.2240  0.2605 -0.1053
  118SOPE   H5R12434   6.915   1.336   6.399 -1.4402  0.8692 -1.7979
  118SOPE   H5S12435   7.077   1.276   6.328 -0.0774  0.8849  2.1491
  118SOPE   C2612436   6.893   1.265   6.200  0.2702 -0.0390  0.1007
  118SOPE   H6R12437   6.936   1.192   6.128 -1.5372  1.3774 -2.6021
  118SOPE   H6S12438   6.792   1.228   6.225  1.5232 -2.4100  2.0438
  118SOPE   C2712439   6.883   1.403   6.139  0.0167 -0.7355 -0.2563
  118SOPE   H7R12440   6.854   1.474   6.219  2.2491  2.3874 -1.9827
  118SOPE   H7S12441   6.989   1.433   6.122 -0.2499  1.3107  1.3010
  118SOPE   C2812442   6.787   1.417   6.016 -0.5369  0.4500  0.7268
  118SOPE   H8R12443   6.841   1.356   5.939 -3.9824 -0.7872 -0.9197
  118SOPE   H8S12444   6.705   1.345   6.036 -0.2319 -0.4005 -0.8882
  118SOPE   C2912445   6.735   1.550   5.968 -0.0918  0.2696 -0.5013
  118SOPE   H9112446   6.660   1.596   6.034  0.8759 -0.7634  1.4142
  118SOPE  C21012447   6.765   1.607   5.850  0.7389 -0.3793  0.2927
  118SOPE  H10112448   6.724   1.705   5.823  2.6756  0.2542 -0.4867
  118SOPE  C21112449   6.856   1.551   5.743  0.3157  0.0311  0.1405
  118SOPE  H11R12450   6.923   1.470   5.777 -0.1868 -0.0044  1.0534
  118SOPE  H11S12451   6.925   1.634   5.714  0.1511  0.2599  0.4022
  118SOPE  C21212452   6.775   1.518   5.622  0.3352  0.5402 -0.0898
  118SOPE  H12R12453   6.679   1.472   5.654 -0.1391  2.9200  2.2894
  118SOPE  H12S12454   6.822   1.440   5.558 -0.5255  0.8235 -1.0827
  118SOPE  C21312455   6.731   1.639   5.530 -0.0894 -0.7853 -0.0186
  118SOPE  H13R12456   6.770   1.725   5.589  0.2406 -0.5046 -0.6377
  118SOPE  H13S12457   6.622   1.661   5.533 -0.0405 -0.5882  0.4183
  118SOPE  C21412458   6.777   1.623   5.386 -0.7352 -0.1517 -0.4930
  118SOPE  H14R12459   6.708   1.550   5.338 -0.4394 -0.0015 -1.1559
  118SOPE  H14S12460   6.876   1.573   5.390 -0.2045  0.9245  0.2505
  118SOPE  C21512461   6.791   1.754   5.304  0.3003  0.0474 -0.0695
  118SOPE  H15R12462   6.855   1.825   5.360  0.5808 -1.3227  1.4113
  118SOPE  H15S12463   6.689   1.800   5.300  0.4981  0.3878 -1.4262
  118SOPE  C21612464   6.845   1.728   5.163 -0.6206 -0.0713  0.0082
  118SOPE  H16R12465   6.795   1.643   5.114  0.0375 -0.8170  0.6084
  118SOPE  H16S12466   6.952   1.700   5.163 -0.8724 -1.0640 -0.3300
  118SOPE  C21712467   6.832   1.853   5.076  0.0137  0.0856  0.0318
  118SOPE  H17R12468   6.881   1.933   5.135 -2.1915  0.5728  1.2913
  118SOPE  H17S12469   6.728   1.883   5.051  0.3901  0.3797 -1.2910
  118SOPE  C21812470   6.905   1.838   4.943 -0.6864  0.1606  0.1240
  118SOPE  H18R12471   7.014   1.822   4.962 -0.0005  1.0917 -2.5248
  118SOPE  H18S12472   6.897   1.934   4.887 -2.0951 -0.9612 -1.7097
  118SOPE  H18T12473   6.871   1.757   4.875  2.4066  0.8433 -2.4761
  118SOPE   C3312474   6.336   1.255   6.091 -0.6762  0.7063  0.1283
  118SOPE   H3X12475   6.239   1.300   6.118 -1.7394 -0.5713 -1.3686
  118SOPE   H3Y12476   6.325   1.147   6.116 -1.2713  1.0447  1.4094
  118SOPE   C3412477   6.372   1.261   5.931  0.5579 -1.1404 -0.4173
  118SOPE   H4X12478   6.483   1.256   5.928  0.6886  0.1463  0.9086
  118SOPE   H4Y12479   6.348   1.365   5.898  1.7403 -0.9366 -0.6681
  118SOPE   C3512480   6.317   1.141   5.859 -0.1818 -0.7310 -0.1997
  118SOPE   H5X12481   6.213   1.162   5.825 -0.4143 -3.4371 -1.4253
  118SOPE   H5Y12482   6.325   1.041   5.908 -1.4370 -0.8835 -0.2766
  118SOPE   C3612483   6.400   1.106   5.735  0.0571  0.4829  0.0165
  118SOPE   H6X12484   6.364   1.010   5.693 -1.5956  0.9825  0.2443
  118SOPE   H6Y12485   6.504   1.091   5.772  0.1578  1.8213  0.3330
  118SOPE   C3712486   6.386   1.208   5.621  0.0370  0.3055  0.3860
  118SOPE   H7X12487   6.435   1.297   5.666 -1.8747  1.9334 -0.5899
  118SOPE   H7Y12488   6.278   1.226   5.606 -0.0042  0.4264  0.8208
  118SOPE   C3812489   6.465   1.154   5.495 -0.4422  0.4620 -0.2303
  118SOPE   H8X12490   6.462   1.043   5.493  0.2808  0.4034  0.9120
  118SOPE   H8Y12491   6.572   1.183   5.502 -0.1442  0.2402 -2.9469
  118SOPE   C3912492   6.435   1.220   5.365  0.1276 -0.0997  0.5781
  118SOPE   H9X12493   6.475   1.323   5.372 -1.1345  0.3611  1.2856
  118SOPE   H9Y12494   6.325   1.224   5.353  0.3084 -0.2040 -1.5281
  118SOPE  C31012495   6.499   1.139   5.256  0.0350 -0.2008 -0.3657
  118SOPE  H10X12496   6.452   1.039   5.263  0.5996 -0.3820  1.1955
  118SOPE  H10Y12497   6.605   1.123   5.286  0.4642  1.8659 -0.6112
  118SOPE  C31112498   6.492   1.198   5.112  0.0195 -0.7073 -0.2321
  118SOPE  H11X12499   6.558   1.286   5.100  1.9391 -2.1880 -0.9147
  118SOPE  H11Y12500   6.391   1.237   5.088  0.9263  1.4774 -0.7528
  118SOPE  C31212501   6.544   1.097   5.013  0.4548  0.1065  0.0480
  118SOPE  H12X12502   6.484   1.004   5.022  0.6982  0.1005  2.2494
  118SOPE  H12Y12503   6.653   1.083   5.031  0.6375  0.2033 -0.9568
  118SOPE  C31312504   6.524   1.155   4.872 -0.3361  1.0918  0.0574
  118SOPE  H13X12505   6.594   1.241   4.867  1.7424 -0.5186  0.4105
  118SOPE  H13Y12506   6.417   1.187   4.880 -0.2153  1.7678 -0.8386
  118SOPE  C31412507   6.558   1.058   4.763 -0.4426 -0.1659  0.9262
  118SOPE  H14X12508   6.481   0.978   4.761  0.8082 -1.4507 -1.9278
  118SOPE  H14Y12509   6.659   1.012   4.768 -0.4760 -0.6329 -1.5185
  118SOPE  C31512510   6.564   1.125   4.620 -0.2216 -0.1478 -0.2722
  118SOPE  H15X12511   6.612   1.064   4.541 -1.0324 -0.0520 -0.8492
  118SOPE  H15Y12512   6.609   1.227   4.629 -0.2921 -0.1612  0.2658
  118SOPE  C31612513   6.416   1.149   4.570 -0.0700 -0.6974  0.3532
  118SOPE  H16X12514   6.364   1.208   4.649 -2.7572 -0.2249 -1.6176
  118SOPE  H16Y12515   6.367   1.050   4.562 -0.7055 -0.2884 -1.2292
  118SOPE  C31712516   6.402   1.237   4.443  0.4139  0.4564  0.1491
  118SOPE  H17X12517   6.471   1.323   4.456  0.5311  0.6165 -1.3643
  118SOPE  H17Y12518   6.298   1.276   4.438  1.0986  2.3426 -0.4511
  118SOPE  C31812519   6.430   1.153   4.324 -0.8104  0.2625 -0.0611
  118SOPE  H18X12520   6.440   1.203   4.225  0.5373 -1.4865 -0.8722
  118SOPE  H18Y12521   6.363   1.065   4.321  0.6023 -0.9204  1.2830
  118SOPE  H18Z12522   6.530   1.107   4.338 -1.4677 -0.6458  1.9798
  119SOPE     N12523   2.791   2.116   6.583 -0.3724 -0.0522  0.0615
  119SOPE   HN112524   2.844   2.108   6.672  1.0273  0.2636 -0.7006
  119SOPE   HN212525   2.755   2.213   6.581 -0.2434 -0.0132 -0.9460
  119SOPE   HN312526   2.711   2.050   6.580 -0.1816 -0.2635 -1.5325
  119SOPE   C1212527   2.868   2.100   6.462 -0.5075  0.1809 -0.5149
  119SOPE  H12A12528   2.789   2.098   6.384 -2.1030  1.6454  0.9793
  119SOPE  H12B12529   2.930   2.008   6.470  2.0854  1.8057 -0.7532
  119SOPE   C1112530   2.964   2.224   6.435  0.8855  0.3721  0.2098
  119SOPE  H11A12531   2.898   2.313   6.445  1.9477  1.1166  0.6689
  119SOPE  H11B12532   3.000   2.223   6.330  0.2755 -1.3415 -0.0105
  119SOPE     P12533   3.193   2.129   6.551  0.7308  0.4315 -0.4038
  119SOPE   O1312534   3.150   2.018   6.636 -0.2561 -0.1846  0.0606
  119SOPE   O1412535   3.306   2.203   6.607  0.8478  0.5492 -0.0128
  119SOPE   O1212536   3.062   2.222   6.534 -0.0944 -0.3112 -0.2068
  119SOPE   O1112537   3.220   2.071   6.413 -0.0009 -0.2822 -0.0639
  119SOPE    C112538   3.311   2.136   6.328 -0.7125  0.0779  0.0101
  119SOPE    HA12539   3.415   2.142   6.368 -0.6044 -1.2488 -0.0256
  119SOPE    HB12540   3.268   2.238   6.314 -1.6716 -0.0892  1.5745
  119SOPE    C212541   3.314   2.076   6.186 -0.9800 -0.7721  0.1032
  119SOPE    HS12542   3.378   1.986   6.196  1.3753  0.9735  1.7341
  119SOPE   O2112543   3.368   2.174   6.094 -0.1910  1.1309 -0.2838
  119SOPE   C2112544   3.501   2.159   6.067  0.0166 -0.2657 -1.1060
  119SOPE   O2212545   3.583   2.094   6.134  0.4785  0.0292 -0.3636
  119SOPE   C2212546   3.516   2.203   5.921  0.1629 -0.0695 -0.1254
  119SOPE   H2R12547   3.425   2.164   5.872 -1.1665  1.7543  0.7434
  119SOPE   H2S12548   3.603   2.148   5.878  0.8093  1.1877 -0.4877
  119SOPE    C312549   3.175   2.033   6.151  0.6694  0.1354  0.1863
  119SOPE    HX12550   3.099   2.113   6.162  0.5216  0.8827 -4.3488
  119SOPE    HY12551   3.144   1.940   6.205 -0.3368  0.3256 -0.0389
  119SOPE   O3112552   3.166   1.987   6.013  0.7540 -0.8905  0.3675
  119SOPE   C3112553   3.043   1.952   5.972 -0.6394  0.4129 -0.2054
  119SOPE   O3212554   2.941   1.950   6.040  0.4699 -0.2231  0.1095
  119SOPE   C3212555   3.061   1.897   5.825  0.4087  0.1443 -0.4522
  119SOPE   H2X12556   3.110   1.799   5.844 -0.4466 -0.1321  0.3573
  119SOPE   H2Y12557   3.126   1.959   5.759 -0.2824 -0.6424 -1.9124
  119SOPE   C2312558   3.512   2.351   5.906  0.2090 -0.6152 -0.2561
  119SOPE   H3R12559   3.607   2.388   5.950 -0.5413  1.4076 -0.2178
  119SOPE   H3S12560   3.427   2.395   5.963  1.5289  0.3712  1.0066
  119SOPE   C2412561   3.510   2.398   5.759  0.0087  0.4558  0.4500
  119SOPE   H4R12562   3.605   2.371   5.710 -1.2830 -0.7963 -1.4935
  119SOPE   H4S12563   3.428   2.343   5.709  1.7837 -2.6041  0.6961
  119SOPE   C2512564   3.495   2.547   5.753  0.2086 -0.3109  0.2547
  119SOPE   H5R12565   3.397   2.577   5.796 -0.4345  1.7191 -2.3841
  119SOPE   H5S12566   3.569   2.600   5.817  1.6857 -0.3367 -1.3592
  119SOPE   C2612567   3.490   2.614   5.618 -0.8319 -0.4804  0.2967
  119SOPE   H6R12568   3.584   2.584   5.567 -1.8864 -0.0085 -2.0485
  119SOPE   H6S12569   3.405   2.584   5.554  0.0964  2.0176 -2.3143
  119SOPE   C2712570   3.487   2.770   5.623 -0.2188  0.3628  1.2076
  119SOPE   H7R12571   3.392   2.786   5.679 -1.2134  0.9344 -0.5525
  119SOPE   H7S12572   3.571   2.808   5.685 -0.0206  1.4619  0.3008
  119SOPE   C2812573   3.477   2.848   5.483 -0.5428 -0.2276 -0.2395
  119SOPE   H8R12574   3.385   2.809   5.433 -0.2082  3.1130 -3.9238
  119SOPE   H8S12575   3.458   2.955   5.507 -0.3555 -0.2050 -0.1957
  119SOPE   C2912576   3.600   2.827   5.389  0.4803 -0.5415  0.2443
  119SOPE   H9112577   3.694   2.812   5.444  0.0355 -1.0712  0.8705
  119SOPE  C21012578   3.596   2.814   5.256 -0.4671  0.2811  0.5029
  119SOPE  H10112579   3.687   2.780   5.203  0.2617 -1.8131  2.8990
  119SOPE  C21112580   3.481   2.830   5.162  0.0380  0.5533 -0.0667
  119SOPE  H11R12581   3.394   2.864   5.222  1.8890  3.0939  1.3237
  119SOPE  H11S12582   3.450   2.731   5.121  1.4223 -0.0978  0.3852
  119SOPE  C21212583   3.526   2.945   5.063 -0.4473 -0.1541 -0.3310
  119SOPE  H12R12584   3.623   2.918   5.015 -1.4899 -2.9544 -1.0587
  119SOPE  H12S12585   3.533   3.040   5.121 -1.7716 -0.4120  0.2827
  119SOPE  C21312586   3.420   2.982   4.952  0.6645 -0.2967  0.3619
  119SOPE  H13R12587   3.330   2.930   4.991  0.9774 -0.7299  0.5047
  119SOPE  H13S12588   3.455   2.919   4.867  1.8715  1.6226 -0.6322
  119SOPE  C21412589   3.402   3.126   4.918  0.2525  0.8450 -0.5278
  119SOPE  H14R12590   3.503   3.171   4.903  0.5138  0.0266 -1.3335
  119SOPE  H14S12591   3.356   3.178   5.004  1.5903 -0.8007  1.2648
  119SOPE  C21512592   3.307   3.151   4.795 -0.1983 -0.2867  0.2338
  119SOPE  H15R12593   3.206   3.118   4.827 -0.4931  2.5640  2.7440
  119SOPE  H15S12594   3.350   3.076   4.725 -0.7600 -2.1304  1.7936
  119SOPE  C21612595   3.320   3.299   4.752 -0.1195  0.4958  0.1123
  119SOPE  H16R12596   3.298   3.370   4.835  0.2276 -1.4653  2.0009
  119SOPE  H16S12597   3.229   3.302   4.689 -0.8087  3.0663  1.0838
  119SOPE  C21712598   3.451   3.338   4.680  0.1514 -0.3310  0.1405
  119SOPE  H17R12599   3.538   3.300   4.739  0.3050  1.8530  1.4248
  119SOPE  H17S12600   3.442   3.448   4.679  0.4515 -0.2876  1.1513
  119SOPE  C21812601   3.453   3.290   4.534 -0.6680 -0.4486 -0.5901
  119SOPE  H18R12602   3.349   3.303   4.497 -0.9502 -0.9546 -0.0031
  119SOPE  H18S12603   3.482   3.182   4.531  0.2615 -0.2788  1.2298
  119SOPE  H18T12604   3.529   3.340   4.470  1.1322 -0.2632  1.5852
  119SOPE   C3312605   2.920   1.883   5.748 -0.3716  0.0286  0.5201
  119SOPE   H3X12606   2.850   1.828   5.814 -1.6439 -0.3552 -1.0849
  119SOPE   H3Y12607   2.937   1.827   5.654 -0.0482 -0.8309  1.0800
  119SOPE   C3412608   2.858   2.022   5.712  0.0061 -0.8430  0.0784
  119SOPE   H4X12609   2.934   2.087   5.663  0.1375 -1.1672 -0.1505
  119SOPE   H4Y12610   2.820   2.070   5.805  0.0461  1.4577 -1.0356
  119SOPE   C3512611   2.740   2.009   5.615 -0.0865  0.0554 -0.0405
  119SOPE   H5X12612   2.650   1.980   5.673 -0.1314  1.0623  0.4176
  119SOPE   H5Y12613   2.756   1.925   5.545  1.6303 -0.6063  1.0741
  119SOPE   C3612614   2.703   2.130   5.529 -0.1522  0.0231  0.5025
  119SOPE   H6X12615   2.774   2.133   5.443 -1.4475  0.4786 -0.5942
  119SOPE   H6Y12616   2.702   2.228   5.581 -2.1918 -0.0834  0.7406
  119SOPE   C3712617   2.555   2.106   5.477  0.8655  0.3754  0.2009
  119SOPE   H7X12618   2.481   2.111   5.560  0.0365  1.4130 -0.5820
  119SOPE   H7Y12619   2.548   2.008   5.425 -0.6770  0.8847 -0.5773
  119SOPE   C3812620   2.510   2.207   5.375 -0.1853  0.6683 -0.3792
  119SOPE   H8X12621   2.563   2.186   5.279  2.6310  0.7634  1.0513
  119SOPE   H8Y12622   2.545   2.303   5.418  1.5939 -0.6379  1.2709
  119SOPE   C3912623   2.357   2.223   5.371 -0.0708  0.3631  0.2424
  119SOPE   H9X12624   2.327   2.279   5.462  0.1544  0.2205  0.4060
  119SOPE   H9Y12625   2.314   2.120   5.379 -0.3605  0.5857  1.8840
  119SOPE  C31012626   2.313   2.301   5.249  0.1334  0.3872 -0.2305
  119SOPE  H10X12627   2.378   2.268   5.165 -0.7033  1.6950 -1.4581
  119SOPE  H10Y12628   2.324   2.411   5.267  1.9083  0.3150 -0.6884
  119SOPE  C31112629   2.167   2.282   5.204 -0.0357 -0.2193 -0.7755
  119SOPE  H11X12630   2.145   2.353   5.122 -1.7070 -0.0692 -0.2264
  119SOPE  H11Y12631   2.100   2.304   5.289  0.8928  0.3690 -0.1805
  119SOPE  C31212632   2.145   2.139   5.155  0.3059 -0.8551 -0.1506
  119SOPE  H12X12633   2.161   2.059   5.230  0.7817 -0.7962 -0.1901
  119SOPE  H12Y12634   2.220   2.113   5.077 -0.1665 -0.9983 -0.5685
  119SOPE  C31312635   2.008   2.125   5.092 -0.1757  0.0978  0.9054
  119SOPE  H13X12636   1.992   2.017   5.071 -1.0914  0.4118 -0.1413
  119SOPE  H13Y12637   2.015   2.184   4.998  0.4373 -2.2990 -0.6454
  119SOPE  C31412638   1.886   2.160   5.176  0.1734  0.4654  0.1057
  119SOPE  H14X12639   1.895   2.261   5.221  0.7167  0.6113 -0.3117
  119SOPE  H14Y12640   1.878   2.079   5.251 -2.1058  0.1909 -0.3502
  119SOPE  C31512641   1.752   2.174   5.102  0.2888  0.9897 -0.4950
  119SOPE  H15X12642   1.743   2.263   5.037 -2.8818  0.3290 -1.1252
  119SOPE  H15Y12643   1.660   2.187   5.162  0.5817  1.1005 -0.0638
  119SOPE  C31612644   1.725   2.058   5.008 -0.5844 -0.5788 -0.3325
  119SOPE  H16X12645   1.734   1.966   5.069 -1.3631 -1.5808 -1.6764
  119SOPE  H16Y12646   1.801   2.043   4.929 -0.0554 -0.0220  0.0592
  119SOPE  C31712647   1.592   2.072   4.930 -0.4246 -0.5218 -0.0529
  119SOPE  H17X12648   1.518   2.088   5.011 -0.4858  2.1289 -0.5475
  119SOPE  H17Y12649   1.575   1.974   4.881  0.9169 -1.3885  1.1231
  119SOPE  C31812650   1.603   2.178   4.823  0.2523 -0.3417  0.3252
  119SOPE  H18X12651   1.507   2.185   4.766  0.4672 -0.3655 -0.0466
  119SOPE  H18Y12652   1.681   2.146   4.751  0.5864 -0.2627  0.6548
  119SOPE  H18Z12653   1.626   2.277   4.866 -0.3068  0.4108 -1.0243
  120SOPE     N12654   2.014   5.666   7.192  0.1244 -0.7626 -0.1094
  120SOPE   HN112655   2.000   5.644   7.092  1.4234  0.8265 -0.6755
  120SOPE   HN212656   2.091   5.605   7.227  0.1074 -0.5223  0.3673
  120SOPE   HN312657   1.929   5.650   7.250 -0.3173  0.4008 -0.4088
  120SOPE   C1212658   2.053   5.811   7.229 -0.2373 -0.2701 -1.0246
  120SOPE  H12A12659   2.041   5.819   7.339  1.4432 -1.6716 -0.7126
  120SOPE  H12B12660   1.970   5.875   7.190 -2.1008 -2.2365 -0.4683
  120SOPE   C1112661   2.196   5.841   7.184 -0.0542  0.0927 -0.1073
  120SOPE  H11A12662   2.269   5.792   7.252 -1.3575 -0.6365  0.8274
  120SOPE  H11B12663   2.228   5.947   7.193  1.3619 -0.4007  1.0776
  120SOPE     P12664   2.211   5.879   6.928 -0.0352  0.3465  0.6005
  120SOPE   O1312665   2.197   5.786   6.815  0.0238  0.2180 -0.2232
  120SOPE   O1412666   2.321   5.974   6.926  0.5067 -0.1320  0.1681
  120SOPE   O1212667   2.220   5.787   7.053 -0.2015 -0.1549 -0.4506
  120SOPE   O1112668   2.076   5.963   6.941 -0.1726  0.4018 -0.1926
  120SOPE    C112669   1.955   5.911   6.873  0.0542  0.0814  0.9295
  120SOPE    HA12670   1.861   5.949   6.920  0.2032 -0.8220  2.0021
  120SOPE    HB12671   1.941   5.801   6.883 -1.8758 -0.1122 -2.3622
  120SOPE    C212672   1.954   5.954   6.726  0.2322  0.0779  0.3167
  120SOPE    HS12673   2.033   5.894   6.675 -1.7927 -1.8229 -0.7854
  120SOPE   O2112674   1.983   6.093   6.723  0.1956 -0.4106  0.3394
  120SOPE   C2112675   2.058   6.133   6.614  0.3316 -0.1902 -0.6274
  120SOPE   O2212676   2.086   6.064   6.518  0.4687 -0.7222 -0.1320
  120SOPE   C2212677   2.083   6.276   6.624  0.3408 -0.0270  0.5621
  120SOPE   H2R12678   2.146   6.286   6.715 -0.0939  0.4700  0.8161
  120SOPE   H2S12679   1.984   6.325   6.638  1.6782  3.1526 -0.0532
  120SOPE    C312680   1.818   5.927   6.650 -0.2793  0.1742  0.9544
  120SOPE    HX12681   1.741   5.962   6.722  0.1064  3.1585  0.0903
  120SOPE    HY12682   1.799   5.818   6.640 -1.0653  0.4065 -0.2976
  120SOPE   O3112683   1.800   6.000   6.524 -0.5578 -0.4044 -0.1991
  120SOPE   C3112684   1.841   5.940   6.421 -0.0724 -0.2955  0.5334
  120SOPE   O3212685   1.895   5.832   6.420  0.1395  0.0675 -0.1374
  120SOPE   C3212686   1.822   6.029   6.297 -0.4025  0.0037  0.3679
  120SOPE   H2X12687   1.906   6.102   6.295  1.3140 -1.8785 -0.2874
  120SOPE   H2Y12688   1.720   6.071   6.305 -1.9668 -3.3783  0.0346
  120SOPE   C2312689   2.161   6.329   6.497  0.0020 -0.0085 -0.5789
  120SOPE   H3R12690   2.251   6.273   6.462  0.2854  0.4286 -0.5649
  120SOPE   H3S12691   2.193   6.422   6.548 -1.0379 -0.7184  1.4765
  120SOPE   C2412692   2.086   6.361   6.372 -0.4499 -0.2995 -0.3050
  120SOPE   H4R12693   2.043   6.268   6.330 -1.3189  0.4993 -1.2320
  120SOPE   H4S12694   1.996   6.423   6.396 -0.6260 -1.1293  1.2878
  120SOPE   C2512695   2.167   6.438   6.266  0.1575  0.1604  0.6980
  120SOPE   H5R12696   2.219   6.529   6.304  1.1479  0.0632 -0.3813
  120SOPE   H5S12697   2.235   6.362   6.223 -0.9483  0.6437 -2.1218
  120SOPE   C2612698   2.079   6.496   6.153  0.7842  0.1090 -0.2820
  120SOPE   H6R12699   2.025   6.410   6.107  0.8491  0.1893 -0.5113
  120SOPE   H6S12700   2.007   6.571   6.194 -0.5668 -1.8055  0.9730
  120SOPE   C2712701   2.165   6.568   6.045 -0.6050  0.0152 -0.3912
  120SOPE   H7R12702   2.242   6.493   6.018  0.7434  0.7764  1.1959
  120SOPE   H7S12703   2.105   6.593   5.954 -2.4017  1.0767  1.0171
  120SOPE   C2812704   2.246   6.697   6.090 -0.1892 -0.6925  0.0107
  120SOPE   H8R12705   2.314   6.680   6.176  1.9038 -0.3295 -1.4798
  120SOPE   H8S12706   2.321   6.708   6.007  1.2825 -3.2346  0.8969
  120SOPE   C2912707   2.155   6.823   6.108 -0.3774  0.3810  0.0907
  120SOPE   H9112708   2.109   6.826   6.208  1.2672  2.9350  0.8522
  120SOPE  C21012709   2.133   6.919   6.015 -0.5273  0.2462 -0.0391
  120SOPE  H10112710   2.074   7.010   6.032 -0.5597  0.7089 -2.4039
  120SOPE  C21112711   2.196   6.916   5.878 -0.1694  0.3944 -0.0855
  120SOPE  H11R12712   2.227   6.812   5.853 -0.3752  0.2618  0.2017
  120SOPE  H11S12713   2.293   6.968   5.890 -0.2805  0.2380  1.7720
  120SOPE  C21212714   2.116   6.964   5.756  0.2591 -0.7523  0.4630
  120SOPE  H12R12715   2.081   7.067   5.774 -0.0775 -0.6661 -0.6228
  120SOPE  H12S12716   2.022   6.906   5.749 -0.9399  1.1319  0.4976
  120SOPE  C21312717   2.204   6.956   5.631 -0.5516 -0.1065 -0.4553
  120SOPE  H13R12718   2.201   6.850   5.596 -1.6267  0.5884 -2.7055
  120SOPE  H13S12719   2.310   6.966   5.661 -0.9326 -2.9725  2.3774
  120SOPE  C21412720   2.147   7.045   5.521  0.1297 -0.3543 -0.0138
  120SOPE  H14R12721   2.145   7.152   5.551  0.6966 -0.4168  0.2621
  120SOPE  H14S12722   2.047   7.000   5.507  0.0284 -0.0396 -0.3117
  120SOPE  C21512723   2.238   7.029   5.391  0.2496 -0.2784  0.4117
  120SOPE  H15R12724   2.237   6.923   5.358 -0.8588 -0.6057  1.4861
  120SOPE  H15S12725   2.339   7.064   5.423  1.0850 -0.9266 -1.3110
  120SOPE  C21612726   2.196   7.112   5.264 -0.1956  0.2856  0.2508
  120SOPE  H16R12727   2.262   7.075   5.182  1.8723  2.9094  0.5637
  120SOPE  H16S12728   2.234   7.215   5.279  2.4162 -0.7213  1.2664
  120SOPE  C21712729   2.052   7.083   5.228  0.1641 -0.0117  0.5298
  120SOPE  H17R12730   1.987   7.142   5.296 -0.2966  0.8651 -0.6461
  120SOPE  H17S12731   2.020   6.976   5.227  0.2892 -0.0446 -0.2559
  120SOPE  C21812732   2.016   7.134   5.088  0.3750  0.4498 -0.6188
  120SOPE  H18R12733   1.925   7.077   5.058  0.7161 -1.6778  2.0616
  120SOPE  H18S12734   2.095   7.121   5.010 -0.0903 -0.5737 -0.9278
  120SOPE  H18T12735   1.999   7.243   5.101  1.0184  0.2842  2.0323
  120SOPE   C3312736   1.832   5.954   6.166 -0.5415  0.0130 -0.3245
  120SOPE   H3X12737   1.755   5.874   6.165  1.3245 -1.8490 -0.9844
  120SOPE   H3Y12738   1.923   5.891   6.158 -0.8548 -0.4445 -0.3512
  120SOPE   C3412739   1.827   6.038   6.040  0.0486 -0.3763  0.2609
  120SOPE   H4X12740   1.913   6.108   6.036 -1.1830  1.1013 -1.5309
  120SOPE   H4Y12741   1.738   6.103   6.048 -0.1866 -0.7278  0.4900
  120SOPE   C3512742   1.843   5.951   5.912  0.0337 -0.7215 -0.0352
  120SOPE   H5X12743   1.761   5.876   5.908 -0.5174 -0.0917 -1.1386
  120SOPE   H5Y12744   1.942   5.904   5.897 -0.3274 -1.0758 -1.4999
  120SOPE   C3612745   1.835   6.047   5.793  0.0159  0.2066  0.2161
  120SOPE   H6X12746   1.892   6.140   5.814 -0.1778  0.7074 -1.3068
  120SOPE   H6Y12747   1.728   6.072   5.778 -0.5694 -0.4919  2.7494
  120SOPE   C3712748   1.896   5.977   5.665  0.6797  0.4738  0.1544
  120SOPE   H7X12749   1.840   5.881   5.660 -1.0867  1.4915 -0.4006
  120SOPE   H7Y12750   2.002   5.949   5.685  0.6579 -0.7047 -1.1907
  120SOPE   C3812751   1.869   6.049   5.535  0.1701  0.5916  0.9249
  120SOPE   H8X12752   1.916   6.150   5.529  0.9507  0.1255 -2.6639
  120SOPE   H8Y12753   1.762   6.079   5.528  0.1643  0.5440  0.8142
  120SOPE   C3912754   1.900   5.972   5.406 -0.5474 -0.1606 -0.1103
  120SOPE   H9X12755   1.854   5.871   5.421  1.5724 -1.3257 -1.0174
  120SOPE   H9Y12756   2.008   5.955   5.392 -0.3643 -0.1376  1.1205
  120SOPE  C31012757   1.847   6.037   5.274 -1.0590 -0.0525 -0.4805
  120SOPE  H10X12758   1.897   6.136   5.268  0.8159 -0.8384  0.9463
  120SOPE  H10Y12759   1.737   6.046   5.283 -0.8256  2.9034  0.5623
  120SOPE  C31112760   1.892   5.962   5.143 -0.1907 -0.2667 -0.7078
  120SOPE  H11X12761   1.881   5.853   5.160 -0.0096 -0.0501  0.9421
  120SOPE  H11Y12762   2.000   5.983   5.131 -0.3939  0.7076 -0.9126
  120SOPE  C31212763   1.808   6.003   5.020  0.3981 -0.1516  0.1789
  120SOPE  H12X12764   1.825   6.109   4.992  0.9943 -0.3461 -0.2251
  120SOPE  H12Y12765   1.702   5.988   5.050  0.8245 -2.1533  0.7939
  120SOPE  C31312766   1.818   5.916   4.896 -0.7952 -0.0089  0.0967
  120SOPE  H13X12767   1.818   5.806   4.914  0.3329  0.0780  0.7381
  120SOPE  H13Y12768   1.915   5.940   4.847 -2.7395  3.6500 -2.4746
  120SOPE  C31412769   1.721   5.958   4.782 -0.0293 -0.7267  0.0644
  120SOPE  H14X12770   1.740   6.066   4.763 -0.8543 -0.9610 -2.4347
  120SOPE  H14Y12771   1.615   5.936   4.808 -0.8867  0.3379 -2.2454
  120SOPE  C31512772   1.753   5.872   4.658  0.4990  0.0060 -0.0014
  120SOPE  H15X12773   1.707   5.776   4.691  2.1245 -0.3435  1.4098
  120SOPE  H15Y12774   1.860   5.855   4.635  0.2707  0.7962 -1.8380
  120SOPE  C31612775   1.693   5.928   4.529 -0.5511  0.2167  0.4710
  120SOPE  H16X12776   1.752   6.019   4.502 -0.7784  0.9039  2.1515
  120SOPE  H16Y12777   1.591   5.968   4.547 -0.8156  0.5539 -1.5002
  120SOPE  C31712778   1.699   5.835   4.406 -0.3863  0.3570  0.0019
  120SOPE  H17X12779   1.601   5.782   4.414  0.5300 -1.6867 -1.4832
  120SOPE  H17Y12780   1.787   5.768   4.419  0.1457  0.9787 -0.3742
  120SOPE  C31812781   1.701   5.913   4.278  0.4001  0.3216  0.2527
  120SOPE  H18X12782   1.622   5.990   4.271  0.1992 -0.0045 -1.9919
  120SOPE  H18Y12783   1.682   5.836   4.199  1.8359 -0.7971  0.9519
  120SOPE  H18Z12784   1.799   5.962   4.260  1.1807 -1.0381  0.6360
  121SOPE     N12785   3.114   1.226   6.917 -0.5193 -0.3358  0.0857
  121SOPE   HN112786   3.180   1.145   6.913 -0.8252 -0.5513 -1.4773
  121SOPE   HN212787   3.040   1.217   6.989  0.1643  0.7948  0.9620
  121SOPE   HN312788   3.074   1.235   6.821 -2.3998 -2.4254  0.5834
  121SOPE   C1212789   3.195   1.352   6.948 -0.6936  0.4364 -0.1383
  121SOPE  H12A12790   3.261   1.316   7.030 -0.5677 -1.1822 -0.9147
  121SOPE  H12B12791   3.126   1.428   6.990  0.3122  1.1273  0.2979
  121SOPE   C1112792   3.259   1.402   6.821  0.2656  0.1885 -0.3202
  121SOPE  H11A12793   3.340   1.332   6.791 -0.9508 -1.2887 -0.2691
  121SOPE  H11B12794   3.312   1.499   6.835  1.0240  0.2071 -2.7902
  121SOPE     P12795   3.106   1.537   6.655 -0.1365 -0.1561  0.0295
  121SOPE   O1312796   3.044   1.606   6.769 -0.1973 -0.2484 -0.7894
  121SOPE   O1412797   3.007   1.505   6.545  0.2160 -0.0955 -0.5035
  121SOPE   O1212798   3.169   1.405   6.710 -0.2269 -0.1775 -0.2753
  121SOPE   O1112799   3.233   1.611   6.600  0.2427 -0.1261  0.2051
  121SOPE    C112800   3.244   1.658   6.469 -0.6074  0.4107  0.1459
  121SOPE    HA12801   3.215   1.765   6.454  0.6651  0.6215 -1.0633
  121SOPE    HB12802   3.182   1.602   6.396 -0.1927 -0.8444  0.7276
  121SOPE    C212803   3.387   1.640   6.421 -0.9601 -0.0947 -0.1706
  121SOPE    HS12804   3.401   1.716   6.341  0.2650  1.6109  1.5787
  121SOPE   O2112805   3.413   1.507   6.377 -0.2955  0.4394  0.4351
  121SOPE   C2112806   3.361   1.477   6.260  0.2798 -0.6322 -0.1988
  121SOPE   O2212807   3.286   1.554   6.200  0.0419 -0.3663 -1.1203
  121SOPE   C2212808   3.410   1.344   6.209  0.5300 -0.1230  0.0470
  121SOPE   H2R12809   3.364   1.270   6.278 -0.1842  2.5233  2.6590
  121SOPE   H2S12810   3.521   1.337   6.212  0.5605  0.6395  1.5188
  121SOPE    C312811   3.482   1.679   6.539  0.8303 -0.1474 -0.3310
  121SOPE    HX12812   3.463   1.613   6.626  0.7946 -0.3653 -0.5031
  121SOPE    HY12813   3.435   1.775   6.570  1.0735  0.4128 -1.6234
  121SOPE   O3112814   3.621   1.691   6.496 -0.2379 -0.0201 -0.1020
  121SOPE   C3112815   3.660   1.808   6.438 -0.1938  0.4791 -0.4096
  121SOPE   O3212816   3.583   1.898   6.413  0.4981  0.9002 -0.1081
  121SOPE   C3212817   3.808   1.815   6.419  0.4036  0.3797 -0.8153
  121SOPE   H2X12818   3.854   1.731   6.476 -0.3433  0.9768  0.7329
  121SOPE   H2Y12819   3.832   1.901   6.485  2.3489  0.0302 -0.9941
  121SOPE   C2312820   3.361   1.317   6.067 -0.9343 -0.6769 -0.1383
  121SOPE   H3R12821   3.402   1.386   5.990 -2.0496 -1.3980 -1.4074
  121SOPE   H3S12822   3.250   1.323   6.064 -0.9881  1.6439  2.2225
  121SOPE   C2412823   3.411   1.183   6.013 -0.3786 -0.0741  0.5729
  121SOPE   H4R12824   3.520   1.174   6.034 -0.4111 -1.0171  0.3705
  121SOPE   H4S12825   3.370   1.105   6.080  0.7157 -1.0301  0.1607
  121SOPE   C2512826   3.381   1.164   5.862  0.4603 -0.1045 -0.0052
  121SOPE   H5R12827   3.351   1.062   5.827 -1.7103  0.8025 -1.0239
  121SOPE   H5S12828   3.298   1.235   5.841 -0.6468 -1.2107  0.5001
  121SOPE   C2612829   3.492   1.222   5.773 -0.0597  0.2140 -0.0985
  121SOPE   H6R12830   3.530   1.311   5.828 -3.2014  0.0763  2.5520
  121SOPE   H6S12831   3.574   1.147   5.763  0.3657  0.6766 -0.1227
  121SOPE   C2712832   3.454   1.266   5.632  0.2993  0.1554  0.1583
  121SOPE   H7R12833   3.416   1.169   5.594  1.7393  0.0616 -1.1542
  121SOPE   H7S12834   3.384   1.351   5.625  1.4559  1.1459  0.2035
  121SOPE   C2812835   3.580   1.295   5.550  0.0391 -0.0065  0.1648
  121SOPE   H8R12836   3.604   1.403   5.562 -1.2733  0.0684  2.7103
  121SOPE   H8S12837   3.659   1.242   5.607  0.9024  0.5902 -0.4529
  121SOPE   C2912838   3.581   1.264   5.397 -0.3680  0.2246 -1.1825
  121SOPE   H9112839   3.665   1.194   5.385  0.6040  0.6327  2.2317
  121SOPE  C21012840   3.499   1.307   5.299  0.0925  0.0665 -0.0329
  121SOPE  H10112841   3.532   1.281   5.197  1.1715  1.3964 -0.0512
  121SOPE  C21112842   3.390   1.415   5.311  0.0629  0.0878  0.0867
  121SOPE  H11R12843   3.404   1.469   5.407  0.3791  1.0207 -0.4757
  121SOPE  H11S12844   3.295   1.360   5.331  1.0791 -2.0655 -0.6640
  121SOPE  C21212845   3.368   1.524   5.199 -0.0576  0.8025  0.8887
  121SOPE  H12R12846   3.471   1.566   5.202  0.0152  0.5923  2.2150
  121SOPE  H12S12847   3.290   1.597   5.229 -0.6851  0.8372 -0.7433
  121SOPE  C21312848   3.317   1.468   5.063  0.1646  0.5234 -0.5241
  121SOPE  H13R12849   3.395   1.395   5.032 -0.7831 -0.1214 -1.4910
  121SOPE  H13S12850   3.311   1.550   4.988  0.4994 -1.2912 -2.6449
  121SOPE  C21412851   3.175   1.409   5.068 -0.2923  0.3245  0.0792
  121SOPE  H14R12852   3.177   1.341   5.156  2.8903 -1.0121 -0.8730
  121SOPE  H14S12853   3.151   1.349   4.978 -0.2045  0.7671 -0.2394
  121SOPE  C21512854   3.067   1.507   5.087  0.1641  0.5770 -0.3884
  121SOPE  H15R12855   3.080   1.594   5.019 -2.2607  0.3084 -1.3121
  121SOPE  H15S12856   3.081   1.538   5.193 -1.2265  1.3320 -0.3939
  121SOPE  C21612857   2.922   1.462   5.059  0.1398 -0.6229 -0.1799
  121SOPE  H16R12858   2.888   1.366   5.102 -1.2843  0.6786  1.7643
  121SOPE  H16S12859   2.921   1.436   4.951  2.0500 -1.8528  0.0546
  121SOPE  C21712860   2.813   1.564   5.082 -0.3767  0.3604 -0.4605
  121SOPE  H17R12861   2.794   1.623   4.990  1.0462  0.8148 -0.4838
  121SOPE  H17S12862   2.845   1.640   5.156  1.1237 -0.0760 -0.6230
  121SOPE  C21812863   2.683   1.510   5.140 -0.1945  0.0405  0.2805
  121SOPE  H18R12864   2.641   1.428   5.078  3.3241  0.3246 -2.7919
  121SOPE  H18S12865   2.601   1.586   5.141 -1.8809 -1.6959 -0.2621
  121SOPE  H18T12866   2.684   1.464   5.241  1.4963 -0.7111 -0.0540
  121SOPE   C3312867   3.839   1.836   6.278 -0.4643  1.2360 -0.0548
  121SOPE   H3X12868   3.946   1.865   6.285 -0.7633  2.4245 -0.2779
  121SOPE   H3Y12869   3.781   1.924   6.242 -2.2168 -0.3281 -1.2931
  121SOPE   C3412870   3.810   1.723   6.179 -0.2183 -0.8036  0.5616
  121SOPE   H4X12871   3.820   1.623   6.227  2.4153 -1.1196 -0.4751
  121SOPE   H4Y12872   3.883   1.728   6.096 -0.1860 -2.1316  0.4895
  121SOPE   C3512873   3.672   1.730   6.117  0.3389  0.1911  0.1747
  121SOPE   H5X12874   3.650   1.836   6.091 -0.4102 -0.2760 -1.2141
  121SOPE   H5Y12875   3.601   1.702   6.198  0.2979  1.7442  0.7148
  121SOPE   C3612876   3.660   1.640   5.992 -0.1096 -0.2779  0.0297
  121SOPE   H6X12877   3.692   1.537   6.021 -0.6637  0.2145  2.7187
  121SOPE   H6Y12878   3.724   1.672   5.908 -0.7144  0.1786 -0.2631
  121SOPE   C3712879   3.519   1.628   5.931 -0.3390  0.5968  0.0749
  121SOPE   H7X12880   3.451   1.582   6.005 -0.5920 -0.6140 -0.8769
  121SOPE   H7Y12881   3.536   1.557   5.848 -3.3512 -0.7578  0.4788
  121SOPE   C3812882   3.441   1.747   5.871  0.3145  0.6514  0.5672
  121SOPE   H8X12883   3.391   1.802   5.953 -0.4051  1.5195 -0.4196
  121SOPE   H8Y12884   3.368   1.688   5.811  2.3416 -2.4179  0.9105
  121SOPE   C3912885   3.520   1.836   5.776 -0.4710 -0.0007  0.0956
  121SOPE   H9X12886   3.624   1.797   5.768 -0.5043 -0.1651  0.5074
  121SOPE   H9Y12887   3.536   1.923   5.843 -1.7278 -1.1130  1.9284
  121SOPE  C31012888   3.442   1.882   5.650  1.1534  0.4247  0.4183
  121SOPE  H10X12889   3.476   1.983   5.616  1.5704 -0.5551 -2.3181
  121SOPE  H10Y12890   3.336   1.893   5.681  1.2587  1.9717  0.3475
  121SOPE  C31112891   3.464   1.795   5.524  1.3170  0.6314 -0.4935
  121SOPE  H11X12892   3.432   1.691   5.547 -0.1228  1.0717 -0.4325
  121SOPE  H11Y12893   3.572   1.787   5.501  1.1338  0.6133 -1.3662
  121SOPE  C31212894   3.384   1.854   5.406 -0.0139 -0.2188  0.1891
  121SOPE  H12X12895   3.397   1.796   5.312 -0.4655 -2.8170  1.6293
  121SOPE  H12Y12896   3.407   1.959   5.378 -0.7528 -0.2662 -0.6314
  121SOPE  C31312897   3.233   1.848   5.432  0.8153  0.6299  0.3565
  121SOPE  H13X12898   3.200   1.898   5.526 -1.9841 -1.0917  0.3784
  121SOPE  H13Y12899   3.220   1.738   5.443  2.0924  0.4290  0.0824
  121SOPE  C31412900   3.146   1.893   5.317  0.2727 -0.3930  0.5711
  121SOPE  H14X12901   3.181   1.845   5.224 -0.9941  0.0804 -0.1731
  121SOPE  H14Y12902   3.155   2.004   5.314 -2.6293 -0.0731  0.9600
  121SOPE  C31512903   2.999   1.858   5.342 -0.0922 -0.4296 -0.4255
  121SOPE  H15X12904   2.968   1.921   5.428  1.3150  0.9300 -0.8610
  121SOPE  H15Y12905   2.993   1.750   5.366 -1.6738 -1.0598 -3.1684
  121SOPE  C31612906   2.913   1.890   5.216 -0.3603  0.1516 -0.1830
  121SOPE  H16X12907   2.812   1.845   5.232 -0.0280 -0.5139  0.1216
  121SOPE  H16Y12908   2.964   1.832   5.136  0.9028 -1.9132  1.9534
  121SOPE  C31712909   2.914   2.046   5.186 -0.1039 -0.1560 -0.2768
  121SOPE  H17X12910   3.017   2.078   5.158  0.3259 -1.2361  0.0076
  121SOPE  H17Y12911   2.892   2.117   5.268 -1.1825 -0.4960 -0.2660
  121SOPE  C31812912   2.820   2.074   5.069  0.5027  0.7581  0.3071
  121SOPE  H18X12913   2.852   2.008   4.985 -1.2871 -2.4888  1.9987
  121SOPE  H18Y12914   2.835   2.178   5.032  1.4103  0.0294 -1.5517
  121SOPE  H18Z12915   2.715   2.041   5.082  0.7644  0.1551  0.9394
  122SOPE     N12916   4.139   3.575   6.813  0.1168 -0.0883  0.7395
  122SOPE   HN112917   4.223   3.542   6.761  0.4534 -2.0243  2.4000
  122SOPE   HN212918   4.049   3.558   6.765  0.2125  1.6005 -0.1381
  122SOPE   HN312919   4.153   3.678   6.826  0.3039 -0.0925  0.5921
  122SOPE   C1212920   4.123   3.495   6.937  1.1417 -0.2964  0.2633
  122SOPE  H12A12921   4.223   3.488   6.986  1.2914  0.4479  0.0793
  122SOPE  H12B12922   4.077   3.397   6.912 -0.2484  0.0448  1.3515
  122SOPE   C1112923   4.025   3.558   7.035  0.1591 -0.4183  0.3530
  122SOPE  H11A12924   4.086   3.633   7.090  0.4085  0.0848 -0.5790
  122SOPE  H11B12925   3.990   3.486   7.112  1.1557 -0.3192  0.9148
  122SOPE     P12926   3.826   3.743   7.046 -0.0494  0.0298 -0.5146
  122SOPE   O1312927   3.914   3.860   7.063 -0.1665  0.2364 -0.2065
  122SOPE   O1412928   3.749   3.681   7.159 -0.4364  0.0180 -0.1901
  122SOPE   O1212929   3.916   3.630   6.973  0.5070  0.6188  0.8217
  122SOPE   O1112930   3.715   3.785   6.945  0.0574  0.0779  0.0380
  122SOPE    C112931   3.687   3.706   6.825  0.9478 -0.0856 -0.0756
  122SOPE    HA12932   3.582   3.718   6.793  1.2871 -0.8424 -1.6031
  122SOPE    HB12933   3.710   3.599   6.843  0.9067  0.4064  3.6983
  122SOPE    C212934   3.770   3.769   6.707  0.0599  0.4885  0.2697
  122SOPE    HS12935   3.879   3.753   6.723 -0.1681 -1.5187  0.0658
  122SOPE   O2112936   3.730   3.906   6.686  0.0168 -0.0976  0.1653
  122SOPE   C2112937   3.832   3.982   6.642  0.1855  0.7182  0.1607
  122SOPE   O2212938   3.947   3.950   6.631 -0.0412 -0.0717 -0.2279
  122SOPE   C2212939   3.786   4.127   6.602 -0.4450  0.1624 -0.7581
  122SOPE   H2R12940   3.879   4.182   6.577 -0.1975  0.8205  1.3916
  122SOPE   H2S12941   3.756   4.169   6.701  0.8012 -0.8848  0.0992
  122SOPE    C312942   3.731   3.690   6.573  0.1003 -0.1063 -0.0467
  122SOPE    HX12943   3.631   3.730   6.545  0.3409  0.1186 -0.6063
  122SOPE    HY12944   3.729   3.580   6.589  0.7539 -0.0413  0.5117
  122SOPE   O3112945   3.828   3.722   6.470  0.3101  0.7756  0.4589
  122SOPE   C3112946   3.942   3.658   6.475 -0.5995 -0.4633 -0.4938
  122SOPE   O3212947   3.972   3.575   6.561  0.1249 -0.0619 -0.4000
  122SOPE   C3212948   4.047   3.717   6.373  0.3938 -0.3350  0.0252
  122SOPE   H2X12949   4.146   3.673   6.399  1.3456 -0.4357 -3.2566
  122SOPE   H2Y12950   4.054   3.827   6.382  2.8242 -0.5176  1.0245
  122SOPE   C2312951   3.697   4.125   6.479 -0.5773 -0.0825  0.6153
  122SOPE   H3R12952   3.667   4.224   6.439 -1.4178 -0.7687 -0.4703
  122SOPE   H3S12953   3.609   4.063   6.504 -1.6441  0.6936 -1.0721
  122SOPE   C2412954   3.769   4.057   6.352 -0.3975  0.4841 -0.6138
  122SOPE   H4R12955   3.868   4.103   6.333  1.2302 -1.3341  2.5185
  122SOPE   H4S12956   3.807   3.958   6.387  0.5392  1.7304  2.2349
  122SOPE   C2512957   3.681   4.049   6.226  0.1709  1.2406 -0.4377
  122SOPE   H5R12958   3.707   3.964   6.159 -1.6171  0.2156  0.1228
  122SOPE   H5S12959   3.580   4.017   6.257  0.4174 -1.5539 -2.1651
  122SOPE   C2612960   3.695   4.166   6.135 -1.2351  0.9988  0.3804
  122SOPE   H6R12961   3.676   4.260   6.190 -1.1759  0.3984  1.4677
  122SOPE   H6S12962   3.802   4.172   6.106 -0.8729 -0.9081  1.1463
  122SOPE   C2712963   3.603   4.164   6.012  0.0486 -0.4808  0.3406
  122SOPE   H7R12964   3.628   4.073   5.953  1.3735 -0.8756  1.4554
  122SOPE   H7S12965   3.501   4.162   6.056 -0.3542 -1.8131 -0.5702
  122SOPE   C2812966   3.624   4.280   5.920  0.4125 -0.0489  0.4068
  122SOPE   H8R12967   3.544   4.287   5.843  2.9387  0.0172 -2.3847
  122SOPE   H8S12968   3.619   4.375   5.977 -0.1523  0.1127  0.0989
  122SOPE   C2912969   3.751   4.263   5.841  0.0145  0.4617 -0.1195
  122SOPE   H9112970   3.839   4.309   5.889 -1.2350  2.2684  0.5467
  122SOPE  C21012971   3.766   4.187   5.731 -0.5254  0.5127  0.2306
  122SOPE  H10112972   3.860   4.193   5.674 -1.4993 -0.9450 -1.6627
  122SOPE  C21112973   3.673   4.096   5.654 -0.0834  0.2835 -0.2906
  122SOPE  H11R12974   3.582   4.059   5.706  0.8666  0.6637  1.7608
  122SOPE  H11S12975   3.740   4.008   5.647  0.9429  0.9109  1.1344
  122SOPE  C21212976   3.647   4.150   5.514  0.2909 -0.5324  0.7223
  122SOPE  H12R12977   3.631   4.259   5.521  0.5142 -0.3580 -1.0732
  122SOPE  H12S12978   3.558   4.111   5.460 -0.4760  2.9131 -0.7236
  122SOPE  C21312979   3.760   4.134   5.406  0.5025  0.0078  0.2698
  122SOPE  H13R12980   3.854   4.180   5.442  0.2621  0.3712  0.4385
  122SOPE  H13S12981   3.727   4.190   5.316 -1.6857  1.2727  1.7663
  122SOPE  C21412982   3.784   3.993   5.353  0.1917  0.8973 -0.4202
  122SOPE  H14R12983   3.691   3.937   5.328  0.3261 -0.3326  1.5682
  122SOPE  H14S12984   3.819   3.939   5.444 -3.2509 -0.6915  0.1209
  122SOPE  C21512985   3.881   3.977   5.234 -0.5234  0.7372  0.3478
  122SOPE  H15R12986   3.978   4.012   5.275  0.3437  0.1593 -1.1382
  122SOPE  H15S12987   3.861   4.039   5.143  0.5527  2.6536  1.3559
  122SOPE  C21612988   3.906   3.829   5.194  0.4308  0.4502 -0.6395
  122SOPE  H16R12989   3.814   3.792   5.145  0.7852 -2.1611  0.4839
  122SOPE  H16S12990   3.919   3.757   5.278  0.6835  0.4454 -0.6817
  122SOPE  C21712991   4.028   3.810   5.106 -0.3765 -0.1347 -0.2455
  122SOPE  H17R12992   4.112   3.832   5.175 -0.1464  2.3763 -1.2393
  122SOPE  H17S12993   4.024   3.882   5.022  0.2003 -0.7780 -0.8352
  122SOPE  C21812994   4.030   3.664   5.042  0.8943 -0.2731  0.2406
  122SOPE  H18R12995   4.111   3.660   4.967  1.1791  1.2419  0.4341
  122SOPE  H18S12996   3.934   3.643   4.991  0.9962 -2.8728  0.9690
  122SOPE  H18T12997   4.046   3.585   5.118  1.1205 -1.2427 -0.7946
  122SOPE   C3312998   4.006   3.676   6.229 -0.0426 -0.1020  0.7615
  122SOPE   H3X12999   3.913   3.733   6.206  0.0259 -1.3757 -3.6347
  122SOPE   H3Y13000   3.979   3.568   6.229 -0.7568  0.0657  1.5707
  122SOPE   C3413001   4.100   3.721   6.117  0.0794 -0.5906  0.3377
  122SOPE   H4X13002   4.201   3.685   6.146  0.2985 -0.0772  0.2418
  122SOPE   H4Y13003   4.105   3.832   6.105  1.1786 -0.5161  1.2719
  122SOPE   C3513004   4.080   3.658   5.981  0.0008 -0.4803 -0.1153
  122SOPE   H5X13005   4.080   3.547   5.982 -1.2837 -0.4948  0.9140
  122SOPE   H5Y13006   4.160   3.695   5.913 -0.7788  2.1043  0.2530
  122SOPE   C3613007   3.945   3.699   5.923  0.1743  0.1731 -0.3024
  122SOPE   H6X13008   3.924   3.808   5.933 -0.2572 -0.1168  2.8782
  122SOPE   H6Y13009   3.866   3.654   5.987  1.9468  2.7612  4.1698
  122SOPE   C3713010   3.938   3.652   5.777 -0.1716  0.0728  0.0735
  122SOPE   H7X13011   3.967   3.545   5.774 -0.8554 -0.0937 -1.7155
  122SOPE   H7Y13012   4.016   3.712   5.725  2.0621 -3.0363 -0.4893
  122SOPE   C3813013   3.804   3.671   5.715  0.4138 -0.0562  0.2684
  122SOPE   H8X13014   3.760   3.772   5.730 -0.3137 -0.2917 -0.2208
  122SOPE   H8Y13015   3.733   3.601   5.763 -0.8892  0.1404 -1.2871
  122SOPE   C3913016   3.807   3.647   5.562  0.5165 -0.3199 -0.5998
  122SOPE   H9X13017   3.869   3.730   5.521 -1.3911  2.0211  0.9332
  122SOPE   H9Y13018   3.702   3.656   5.526 -0.0431 -0.0084  0.9925
  122SOPE  C31013019   3.873   3.508   5.528 -0.6344 -0.5216  0.4112
  122SOPE  H10X13020   3.823   3.436   5.597 -0.3639 -1.6936 -0.5840
  122SOPE  H10Y13021   3.978   3.515   5.563 -1.0373  2.0820  1.3465
  122SOPE  C31113022   3.861   3.451   5.389  0.4059 -0.0292  0.5014
  122SOPE  H11X13023   3.927   3.484   5.306 -0.4613  0.9093  0.1588
  122SOPE  H11Y13024   3.765   3.480   5.342  1.3227 -0.6436 -1.8787
  122SOPE  C31213025   3.857   3.294   5.388  0.1947 -0.3721 -0.3069
  122SOPE  H12X13026   3.773   3.250   5.446 -0.8829  1.3885 -0.4801
  122SOPE  H12Y13027   3.945   3.245   5.435  1.5516 -1.4281 -3.6442
  122SOPE  C31313028   3.842   3.251   5.240 -0.1792 -0.1526 -0.3411
  122SOPE  H13X13029   3.929   3.288   5.181  0.3502 -0.6074  0.1454
  122SOPE  H13Y13030   3.754   3.307   5.203 -0.2107 -0.4986 -0.7974
  122SOPE  C31413031   3.837   3.100   5.207  0.0874 -0.0834 -0.2201
  122SOPE  H14X13032   3.798   3.098   5.104  0.8415  2.9653 -0.6426
  122SOPE  H14Y13033   3.758   3.048   5.265  0.0432  1.2086  0.9210
  122SOPE  C31513034   3.979   3.034   5.219  0.0553 -0.3731 -0.4830
  122SOPE  H15X13035   4.021   3.043   5.321  0.0197  1.4046 -0.5990
  122SOPE  H15Y13036   4.040   3.090   5.144  0.1280 -2.0214 -1.7201
  122SOPE  C31613037   3.974   2.893   5.178 -0.2255 -0.4439 -0.0343
  122SOPE  H16X13038   3.937   2.871   5.076  2.6168  2.4598 -1.8952
  122SOPE  H16Y13039   3.919   2.839   5.258  2.3233  1.7707  3.5328
  122SOPE  C31713040   4.113   2.828   5.199 -0.3843  0.7855  0.1935
  122SOPE  H17X13041   4.179   2.890   5.134 -0.1857  0.4060  0.0268
  122SOPE  H17Y13042   4.116   2.731   5.146 -1.1860  1.2067 -0.6341
  122SOPE  C31813043   4.163   2.813   5.344  0.2587  0.2735 -0.1846
  122SOPE  H18X13044   4.179   2.915   5.384  1.1386 -0.1945  0.7103
  122SOPE  H18Y13045   4.255   2.751   5.341  0.3567  0.2863  1.5004
  122SOPE  H18Z13046   4.092   2.758   5.409 -0.8576  3.4103  1.4353
  123SOPE     N13047   3.014   3.881   2.459  0.1788 -0.2102  0.2328
  123SOPE   HN113048   2.976   3.784   2.466 -1.5255  0.5340  2.6677
  123SOPE   HN213049   3.003   3.919   2.555 -0.7602  0.4749 -0.1319
  123SOPE   HN313050   2.951   3.934   2.395 -2.0131 -0.4896  2.0535
  123SOPE   C1213051   3.161   3.874   2.430  0.4884  0.2648 -0.5402
  123SOPE  H12A13052   3.188   3.953   2.357 -1.0678  0.2453 -1.1643
  123SOPE  H12B13053   3.185   3.777   2.381  2.9036  0.3877  0.2646
  123SOPE   C1113054   3.247   3.900   2.553  0.8532  0.5426 -0.4901
  123SOPE  H11A13055   3.347   3.940   2.524  0.8889 -0.3787 -1.7094
  123SOPE  H11B13056   3.270   3.801   2.598  2.7693  0.9877 -0.4002
  123SOPE     P13057   3.105   3.977   2.766 -0.0859 -0.1954 -0.6845
  123SOPE   O1313058   2.988   3.899   2.731  0.1791  0.6185  0.3314
  123SOPE   O1413059   3.086   4.112   2.822  0.2972 -0.2449  0.6869
  123SOPE   O1213060   3.190   3.993   2.636  0.5246 -0.3544 -0.3082
  123SOPE   O1113061   3.202   3.886   2.855  0.7557 -0.1612  0.6527
  123SOPE    C113062   3.317   3.931   2.916 -0.3938 -0.5358  0.5526
  123SOPE    HA13063   3.307   4.033   2.959  1.7527 -0.8967  2.0890
  123SOPE    HB13064   3.392   3.957   2.838  0.6380  0.5510  1.8471
  123SOPE    C213065   3.370   3.829   3.023  0.2834 -0.7186  0.8521
  123SOPE    HS13066   3.284   3.812   3.091 -0.8134  1.0256 -0.0186
  123SOPE   O2113067   3.483   3.884   3.083 -0.1049  0.4232 -0.7562
  123SOPE   C2113068   3.463   3.982   3.164  0.4466 -0.2494  0.5382
  123SOPE   O2213069   3.352   4.032   3.194 -0.7080 -0.5075  0.2677
  123SOPE   C2213070   3.598   4.029   3.224 -0.0004 -0.8532 -1.1539
  123SOPE   H2R13071   3.661   4.068   3.141  0.6107  0.8917  0.0725
  123SOPE   H2S13072   3.648   3.935   3.255  2.6241  1.4117  2.1483
  123SOPE    C313073   3.410   3.694   2.969 -0.0783  0.5520 -0.2830
  123SOPE    HX13074   3.509   3.707   2.920  0.4201  0.9285  0.7804
  123SOPE    HY13075   3.342   3.661   2.888 -0.4358  0.2642  0.1307
  123SOPE   O3113076   3.429   3.606   3.080  0.7300  0.1343 -0.1600
  123SOPE   C3113077   3.401   3.481   3.064 -0.1460  0.1170  0.8925
  123SOPE   O3213078   3.338   3.428   2.973 -0.5302 -0.4766 -0.2464
  123SOPE   C3213079   3.457   3.397   3.174 -0.7785 -0.2789 -0.9157
  123SOPE   H2X13080   3.567   3.409   3.176 -0.6338 -1.5331  0.4600
  123SOPE   H2Y13081   3.443   3.290   3.147 -1.6473  0.1455 -2.2583
  123SOPE   C2313082   3.608   4.125   3.345  0.7547  0.1574 -0.4707
  123SOPE   H3R13083   3.572   4.075   3.438  0.6661  0.3589 -0.3950
  123SOPE   H3S13084   3.539   4.211   3.328 -1.2391 -1.6508 -2.0155
  123SOPE   C2413085   3.749   4.186   3.363 -0.1762 -0.3793 -0.3007
  123SOPE   H4R13086   3.784   4.228   3.267  0.7687  2.2187  1.0809
  123SOPE   H4S13087   3.732   4.273   3.430 -0.0716 -1.5316  1.2804
  123SOPE   C2513088   3.846   4.096   3.440 -0.0625 -0.1291 -0.4638
  123SOPE   H5R13089   3.827   3.989   3.417  0.3063 -0.5894  1.2274
  123SOPE   H5S13090   3.952   4.125   3.428 -0.4795  1.9261  0.3949
  123SOPE   C2613091   3.820   4.101   3.594 -0.4840  0.0664  0.2635
  123SOPE   H6R13092   3.825   4.206   3.631 -2.1546  0.9351 -1.7236
  123SOPE   H6S13093   3.714   4.070   3.606 -0.6737  0.4904 -0.2680
  123SOPE   C2713094   3.908   3.992   3.674  0.3039  0.4898  0.0757
  123SOPE   H7R13095   3.868   3.999   3.777 -0.6260 -3.0755  0.0748
  123SOPE   H7S13096   3.890   3.888   3.639 -1.0161 -0.4789  3.3035
  123SOPE   C2813097   4.055   4.034   3.681  0.5443 -0.2321 -0.2450
  123SOPE   H8R13098   4.099   4.019   3.580 -0.1585  0.9629 -0.7472
  123SOPE   H8S13099   4.074   4.142   3.702 -0.0949 -0.0157 -0.7390
  123SOPE   C2913100   4.147   3.966   3.780  0.1528  0.3874 -0.5139
  123SOPE   H9113101   4.179   3.868   3.743 -0.4030 -0.1229  0.3337
  123SOPE  C21013102   4.206   4.011   3.887  0.8169  0.5558 -0.6532
  123SOPE  H10113103   4.278   3.944   3.938  0.1106  1.3489  1.4615
  123SOPE  C21113104   4.177   4.139   3.958 -0.6603 -0.0852  0.3727
  123SOPE  H11R13105   4.141   4.111   4.060 -0.2613  1.8832  1.0918
  123SOPE  H11S13106   4.091   4.190   3.910 -0.8355  0.3626  1.1331
  123SOPE  C21213107   4.295   4.238   3.971  0.3949  0.3034  0.7725
  123SOPE  H12R13108   4.241   4.332   3.950  0.2842 -0.4924 -3.3656
  123SOPE  H12S13109   4.354   4.225   3.878  0.6374  0.7643  0.8592
  123SOPE  C21313110   4.379   4.242   4.100 -0.3637 -0.1001  0.6179
  123SOPE  H13R13111   4.457   4.165   4.086 -1.0628 -0.8898  0.9739
  123SOPE  H13S13112   4.313   4.219   4.186  1.0533 -0.2414  1.7048
  123SOPE  C21413113   4.448   4.379   4.118 -0.2000  0.3780  1.1463
  123SOPE  H14R13114   4.369   4.457   4.124 -0.5678  0.5272 -2.9871
  123SOPE  H14S13115   4.504   4.404   4.026 -1.3691 -0.4752  0.1775
  123SOPE  C21513116   4.550   4.371   4.223  0.2474  0.3769 -0.1405
  123SOPE  H15R13117   4.610   4.463   4.240  1.2510  0.3172 -2.8129
  123SOPE  H15S13118   4.630   4.298   4.198 -0.0445 -0.7758  2.0666
  123SOPE  C21613119   4.498   4.324   4.369  0.1942  0.0304 -0.2182
  123SOPE  H16R13120   4.469   4.218   4.357  0.7641 -0.0725 -0.7324
  123SOPE  H16S13121   4.404   4.382   4.383  0.1851  0.2598 -1.1489
  123SOPE  C21713122   4.597   4.353   4.493 -0.4074  0.0042  0.5881
  123SOPE  H17R13123   4.615   4.463   4.496  0.8328 -0.1756  0.1144
  123SOPE  H17S13124   4.696   4.306   4.472 -0.2596  1.5226 -2.6591
  123SOPE  C21813125   4.527   4.300   4.617 -0.2993 -0.5530  0.0166
  123SOPE  H18R13126   4.532   4.189   4.613 -1.5257 -0.6019 -0.8681
  123SOPE  H18S13127   4.417   4.318   4.617 -0.2718 -0.3280 -0.5715
  123SOPE  H18T13128   4.576   4.341   4.707  0.5085  1.9917 -1.4801
  123SOPE   C3313129   3.409   3.421   3.319  0.5765  0.1415 -0.1702
  123SOPE   H3X13130   3.301   3.399   3.331  1.0815 -1.5509  1.7410
  123SOPE   H3Y13131   3.410   3.532   3.332  2.5067  0.0728  0.5250
  123SOPE   C3413132   3.486   3.342   3.425  0.0059  0.1006 -0.3744
  123SOPE   H4X13133   3.591   3.373   3.413  0.1417  0.0448  0.5720
  123SOPE   H4Y13134   3.487   3.233   3.404 -0.8339 -0.3541  1.6699
  123SOPE   C3513135   3.439   3.380   3.569 -0.1948  0.4878 -0.5023
  123SOPE   H5X13136   3.482   3.310   3.644 -0.6169  0.0231 -0.6884
  123SOPE   H5Y13137   3.329   3.377   3.582 -0.0345  1.5234  1.5138
  123SOPE   C3613138   3.486   3.518   3.604  0.0743 -0.2913  0.4497
  123SOPE   H6X13139   3.571   3.546   3.540 -1.0776 -1.4814 -1.7197
  123SOPE   H6Y13140   3.510   3.523   3.713 -2.5915 -0.7611  1.1433
  123SOPE   C3713141   3.383   3.637   3.591  0.8088 -0.6547  0.3735
  123SOPE   H7X13142   3.295   3.614   3.654 -0.1055  2.4089  0.3971
  123SOPE   H7Y13143   3.331   3.635   3.493  1.1415  1.3768  0.0983
  123SOPE   C3813144   3.445   3.774   3.610  0.9420 -0.3257  0.1541
  123SOPE   H8X13145   3.424   3.843   3.526 -1.3309  0.5129  1.3407
  123SOPE   H8Y13146   3.556   3.762   3.604  0.9175 -0.3339 -0.3748
  123SOPE   C3913147   3.408   3.832   3.749 -0.6893 -0.1096 -0.4088
  123SOPE   H9X13148   3.300   3.814   3.768 -0.3290 -1.7860  0.2477
  123SOPE   H9Y13149   3.435   3.940   3.750 -0.2047 -0.2258  0.2590
  123SOPE  C31013150   3.477   3.757   3.863  0.9810  0.0538  0.2419
  123SOPE  H10X13151   3.587   3.759   3.848  0.9413 -0.7564 -0.2425
  123SOPE  H10Y13152   3.447   3.650   3.868  3.1904 -0.6607 -0.4726
  123SOPE  C31113153   3.447   3.820   4.003  0.1104  0.6114  0.1724
  123SOPE  H11X13154   3.340   3.807   4.031 -0.2250 -1.0842 -1.6658
  123SOPE  H11Y13155   3.468   3.928   3.986 -2.5675  1.2967  0.7562
  123SOPE  C31213156   3.540   3.771   4.115  0.7749  0.0009  0.1610
  123SOPE  H12X13157   3.529   3.835   4.206 -1.0911 -0.9305  0.6403
  123SOPE  H12Y13158   3.644   3.775   4.077  0.9533  0.3474  0.6665
  123SOPE  C31313159   3.510   3.626   4.161 -0.7812 -0.2275 -0.8777
  123SOPE  H13X13160   3.493   3.547   4.085  0.7007 -0.5163 -0.9246
  123SOPE  H13Y13161   3.421   3.643   4.225  0.7130  1.5319  0.8844
  123SOPE  C31413162   3.621   3.574   4.258  0.4921  0.1146 -0.7155
  123SOPE  H14X13163   3.724   3.554   4.221  0.7970  0.6774 -0.1818
  123SOPE  H14Y13164   3.572   3.482   4.296 -0.6122  1.1535  0.4540
  123SOPE  C31513165   3.628   3.650   4.392 -0.3649 -0.7229 -0.7377
  123SOPE  H15X13166   3.528   3.690   4.422 -0.1089  0.4896 -1.4201
  123SOPE  H15Y13167   3.688   3.742   4.372 -0.4683 -0.9820 -2.3446
  123SOPE  C31613168   3.703   3.575   4.505 -0.0183  0.1903 -0.2273
  123SOPE  H16X13169   3.811   3.566   4.478  0.4895  0.8557  1.4175
  123SOPE  H16Y13170   3.674   3.470   4.523 -1.7676  0.8178  0.8924
  123SOPE  C31713171   3.711   3.645   4.637  0.0080  0.1242  0.0138
  123SOPE  H17X13172   3.764   3.591   4.718 -1.3422  0.9855  1.5119
  123SOPE  H17Y13173   3.609   3.660   4.678 -0.3615 -0.2981 -0.7331
  123SOPE  C31813174   3.779   3.782   4.636 -0.5646 -0.2072 -0.0356
  123SOPE  H18X13175   3.753   3.854   4.555  0.7291 -2.5103 -2.6912
  123SOPE  H18Y13176   3.889   3.774   4.629 -0.4632  1.1194 -0.1850
  123SOPE  H18Z13177   3.748   3.831   4.731 -0.9228 -1.8004  0.6981
  124SOPE     N13178   1.791   6.361   2.151 -0.8950  0.2684  0.1226
  124SOPE   HN113179   1.744   6.404   2.234  0.7953 -0.6173  1.6134
  124SOPE   HN213180   1.832   6.435   2.090 -0.2447 -0.9824 -0.9975
  124SOPE   HN313181   1.712   6.307   2.110 -0.4951 -0.3044  0.1015
  124SOPE   C1213182   1.906   6.269   2.196  0.8278 -0.4724 -0.2278
  124SOPE  H12A13183   1.991   6.274   2.124 -0.2989 -0.5999 -1.6130
  124SOPE  H12B13184   1.863   6.168   2.182  0.5559 -0.2990 -0.6610
  124SOPE   C1113185   1.947   6.288   2.344 -0.3482  0.2370 -0.0365
  124SOPE  H11A13186   2.028   6.223   2.384 -0.9039  1.3285  3.2323
  124SOPE  H11B13187   1.863   6.271   2.415  0.4990 -0.1604  0.8949
  124SOPE     P13188   1.908   6.546   2.398  0.0712 -0.2636 -0.2107
  124SOPE   O1313189   1.768   6.516   2.390 -0.3191  0.9002  0.3330
  124SOPE   O1413190   1.963   6.659   2.314  0.2956 -0.0369 -0.1965
  124SOPE   O1213191   1.997   6.421   2.365 -0.3329 -0.3730 -0.4047
  124SOPE   O1113192   1.937   6.568   2.557  0.5943 -0.3041  0.1935
  124SOPE    C113193   2.073   6.601   2.598 -0.2627  0.1239  0.6570
  124SOPE    HA13194   2.122   6.667   2.523  2.0482 -1.2320  0.8920
  124SOPE    HB13195   2.134   6.509   2.591 -0.3480  0.1545 -0.9373
  124SOPE    C213196   2.072   6.683   2.731  0.2328 -0.6469 -0.4093
  124SOPE    HS13197   2.178   6.693   2.764 -0.1297 -1.0430  0.9622
  124SOPE   O2113198   1.994   6.610   2.825 -0.2889 -0.1094  0.4556
  124SOPE   C2113199   2.052   6.505   2.876  0.6817  0.3416  0.1190
  124SOPE   O2213200   2.164   6.467   2.852 -0.2865  0.5585 -0.1843
  124SOPE   C2213201   1.962   6.446   2.978  1.0473  0.3739 -0.4593
  124SOPE   H2R13202   1.920   6.351   2.937 -0.9471  1.2020 -0.4322
  124SOPE   H2S13203   1.872   6.508   2.999  0.5987 -0.4798  0.2378
  124SOPE    C313204   1.999   6.825   2.724 -0.6194 -0.2058  0.6543
  124SOPE    HX13205   1.906   6.826   2.664  0.2459  1.6662 -0.7569
  124SOPE    HY13206   2.071   6.888   2.667 -0.5728  1.7722  2.7546
  124SOPE   O3113207   1.990   6.888   2.853 -0.0423  0.0806 -0.4428
  124SOPE   C3113208   1.879   6.867   2.924  0.5833  0.3200 -0.6195
  124SOPE   O3213209   1.770   6.826   2.878  0.6518  0.0693  0.6483
  124SOPE   C3213210   1.910   6.900   3.073  0.1365  0.9178  0.1084
  124SOPE   H2X13211   1.903   7.009   3.096 -1.7468  1.0240 -0.7528
  124SOPE   H2Y13212   2.014   6.862   3.084 -0.6720 -2.0965 -1.6805
  124SOPE   C2313213   2.023   6.416   3.122  0.5435 -0.4109  0.2300
  124SOPE   H3R13214   2.076   6.509   3.153 -1.3353 -0.1871  3.1268
  124SOPE   H3S13215   2.111   6.352   3.099 -1.5227 -3.1431 -0.6218
  124SOPE   C2413216   1.938   6.352   3.226 -0.3703  0.2669 -0.2538
  124SOPE   H4R13217   1.853   6.421   3.245 -1.0920 -0.4916 -0.6955
  124SOPE   H4S13218   1.907   6.255   3.183  2.0539 -0.2410 -1.0049
  124SOPE   C2513219   1.999   6.340   3.364  0.1202  0.1493  0.2332
  124SOPE   H5R13220   2.025   6.442   3.400 -2.3961  1.0179 -0.2079
  124SOPE   H5S13221   1.930   6.295   3.438  0.0598 -0.8901 -0.4257
  124SOPE   C2613222   2.130   6.252   3.378  0.4852 -0.1693 -0.4915
  124SOPE   H6R13223   2.098   6.151   3.342 -1.0294  0.5983 -1.4048
  124SOPE   H6S13224   2.203   6.297   3.307  2.5609 -0.2923  1.4535
  124SOPE   C2713225   2.193   6.253   3.520 -0.0625  0.2202 -0.5817
  124SOPE   H7R13226   2.122   6.209   3.594 -0.5336  0.0677 -1.1114
  124SOPE   H7S13227   2.284   6.189   3.516  0.2709  0.7449 -1.9387
  124SOPE   C2813228   2.246   6.395   3.570  0.7236  0.3054  0.0637
  124SOPE   H8R13229   2.318   6.432   3.493  1.4019 -0.4498  0.3211
  124SOPE   H8S13230   2.153   6.455   3.575 -0.7550 -1.9122  4.3137
  124SOPE   C2913231   2.313   6.366   3.703  0.4272 -0.1393  0.4301
  124SOPE   H9113232   2.409   6.313   3.697  0.0883 -0.5785 -3.2249
  124SOPE  C21013233   2.257   6.387   3.825 -0.1103  0.2218  0.2760
  124SOPE  H10113234   2.316   6.367   3.916 -0.3159  0.0476  0.3700
  124SOPE  C21113235   2.129   6.462   3.856 -0.2874  0.3398  0.1940
  124SOPE  H11R13236   2.038   6.399   3.867  1.4215 -2.4433 -0.6495
  124SOPE  H11S13237   2.109   6.528   3.769 -0.9039 -1.6660 -1.2476
  124SOPE  C21213238   2.133   6.560   3.974 -0.6300 -0.5607 -0.6752
  124SOPE  H12R13239   2.047   6.630   3.978  2.3449  3.3668  2.8045
  124SOPE  H12S13240   2.218   6.632   3.974 -0.9096 -0.1474  1.8451
  124SOPE  C21313241   2.119   6.494   4.110 -0.3006  0.1709 -0.1277
  124SOPE  H13R13242   2.220   6.446   4.108 -0.8492 -1.0629 -2.1090
  124SOPE  H13S13243   2.039   6.417   4.111 -0.8661  0.7048 -1.3642
  124SOPE  C21413244   2.103   6.585   4.233 -0.9984 -0.0496 -0.1678
  124SOPE  H14R13245   2.004   6.634   4.223 -1.2710 -0.5343  0.1370
  124SOPE  H14S13246   2.189   6.656   4.240  1.8345 -3.1294 -1.0597
  124SOPE  C21513247   2.126   6.517   4.371 -0.1878  0.3513 -0.1920
  124SOPE  H15R13248   2.212   6.448   4.358  0.4268  1.1633 -0.5343
  124SOPE  H15S13249   2.034   6.456   4.383  0.9722 -1.5473 -0.4840
  124SOPE  C21613250   2.156   6.614   4.484 -0.6292 -0.4423  0.2109
  124SOPE  H16R13251   2.243   6.677   4.456  0.7629 -2.7365 -0.9882
  124SOPE  H16S13252   2.192   6.565   4.577  0.0256 -0.8258 -0.2312
  124SOPE  C21713253   2.040   6.705   4.504 -0.9256  0.5907 -0.2342
  124SOPE  H17R13254   2.026   6.760   4.408  0.1804 -2.0536 -2.0369
  124SOPE  H17S13255   2.043   6.780   4.586  1.9431  1.4617 -1.0047
  124SOPE  C21813256   1.912   6.623   4.533 -0.3647  0.1772  0.0817
  124SOPE  H18R13257   1.841   6.686   4.590 -0.9118 -2.3758  2.4108
  124SOPE  H18S13258   1.940   6.532   4.590 -0.1030 -0.8257 -1.5571
  124SOPE  H18T13259   1.862   6.594   4.438  0.5187  0.3570 -0.4560
  124SOPE   C3313260   1.819   6.823   3.167 -0.0110  0.0948  0.2781
  124SOPE   H3X13261   1.842   6.714   3.171  0.0182  0.0824 -0.1757
  124SOPE   H3Y13262   1.713   6.830   3.137 -0.0901  2.1502  0.8708
  124SOPE   C3413263   1.842   6.872   3.309  0.3542  0.0385  0.3767
  124SOPE   H4X13264   1.811   6.978   3.315  2.4403  0.6394  1.1452
  124SOPE   H4Y13265   1.950   6.872   3.334  0.7129  2.5402 -0.8423
  124SOPE   C3513266   1.776   6.786   3.414 -0.6564  0.0845  0.0592
  124SOPE   H5X13267   1.676   6.760   3.372  0.1923  0.5386 -2.4218
  124SOPE   H5Y13268   1.765   6.846   3.507 -1.4359 -1.2650  0.8651
  124SOPE   C3613269   1.866   6.657   3.439  0.6787  0.4379 -0.0308
  124SOPE   H6X13270   1.972   6.675   3.410  0.2025  1.3499 -1.2828
  124SOPE   H6Y13271   1.810   6.574   3.389  1.1625  0.2717 -0.3025
  124SOPE   C3713272   1.863   6.612   3.586 -0.3540 -0.6430 -0.2976
  124SOPE   H7X13273   1.874   6.699   3.654  4.1519 -0.4341 -1.0186
  124SOPE   H7Y13274   1.954   6.551   3.606 -0.3125 -0.4366  0.1572
  124SOPE   C3813275   1.743   6.527   3.625 -0.4395 -0.0058  0.7501
  124SOPE   H8X13276   1.751   6.427   3.578 -0.6229  0.0299  0.6430
  124SOPE   H8Y13277   1.645   6.568   3.595 -0.6213 -2.9955 -3.6192
  124SOPE   C3913278   1.730   6.503   3.779 -0.7299 -0.2124  0.0518
  124SOPE   H9X13279   1.819   6.445   3.811  1.4616  1.5199 -2.4327
  124SOPE   H9Y13280   1.642   6.437   3.792 -0.2171 -0.6795  1.2561
  124SOPE  C31013281   1.705   6.630   3.858  0.2301 -0.3754  0.4681
  124SOPE  H10X13282   1.613   6.686   3.832  1.0572  1.5225  1.3807
  124SOPE  H10Y13283   1.791   6.700   3.858  1.1848 -1.5012  0.7312
  124SOPE  C31113284   1.683   6.601   4.011  0.2119  0.2004  0.0386
  124SOPE  H11X13285   1.774   6.565   4.064  1.4484  0.5740 -1.7412
  124SOPE  H11Y13286   1.605   6.523   4.027  0.0994 -0.2015 -2.2573
  124SOPE  C31213287   1.633   6.719   4.095  0.4223 -0.1866  0.1830
  124SOPE  H12X13288   1.558   6.772   4.032 -0.1369 -0.6052  0.4822
  124SOPE  H12Y13289   1.720   6.781   4.125  0.1165 -0.4613  1.7264
  124SOPE  C31313290   1.557   6.684   4.217  0.2413 -0.5359 -0.1050
  124SOPE  H13X13291   1.598   6.597   4.273 -0.4190 -1.0713 -0.4315
  124SOPE  H13Y13292   1.453   6.648   4.207  0.1135 -0.2027  0.0175
  124SOPE  C31413293   1.573   6.785   4.336 -0.0749  0.0524  0.1771
  124SOPE  H14X13294   1.597   6.876   4.277 -0.7284  0.0362 -0.1214
  124SOPE  H14Y13295   1.665   6.771   4.397  2.0965 -0.8881 -3.0218
  124SOPE  C31513296   1.441   6.809   4.410 -0.0384  0.3000 -0.3072
  124SOPE  H15X13297   1.351   6.808   4.346 -0.1562 -0.4942 -0.1306
  124SOPE  H15Y13298   1.435   6.910   4.457 -1.2297 -0.8556  2.2045
  124SOPE  C31613299   1.423   6.712   4.527  0.4394 -0.1234  0.7906
  124SOPE  H16X13300   1.418   6.608   4.489 -1.2321  0.7555 -1.6140
  124SOPE  H16Y13301   1.327   6.740   4.576  0.2933 -1.7834  1.5194
  124SOPE  C31713302   1.536   6.709   4.632  0.3102 -0.7456 -0.4387
  124SOPE  H17X13303   1.559   6.815   4.658  0.3405  0.0545 -3.3065
  124SOPE  H17Y13304   1.626   6.676   4.576  0.3147  0.2148 -1.0310
  124SOPE  C31813305   1.498   6.626   4.758 -0.5221 -0.1848  0.2316
  124SOPE  H18X13306   1.497   6.518   4.735  1.2767  0.0499 -1.2394
  124SOPE  H18Y13307   1.397   6.652   4.796 -0.5545 -1.4184  1.0680
  124SOPE  H18Z13308   1.574   6.647   4.837 -0.3805  1.6086 -0.3351
  125SOPE     N13309   2.964   1.121   2.427  0.0606 -0.0586 -0.1629
  125SOPE   HN113310   2.895   1.197   2.447  0.7726  1.2633 -2.3299
  125SOPE   HN213311   3.021   1.142   2.342  2.8335  0.3530  1.6889
  125SOPE   HN313312   2.909   1.033   2.422  0.5106 -0.4162  1.0773
  125SOPE   C1213313   3.055   1.103   2.543  0.3618  0.4951  0.1293
  125SOPE  H12A13314   3.117   1.195   2.552  3.0696 -1.0661 -1.1227
  125SOPE  H12B13315   3.127   1.019   2.529  0.1330  0.4905 -1.1089
  125SOPE   C1113316   2.965   1.071   2.664  0.1331  0.1409  0.1139
  125SOPE  H11A13317   3.032   1.039   2.746  0.4894  0.1558 -0.1700
  125SOPE  H11B13318   2.903   0.981   2.645 -0.8406  0.4991  1.3977
  125SOPE     P13319   2.900   1.295   2.798 -0.1808  0.3940  0.4079
  125SOPE   O1313320   2.781   1.386   2.807 -0.0360  0.0161 -0.1209
  125SOPE   O1413321   3.029   1.358   2.757 -0.2690  0.0218  0.0794
  125SOPE   O1213322   2.875   1.179   2.694 -0.6260  0.3619 -0.1121
  125SOPE   O1113323   2.903   1.222   2.934  0.0295 -0.3550  0.8938
  125SOPE    C113324   2.828   1.103   2.970 -0.0111 -0.1098  0.6900
  125SOPE    HA13325   2.885   1.012   2.939  2.4295  2.0150 -1.4912
  125SOPE    HB13326   2.732   1.094   2.915  0.2372 -0.2496  0.2780
  125SOPE    C213327   2.807   1.083   3.131 -0.2217 -0.3732  0.5382
  125SOPE    HS13328   2.760   0.986   3.157  2.4744 -1.0920  3.2508
  125SOPE   O2113329   2.737   1.189   3.186  0.0057  0.0811  0.1202
  125SOPE   C2113330   2.620   1.221   3.148  0.7471  0.6047 -0.3150
  125SOPE   O2213331   2.553   1.170   3.056 -0.5831 -0.5076 -0.0342
  125SOPE   C2213332   2.568   1.328   3.245  0.1189 -0.3174  0.7116
  125SOPE   H2R13333   2.607   1.424   3.204  1.0625 -0.9064  0.1789
  125SOPE   H2S13334   2.622   1.308   3.340 -1.4622 -1.1839  1.4662
  125SOPE    C313335   2.952   1.094   3.184  1.1097 -0.0727 -0.2473
  125SOPE    HX13336   2.999   1.184   3.138  2.4875 -0.0152  1.1719
  125SOPE    HY13337   3.016   1.011   3.148  2.1644 -0.2519  1.8470
  125SOPE   O3113338   2.946   1.094   3.332 -0.4422 -0.5614 -0.1362
  125SOPE   C3113339   2.965   1.219   3.388 -0.3167  0.3160  0.6131
  125SOPE   O3213340   2.996   1.319   3.324 -0.1289  0.4527  0.1283
  125SOPE   C3213341   2.931   1.224   3.534 -0.4183 -0.2498 -0.2346
  125SOPE   H2X13342   3.033   1.236   3.576 -0.7399  1.7642  0.0719
  125SOPE   H2Y13343   2.883   1.130   3.568  1.1135 -0.4953  1.3623
  125SOPE   C2313344   2.411   1.330   3.261 -0.6587  1.2034  0.0207
  125SOPE   H3R13345   2.373   1.230   3.292 -0.5278  1.1700  0.0722
  125SOPE   H3S13346   2.370   1.360   3.162  1.8296  0.4857 -1.3265
  125SOPE   C2413347   2.373   1.428   3.371  0.5179 -0.2383  0.5355
  125SOPE   H4R13348   2.415   1.524   3.333 -2.6106  1.3248  0.6717
  125SOPE   H4S13349   2.262   1.429   3.379  0.5811  0.7521  1.5185
  125SOPE   C2513350   2.429   1.399   3.510 -0.3042 -0.4506 -0.6409
  125SOPE   H5R13351   2.497   1.311   3.507  1.4694  0.7724  1.0765
  125SOPE   H5S13352   2.487   1.485   3.549 -2.0416  1.3143 -1.8043
  125SOPE   C2613353   2.315   1.369   3.614  0.5577 -0.1376  0.3105
  125SOPE   H6R13354   2.244   1.454   3.620  0.6558 -0.0347  0.0633
  125SOPE   H6S13355   2.251   1.288   3.573 -1.2677  1.2608  0.2526
  125SOPE   C2713356   2.374   1.330   3.750 -0.3187  0.0170  0.3295
  125SOPE   H7R13357   2.299   1.260   3.793 -0.8155  0.9339  1.0171
  125SOPE   H7S13358   2.474   1.286   3.732 -0.9959 -1.6137  0.4013
  125SOPE   C2813359   2.386   1.443   3.854  0.3329  1.0003  0.1234
  125SOPE   H8R13360   2.445   1.410   3.942  0.0566 -0.2064 -0.1170
  125SOPE   H8S13361   2.451   1.520   3.809  3.3731 -0.8194  1.1024
  125SOPE   C2913362   2.252   1.497   3.897  0.1905  0.2463 -0.5036
  125SOPE   H9113363   2.188   1.550   3.825  1.0774  0.9456 -0.7810
  125SOPE  C21013364   2.199   1.476   4.016  0.0622  0.5858 -0.8954
  125SOPE  H10113365   2.093   1.502   4.032 -0.3240 -2.5535  3.6852
  125SOPE  C21113366   2.262   1.393   4.133 -0.1048  0.2727  0.0727
  125SOPE  H11R13367   2.365   1.364   4.105  0.0278  0.4634  0.3550
  125SOPE  H11S13368   2.196   1.308   4.163  0.0580  0.5993  1.4136
  125SOPE  C21213369   2.277   1.477   4.258 -0.5912  0.7543 -0.1160
  125SOPE  H12R13370   2.316   1.578   4.234  0.7841  0.1057 -0.7662
  125SOPE  H12S13371   2.340   1.429   4.336 -1.3408 -2.2130 -1.2180
  125SOPE  C21313372   2.148   1.509   4.328  0.2032 -0.4974 -0.1241
  125SOPE  H13R13373   2.095   1.418   4.363  0.4212 -0.8908 -0.8065
  125SOPE  H13S13374   2.088   1.563   4.251  0.6110  1.1045  0.6352
  125SOPE  C21413375   2.176   1.606   4.444 -0.8006 -0.8054 -0.2003
  125SOPE  H14R13376   2.232   1.696   4.411 -1.0867 -1.3565 -2.3450
  125SOPE  H14S13377   2.234   1.538   4.511 -1.6517  1.2978  2.8598
  125SOPE  C21513378   2.043   1.642   4.514 -0.6513  0.1917  0.1335
  125SOPE  H15R13379   1.979   1.702   4.446  0.8999  1.5600 -0.1980
  125SOPE  H15S13380   2.076   1.701   4.602 -1.5956 -1.3831  1.5953
  125SOPE  C21613381   1.966   1.515   4.558  0.1228 -0.0174  0.2385
  125SOPE  H16R13382   2.041   1.446   4.602 -0.2731 -1.4173 -1.2213
  125SOPE  H16S13383   1.929   1.467   4.465  1.9003 -0.0448 -0.4948
  125SOPE  C21713384   1.845   1.527   4.646  0.2613 -0.4343 -0.1886
  125SOPE  H17R13385   1.884   1.548   4.748  0.3807  2.5931 -0.7607
  125SOPE  H17S13386   1.783   1.436   4.632 -0.0125 -0.2988  0.1407
  125SOPE  C21813387   1.744   1.640   4.611 -0.2973  0.0678 -0.2287
  125SOPE  H18R13388   1.799   1.736   4.621  1.9705 -1.1387 -0.4444
  125SOPE  H18S13389   1.660   1.643   4.684  0.9185  1.1048  1.1786
  125SOPE  H18T13390   1.703   1.626   4.508 -1.8622 -4.1039  0.7417
  125SOPE   C3313391   2.851   1.346   3.583  0.0088 -0.7170 -0.3068
  125SOPE   H3X13392   2.746   1.352   3.546  0.1631 -0.2515 -0.6857
  125SOPE   H3Y13393   2.904   1.436   3.544  0.4740 -0.8639 -0.0173
  125SOPE   C3413394   2.854   1.343   3.735 -0.4196  0.8076 -0.0526
  125SOPE   H4X13395   2.955   1.351   3.781 -1.0289 -1.7990  1.9897
  125SOPE   H4Y13396   2.808   1.244   3.753 -1.3408  1.0619 -0.9134
  125SOPE   C3513397   2.769   1.450   3.791  0.6417 -0.6396 -0.6121
  125SOPE   H5X13398   2.678   1.479   3.735  1.1286  2.9483  0.2003
  125SOPE   H5Y13399   2.840   1.536   3.784  1.7478 -1.6606 -2.9740
  125SOPE   C3613400   2.723   1.427   3.936 -0.1852  0.7550  0.5137
  125SOPE   H6X13401   2.810   1.385   3.991  0.8839  1.5082 -0.5719
  125SOPE   H6Y13402   2.645   1.347   3.936 -0.5944  1.1495  0.1458
  125SOPE   C3713403   2.679   1.551   4.012  0.5308 -0.3146  0.6332
  125SOPE   H7X13404   2.579   1.588   3.981 -1.2436 -3.9092  1.5096
  125SOPE   H7Y13405   2.751   1.632   3.988 -2.5334  2.7989  1.1140
  125SOPE   C3813406   2.671   1.538   4.165  0.1588  0.1016 -0.3884
  125SOPE   H8X13407   2.762   1.487   4.202 -0.3632 -1.3221 -0.9794
  125SOPE   H8Y13408   2.580   1.479   4.189 -0.6270  1.5430  0.3251
  125SOPE   C3913409   2.651   1.665   4.247 -0.2367  0.3460 -0.3829
  125SOPE   H9X13410   2.546   1.700   4.236 -0.0954  0.1521 -3.0080
  125SOPE   H9Y13411   2.722   1.747   4.220  1.0660 -1.1517 -1.6844
  125SOPE  C31013412   2.666   1.632   4.398  0.1216  0.2571  1.0245
  125SOPE  H10X13413   2.770   1.593   4.404 -0.1220 -0.8767 -1.2859
  125SOPE  H10Y13414   2.593   1.555   4.433 -0.3700  0.5238  0.6063
  125SOPE  C31113415   2.643   1.743   4.501 -0.8447  0.3416  0.3498
  125SOPE  H11X13416   2.725   1.817   4.495  0.0465 -0.6298  0.3597
  125SOPE  H11Y13417   2.664   1.694   4.598  2.8554  1.3147  0.1888
  125SOPE  C31213418   2.498   1.790   4.501  0.3518 -0.0345  0.0758
  125SOPE  H12X13419   2.424   1.711   4.479  1.5285 -1.5359  1.2631
  125SOPE  H12Y13420   2.490   1.875   4.430  0.7431 -0.3457 -0.3520
  125SOPE  C31313421   2.476   1.861   4.636 -0.3488 -0.0962  0.2976
  125SOPE  H13X13422   2.480   1.794   4.725 -1.5608  0.0891  0.5094
  125SOPE  H13Y13423   2.371   1.893   4.623  0.1572  1.1061 -1.1156
  125SOPE  C31413424   2.560   1.988   4.666  0.4665 -0.4585 -0.0946
  125SOPE  H14X13425   2.529   2.063   4.591  0.9495  1.5943  1.6412
  125SOPE  H14Y13426   2.668   1.968   4.654  0.4768 -1.2102  1.1160
  125SOPE  C31513427   2.527   2.062   4.798  0.1510 -0.1272  0.1929
  125SOPE  H15X13428   2.539   1.985   4.877  0.6937 -3.4788 -2.8800
  125SOPE  H15Y13429   2.423   2.101   4.791  0.5826  0.9415 -0.5528
  125SOPE  C31613430   2.623   2.184   4.817 -0.0457 -0.3190 -0.3878
  125SOPE  H16X13431   2.727   2.155   4.793  0.2364 -0.5618  1.0657
  125SOPE  H16Y13432   2.620   2.202   4.927 -1.6080  1.3394 -0.6332
  125SOPE  C31713433   2.573   2.301   4.742 -0.3761 -0.5560 -1.1286
  125SOPE  H17X13434   2.472   2.326   4.779 -1.0125 -0.8262 -2.6169
  125SOPE  H17Y13435   2.567   2.282   4.633 -1.6175  0.4512 -1.2511
  125SOPE  C31813436   2.664   2.422   4.763  0.1184 -0.2114 -0.1433
  125SOPE  H18X13437   2.745   2.416   4.688 -0.6013 -2.8356 -0.8026
  125SOPE  H18Y13438   2.717   2.432   4.861  0.7317  3.3453 -0.6975
  125SOPE  H18Z13439   2.594   2.509   4.760  0.4613  0.2771  2.8011
  126SOPE     N13440   4.431   2.593   2.872  0.4117 -0.3832  0.3316
  126SOPE   HN113441   4.480   2.595   2.780  0.1609 -0.9082  0.1816
  126SOPE   HN213442   4.501   2.611   2.946  0.5082  1.2001 -0.1066
  126SOPE   HN313443   4.400   2.494   2.882 -0.7974 -0.0138  0.4228
  126SOPE   C1213444   4.324   2.709   2.858 -0.4957  0.0673  0.0155
  126SOPE  H12A13445   4.226   2.657   2.852 -0.4140  0.0510 -1.6235
  126SOPE  H12B13446   4.342   2.764   2.763 -3.4989 -0.9639 -1.2598
  126SOPE   C1113447   4.318   2.807   2.978 -0.0946  0.2678  0.2120
  126SOPE  H11A13448   4.241   2.883   2.951 -0.6517 -0.3171  0.1214
  126SOPE  H11B13449   4.415   2.861   2.988  0.7197 -1.4881  2.6985
  126SOPE     P13450   4.334   2.804   3.242  0.2810 -0.0050  0.0692
  126SOPE   O1313451   4.483   2.807   3.243  0.2118  0.6799  0.4053
  126SOPE   O1413452   4.263   2.729   3.350 -0.1325 -0.2159  0.3165
  126SOPE   O1213453   4.282   2.741   3.103  0.1532  0.3730 -0.1450
  126SOPE   O1113454   4.291   2.956   3.239 -0.3809 -0.2848 -0.1257
  126SOPE    C113455   4.154   2.997   3.251 -0.1173  0.2476  0.5826
  126SOPE    HA13456   4.082   2.914   3.269  0.0575 -0.9255 -3.3831
  126SOPE    HB13457   4.128   3.037   3.151  0.8239 -2.4252 -0.8181
  126SOPE    C213458   4.141   3.086   3.380  0.0139 -0.2677 -0.1603
  126SOPE    HS13459   4.045   3.141   3.373 -0.0556 -0.4344 -0.5838
  126SOPE   O2113460   4.249   3.173   3.409  0.4707  0.1470 -0.0950
  126SOPE   C2113461   4.275   3.263   3.312  0.5608 -0.7253  0.3492
  126SOPE   O2213462   4.207   3.280   3.210 -0.3436 -0.0503 -0.5602
  126SOPE   C2213463   4.386   3.355   3.365  0.2709  0.0747  0.1096
  126SOPE   H2R13464   4.484   3.304   3.373  0.1283 -0.0953  0.7917
  126SOPE   H2S13465   4.363   3.382   3.470  1.4629 -1.2944  0.7465
  126SOPE    C313466   4.127   2.992   3.506  0.0806 -0.3131 -0.4407
  126SOPE    HX13467   4.217   2.927   3.516  0.3642 -0.2177 -2.1648
  126SOPE    HY13468   4.040   2.925   3.488 -0.1157  0.1232 -1.1307
  126SOPE   O3113469   4.089   3.061   3.626 -1.0790 -0.6684  0.0140
  126SOPE   C3113470   4.193   3.103   3.699  1.5125  0.1657  0.1765
  126SOPE   O3213471   4.310   3.084   3.681 -0.0332 -0.5380 -0.5236
  126SOPE   C3213472   4.140   3.180   3.825 -0.4310 -0.8817 -0.3437
  126SOPE   H2X13473   4.100   3.105   3.896  0.9935  0.5530  2.1046
  126SOPE   H2Y13474   4.061   3.250   3.791 -1.8676 -1.8935  0.8016
  126SOPE   C2313475   4.386   3.486   3.281 -0.1790 -1.1784  0.1249
  126SOPE   H3R13476   4.284   3.529   3.291 -0.1546 -1.0555 -0.1661
  126SOPE   H3S13477   4.407   3.459   3.176  1.3960  1.7847 -0.4347
  126SOPE   C2413478   4.488   3.584   3.335  0.7194 -0.2714 -0.4833
  126SOPE   H4R13479   4.586   3.532   3.339  1.6889  1.5206 -0.1856
  126SOPE   H4S13480   4.499   3.667   3.262 -2.1425  0.9135  0.2716
  126SOPE   C2513481   4.460   3.644   3.473  0.8368 -0.1541  0.6807
  126SOPE   H5R13482   4.377   3.715   3.460  1.5411  0.5527 -0.0828
  126SOPE   H5S13483   4.433   3.568   3.550 -1.8754 -1.0550 -1.0289
  126SOPE   C2613484   4.577   3.732   3.529 -1.1450 -0.0273  0.0734
  126SOPE   H6R13485   4.664   3.665   3.548 -2.0791 -1.8418 -1.5997
  126SOPE   H6S13486   4.613   3.806   3.455  0.0204  1.1544  1.7731
  126SOPE   C2713487   4.537   3.804   3.664 -0.4433 -0.0736  0.7864
  126SOPE   H7R13488   4.449   3.871   3.651  0.4473  1.0954  0.5851
  126SOPE   H7S13489   4.511   3.727   3.741  2.7633 -1.1236  0.9646
  126SOPE   C2813490   4.651   3.887   3.719 -0.2797 -0.2231 -0.9305
  126SOPE   H8R13491   4.704   3.950   3.645  1.2761 -1.2209 -0.7158
  126SOPE   H8S13492   4.600   3.959   3.787 -1.7950  0.9526 -3.1711
  126SOPE   C2913493   4.745   3.787   3.782  0.7605 -0.4198 -0.3991
  126SOPE   H9113494   4.829   3.768   3.714  0.9717 -2.4202  0.3567
  126SOPE  C21013495   4.743   3.734   3.905 -0.3034 -0.0888 -1.2406
  126SOPE  H10113496   4.826   3.670   3.938 -0.7338  0.7319  1.7132
  126SOPE  C21113497   4.649   3.775   4.020 -0.2330 -0.2510  0.5985
  126SOPE  H11R13498   4.639   3.691   4.091  0.2683 -1.1533 -0.3808
  126SOPE  H11S13499   4.552   3.811   3.980 -0.5198 -1.3850  0.2435
  126SOPE  C21213500   4.709   3.897   4.100  0.7551  0.4762  0.5020
  126SOPE  H12R13501   4.626   3.946   4.154  2.6428  2.1553  2.0740
  126SOPE  H12S13502   4.755   3.965   4.025 -1.5216 -1.1833 -2.5769
  126SOPE  C21313503   4.818   3.856   4.203  0.2926 -0.4733 -0.2937
  126SOPE  H13R13504   4.903   3.794   4.165  0.4700  0.3574 -1.2642
  126SOPE  H13S13505   4.771   3.787   4.277  1.3580  0.6660  1.5185
  126SOPE  C21413506   4.866   3.978   4.276  0.1176 -0.3099 -0.4962
  126SOPE  H14R13507   4.787   4.052   4.298  1.0500  1.3388 -2.4074
  126SOPE  H14S13508   4.933   4.041   4.214 -1.2118  1.5267 -0.1379
  126SOPE  C21513509   4.947   3.948   4.405 -0.3572 -0.0927  0.3577
  126SOPE  H15R13510   5.040   3.892   4.381 -1.1545 -0.3969 -2.4898
  126SOPE  H15S13511   4.877   3.885   4.464 -2.0481  0.5424 -0.8779
  126SOPE  C21613512   4.970   4.072   4.486 -0.3415  0.3570 -0.6347
  126SOPE  H16R13513   4.873   4.122   4.506 -0.6507 -0.0988 -0.9630
  126SOPE  H16S13514   5.039   4.142   4.434  0.7232  0.0870  0.3797
  126SOPE  C21713515   5.047   4.027   4.612  0.0922 -0.6778 -0.5366
  126SOPE  H17R13516   5.130   3.956   4.592  1.0928  0.5800 -1.0341
  126SOPE  H17S13517   4.976   3.982   4.685 -0.8035 -1.4940 -1.8702
  126SOPE  C21813518   5.099   4.149   4.688 -0.1739 -0.2313  0.1188
  126SOPE  H18R13519   5.169   4.203   4.621  1.3789 -2.6266 -0.3169
  126SOPE  H18S13520   5.144   4.114   4.784 -1.7999 -1.6250  0.4134
  126SOPE  H18T13521   5.009   4.211   4.707  0.6002  1.0169 -0.1773
  126SOPE   C3313522   4.254   3.246   3.910  0.1116 -0.6626  0.1931
  126SOPE   H3X13523   4.321   3.296   3.837 -0.4008 -0.1003  0.1027
  126SOPE   H3Y13524   4.317   3.163   3.950 -0.7658 -1.7146 -0.5503
  126SOPE   C3413525   4.208   3.333   4.026 -0.6929 -0.9174 -0.0988
  126SOPE   H4X13526   4.154   3.276   4.104  0.7364  0.7165  2.1914
  126SOPE   H4Y13527   4.142   3.416   3.992  0.0671  0.1553  0.9779
  126SOPE   C3513528   4.319   3.402   4.105 -0.2789  0.1701  0.2445
  126SOPE   H5X13529   4.381   3.483   4.061 -0.7311 -0.5422 -1.8448
  126SOPE   H5Y13530   4.388   3.322   4.137  0.0781 -0.0304 -0.9628
  126SOPE   C3613531   4.265   3.466   4.248 -0.4646  0.7186 -0.0597
  126SOPE   H6X13532   4.185   3.403   4.292  0.6950 -0.3433  0.5905
  126SOPE   H6Y13533   4.220   3.563   4.217 -1.1961  0.2228 -0.5662
  126SOPE   C3713534   4.378   3.498   4.347 -0.2272  0.0320  0.2107
  126SOPE   H7X13535   4.455   3.569   4.310  0.2936 -1.1486 -1.0416
  126SOPE   H7Y13536   4.434   3.409   4.382  3.1223  1.8910 -0.0142
  126SOPE   C3813537   4.310   3.563   4.469 -0.2735 -0.3517  0.3853
  126SOPE   H8X13538   4.254   3.653   4.435  1.2811  0.0293 -1.3568
  126SOPE   H8Y13539   4.394   3.598   4.533 -1.0767  1.1308  0.6766
  126SOPE   C3913540   4.232   3.464   4.554  0.9941  0.0145 -0.4627
  126SOPE   H9X13541   4.291   3.370   4.567  0.6456 -0.2291 -0.6362
  126SOPE   H9Y13542   4.133   3.444   4.509  1.0545  1.0614 -1.0942
  126SOPE  C31013543   4.210   3.526   4.692 -0.0118  0.3373  0.3980
  126SOPE  H10X13544   4.138   3.611   4.693  3.1181  3.2406 -1.4607
  126SOPE  H10Y13545   4.304   3.569   4.731  0.3528 -0.2119  0.1401
  126SOPE  C31113546   4.157   3.416   4.791  0.2887 -0.3861  0.1331
  126SOPE  H11X13547   4.125   3.457   4.889 -0.2387  2.2689 -1.0565
  126SOPE  H11Y13548   4.237   3.339   4.795 -1.0949 -1.9851 -1.1156
  126SOPE  C31213549   4.033   3.343   4.745 -0.2830 -0.1966  0.3675
  126SOPE  H12X13550   4.065   3.280   4.659  3.1630 -1.0513  2.1178
  126SOPE  H12Y13551   3.954   3.410   4.704 -0.0905  1.2194  2.1589
  126SOPE  C31313552   3.968   3.241   4.842  0.1267 -0.0093 -0.0320
  126SOPE  H13X13553   3.967   3.283   4.945  0.2653  0.1426 -0.0904
  126SOPE  H13Y13554   4.035   3.152   4.846  1.0179  0.6604  0.4021
  126SOPE  C31413555   3.825   3.204   4.811 -0.1047  0.6349  0.0346
  126SOPE  H14X13556   3.771   3.297   4.783  2.3788  2.1164 -0.1105
  126SOPE  H14Y13557   3.778   3.155   4.899  3.0780 -1.0769  0.9128
  126SOPE  C31513558   3.809   3.101   4.693 -0.3512 -0.7158 -0.7410
  126SOPE  H15X13559   3.850   3.148   4.602 -1.8815  4.3474  0.8609
  126SOPE  H15Y13560   3.700   3.090   4.673 -0.1181 -0.8140 -2.0195
  126SOPE  C31613561   3.883   2.972   4.728  0.0572 -0.3277  0.3219
  126SOPE  H16X13562   3.827   2.932   4.815 -1.6812 -0.0794 -0.6536
  126SOPE  H16Y13563   3.990   2.982   4.756  0.1479  0.0704 -0.1642
  126SOPE  C31713564   3.870   2.873   4.620  0.0018  0.7209  0.0689
  126SOPE  H17X13565   3.926   2.904   4.529  0.4196 -1.4875 -0.5021
  126SOPE  H17Y13566   3.763   2.870   4.590 -0.0054 -1.0605  0.1721
  126SOPE  C31813567   3.914   2.728   4.660  0.5611 -0.2463  0.2861
  126SOPE  H18X13568   3.841   2.684   4.732  1.3675 -0.5757  0.9224
  126SOPE  H18Y13569   4.014   2.724   4.709  0.5174 -0.4028  0.3638
  126SOPE  H18Z13570   3.920   2.661   4.571 -0.6775 -1.2409  0.9213
  127SOPE     N13571   1.010   6.262   2.333 -0.0861 -0.1433 -0.1834
  127SOPE   HN113572   0.965   6.336   2.390 -0.5638 -0.2153 -0.4575
  127SOPE   HN213573   0.924   6.234   2.281 -0.8088 -0.6893  1.2405
  127SOPE   HN313574   1.036   6.183   2.395 -0.2075 -0.1726 -0.1695
  127SOPE   C1213575   1.120   6.313   2.250  0.3277 -0.1703 -0.7554
  127SOPE  H12A13576   1.096   6.413   2.208  1.2252  0.8069  0.9327
  127SOPE  H12B13577   1.126   6.239   2.167 -1.8626 -0.9996 -0.2235
  127SOPE   C1113578   1.248   6.328   2.327 -0.1045 -0.1452 -0.2400
  127SOPE  H11A13579   1.238   6.391   2.418  1.2383  0.8969 -0.7725
  127SOPE  H11B13580   1.312   6.387   2.257 -2.4050 -0.3600 -2.6687
  127SOPE     P13581   1.439   6.213   2.453 -0.3868 -0.1900  0.4467
  127SOPE   O1313582   1.538   6.306   2.395  0.8119 -0.0175  0.4229
  127SOPE   O1413583   1.500   6.084   2.481  0.1810 -0.7753  0.1284
  127SOPE   O1213584   1.309   6.204   2.363  0.4233  0.4561 -0.3457
  127SOPE   O1113585   1.385   6.282   2.585 -0.3109 -0.0826  0.5160
  127SOPE    C113586   1.295   6.211   2.663 -0.9012 -0.8624 -0.3295
  127SOPE    HA13587   1.330   6.108   2.688 -0.7309 -0.1968  2.5621
  127SOPE    HB13588   1.197   6.190   2.614 -1.1801 -0.4900  0.0584
  127SOPE    C213589   1.271   6.281   2.800 -0.4991 -0.2416 -0.1922
  127SOPE    HS13590   1.235   6.384   2.779 -0.1647  0.0893  0.8036
  127SOPE   O2113591   1.385   6.277   2.881  0.3624  0.3975 -0.5989
  127SOPE   C2113592   1.475   6.374   2.864 -0.2016 -0.0330 -0.2231
  127SOPE   O2213593   1.467   6.456   2.773 -0.0397  0.1694  0.3309
  127SOPE   C2213594   1.592   6.350   2.965 -0.0932 -0.2708  0.7210
  127SOPE   H2R13595   1.686   6.321   2.915 -0.2006 -1.4425  1.1718
  127SOPE   H2S13596   1.565   6.261   3.026 -0.6107 -0.0262  0.8609
  127SOPE    C313597   1.150   6.221   2.875 -0.3589 -0.1239  0.2225
  127SOPE    HX13598   1.180   6.137   2.941  0.9893  0.5564  0.5098
  127SOPE    HY13599   1.085   6.168   2.801 -0.7394 -0.4030  0.7491
  127SOPE   O3113600   1.078   6.320   2.953  0.3218  0.2907  0.3928
  127SOPE   C3113601   0.947   6.315   2.947 -0.0397  0.1645  0.1040
  127SOPE   O3213602   0.878   6.229   2.892 -0.0559  0.4288 -0.1365
  127SOPE   C3213603   0.884   6.434   3.022 -0.8063  0.0328  0.1419
  127SOPE   H2X13604   0.784   6.457   2.980 -0.0103  2.9878 -0.3455
  127SOPE   H2Y13605   0.941   6.528   3.008 -1.8315  0.5183 -0.9147
  127SOPE   C2313606   1.604   6.477   3.049  0.0024 -0.4677 -0.7787
  127SOPE   H3R13607   1.621   6.567   2.986  0.6895  0.7566  1.0698
  127SOPE   H3S13608   1.704   6.470   3.097  1.6876  0.4830 -3.8738
  127SOPE   C2413609   1.498   6.487   3.161 -0.1619 -0.3764 -0.2990
  127SOPE   H4R13610   1.401   6.508   3.111  0.7182  1.6060 -1.2584
  127SOPE   H4S13611   1.503   6.389   3.214  2.2859 -0.5636 -0.7449
  127SOPE   C2513612   1.508   6.601   3.257  0.6901  0.7569  0.1358
  127SOPE   H5R13613   1.585   6.572   3.332 -0.2781 -0.8597  0.5391
  127SOPE   H5S13614   1.532   6.700   3.212  1.5634  1.6901  2.4875
  127SOPE   C2613615   1.382   6.620   3.338 -0.6279 -0.3593 -0.1112
  127SOPE   H6R13616   1.293   6.644   3.276 -1.1114 -2.0081 -0.1028
  127SOPE   H6S13617   1.356   6.534   3.403  0.0684  0.6010  1.5137
  127SOPE   C2713618   1.403   6.734   3.440 -1.0209 -0.7050 -0.5663
  127SOPE   H7R13619   1.476   6.700   3.517  1.7277  2.2039 -1.6500
  127SOPE   H7S13620   1.456   6.818   3.389  1.3812 -1.7772  0.0463
  127SOPE   C2813621   1.276   6.795   3.508  0.1372  0.3570 -0.7428
  127SOPE   H8R13622   1.316   6.885   3.560  2.3437 -2.1336  2.1537
  127SOPE   H8S13623   1.198   6.828   3.435 -0.1124  2.2780  0.3104
  127SOPE   C2913624   1.208   6.710   3.617  0.7391 -0.3233 -0.2929
  127SOPE   H9113625   1.158   6.620   3.578  0.5288 -0.3166 -0.0387
  127SOPE  C21013626   1.226   6.715   3.756 -0.5556  0.7098 -0.5299
  127SOPE  H10113627   1.160   6.656   3.822  1.0889  0.1067  0.6461
  127SOPE  C21113628   1.301   6.830   3.837 -0.2758  0.2789  0.2229
  127SOPE  H11R13629   1.354   6.909   3.779 -0.3961  0.9270  0.9774
  127SOPE  H11S13630   1.376   6.785   3.905  0.1451 -1.9556 -1.5989
  127SOPE  C21213631   1.195   6.905   3.923 -0.4865 -0.4260  0.0343
  127SOPE  H12R13632   1.110   6.934   3.858 -1.4748 -0.6777  1.1813
  127SOPE  H12S13633   1.248   6.994   3.963  0.1989  0.2178 -2.1616
  127SOPE  C21313634   1.150   6.821   4.046  0.3547  0.3705  0.1212
  127SOPE  H13R13635   1.237   6.777   4.100  0.4854  0.4184 -0.0489
  127SOPE  H13S13636   1.084   6.741   4.006 -0.1319  0.2067  1.2415
  127SOPE  C21413637   1.068   6.911   4.141  0.1573  0.3395  0.4938
  127SOPE  H14R13638   1.021   6.851   4.222 -1.1539 -0.3491 -0.7429
  127SOPE  H14S13639   0.992   6.954   4.072  2.6521 -1.3139 -3.6769
  127SOPE  C21513640   1.139   7.030   4.207 -0.9115  0.4318  0.5036
  127SOPE  H15R13641   1.172   7.105   4.132  1.2009 -1.3049 -0.4235
  127SOPE  H15S13642   1.231   7.003   4.263  0.3031  3.0504 -0.0899
  127SOPE  C21613643   1.049   7.110   4.293 -0.8263 -0.4964  0.6994
  127SOPE  H16R13644   0.966   7.151   4.232 -0.9921  0.4053  1.5064
  127SOPE  H16S13645   1.109   7.196   4.329  1.3332 -1.9603  0.7760
  127SOPE  C21713646   0.994   7.041   4.413 -0.4196  0.2522  0.0260
  127SOPE  H17R13647   1.070   6.983   4.470 -2.6632 -1.0100  1.9320
  127SOPE  H17S13648   0.936   6.950   4.388  1.2327 -1.1008  0.9044
  127SOPE  C21813649   0.907   7.122   4.514  0.1442 -0.5028  0.7303
  127SOPE  H18R13650   0.809   7.137   4.465  1.0484  3.6822 -0.2356
  127SOPE  H18S13651   0.944   7.226   4.531 -1.0679  0.1929 -0.6566
  127SOPE  H18T13652   0.902   7.064   4.609  1.6602  0.7353  1.6173
  127SOPE   C3313653   0.862   6.406   3.174  0.4647 -0.3636  0.6818
  127SOPE   H3X13654   0.807   6.309   3.180 -0.3954 -0.0946 -1.6849
  127SOPE   H3Y13655   0.806   6.492   3.218 -1.6836 -1.2326 -0.2102
  127SOPE   C3413656   0.992   6.400   3.257 -0.3855  0.4012  0.4740
  127SOPE   H4X13657   1.052   6.493   3.245 -1.2619  0.7780 -1.3372
  127SOPE   H4Y13658   1.057   6.316   3.225 -1.2540  0.4316 -1.5340
  127SOPE   C3513659   0.964   6.390   3.411  0.2478 -0.2018 -0.4613
  127SOPE   H5X13660   1.056   6.384   3.474  0.1308 -1.3467 -0.3771
  127SOPE   H5Y13661   0.922   6.290   3.430  0.2694 -0.0749  0.2864
  127SOPE   C3613662   0.880   6.502   3.472  0.6424 -0.1579  0.2624
  127SOPE   H6X13663   0.776   6.519   3.437  0.1673 -0.5109  1.4394
  127SOPE   H6Y13664   0.920   6.601   3.440  1.4441 -0.7715 -0.6628
  127SOPE   C3713665   0.872   6.494   3.628  0.9597 -0.4431  0.3596
  127SOPE   H7X13666   0.969   6.488   3.682  0.3119 -1.0136  1.4968
  127SOPE   H7Y13667   0.812   6.407   3.661 -1.8256  1.4379  0.6439
  127SOPE   C3813668   0.799   6.617   3.674  0.9420  0.1565 -0.8441
  127SOPE   H8X13669   0.688   6.611   3.668  0.3910  3.5474  2.0498
  127SOPE   H8Y13670   0.828   6.700   3.607 -0.2880  0.1684 -1.3964
  127SOPE   C3913671   0.832   6.650   3.819  0.0743  0.4879 -0.0593
  127SOPE   H9X13672   0.789   6.747   3.850  1.1378  0.6890  0.8455
  127SOPE   H9Y13673   0.942   6.665   3.824  0.1721 -0.4491  0.8247
  127SOPE  C31013674   0.783   6.540   3.922 -0.1605  0.3892  0.1147
  127SOPE  H10X13675   0.852   6.454   3.930  1.2969  1.5938  1.1029
  127SOPE  H10Y13676   0.688   6.499   3.881  0.8704  1.3396 -3.5844
  127SOPE  C31113677   0.752   6.604   4.055 -0.4646  0.4774  0.4067
  127SOPE  H11X13678   0.677   6.686   4.054 -0.1492  0.8292  1.9850
  127SOPE  H11Y13679   0.850   6.639   4.092  0.8827 -2.7661  0.2472
  127SOPE  C31213680   0.695   6.498   4.155 -0.5314 -0.1056  0.4640
  127SOPE  H12X13681   0.749   6.401   4.158 -1.1294 -0.5039 -0.9347
  127SOPE  H12Y13682   0.598   6.468   4.111  0.5119 -0.1971 -1.9134
  127SOPE  C31313683   0.687   6.558   4.294 -0.2207 -0.5344  0.0825
  127SOPE  H13X13684   0.623   6.648   4.290 -0.1854 -0.5348 -0.7531
  127SOPE  H13Y13685   0.790   6.591   4.319  0.0602 -1.1775 -0.1951
  127SOPE  C31413686   0.628   6.466   4.393  0.2884  0.3636  0.2018
  127SOPE  H14X13687   0.686   6.372   4.408 -1.2249 -0.7184 -0.3794
  127SOPE  H14Y13688   0.533   6.425   4.352  0.9390  0.7740 -1.8412
  127SOPE  C31513689   0.588   6.531   4.525 -0.3134  0.6135 -0.2763
  127SOPE  H15X13690   0.530   6.622   4.500 -2.0329 -0.8861 -2.0661
  127SOPE  H15Y13691   0.670   6.548   4.598 -0.8916 -1.7406  1.0355
  127SOPE  C31613692   0.502   6.441   4.613  0.0450  0.1074  0.7676
  127SOPE  H16X13693   0.546   6.339   4.623 -0.4329 -0.3813 -1.4519
  127SOPE  H16Y13694   0.414   6.429   4.545  1.0567  2.8751 -1.1964
  127SOPE  C31713695   0.456   6.504   4.747  0.3711  0.0181  0.4030
  127SOPE  H17X13696   0.546   6.514   4.812 -0.3230 -0.1414  1.4262
  127SOPE  H17Y13697   0.393   6.422   4.789  0.4071 -0.6454 -0.8026
  127SOPE  C31813698   0.369   6.639   4.751  0.2812 -0.0546 -0.0270
  127SOPE  H18X13699   0.355   6.676   4.855  3.1690 -0.5127  0.6079
  127SOPE  H18Y13700   0.268   6.616   4.712 -0.5367  0.9563  1.3889
  127SOPE  H18Z13701   0.422   6.721   4.698  1.4699  0.5990  2.0468
  128SOPE     N13702   3.257   4.301   2.766  0.6952 -0.0861 -0.0262
  128SOPE   HN113703   3.348   4.262   2.735  0.3511  0.5720 -2.0641
  128SOPE   HN213704   3.191   4.226   2.795  3.3449 -2.4788  0.2852
  128SOPE   HN313705   3.218   4.362   2.691  0.8354  0.1026  0.0540
  128SOPE   C1213706   3.275   4.378   2.894 -0.0246  0.0665 -0.6359
  128SOPE  H12A13707   3.335   4.308   2.956 -0.1587  0.0915 -0.4773
  128SOPE  H12B13708   3.175   4.400   2.938 -0.0977 -0.4309 -0.5453
  128SOPE   C1113709   3.360   4.510   2.882 -0.5468  0.4132  0.0917
  128SOPE  H11A13710   3.470   4.490   2.880 -0.9754 -2.3910 -0.7394
  128SOPE  H11B13711   3.343   4.580   2.966  0.6319  1.5009 -0.5287
  128SOPE     P13712   3.200   4.670   2.755 -0.3262 -0.1813 -0.2835
  128SOPE   O1313713   3.083   4.600   2.811 -0.0183 -0.3755 -0.1024
  128SOPE   O1413714   3.186   4.718   2.618 -0.0468 -0.3426  0.2421
  128SOPE   O1213715   3.322   4.567   2.759 -0.1345 -0.2065  0.4756
  128SOPE   O1113716   3.257   4.776   2.861 -0.0729  0.3291  0.5828
  128SOPE    C113717   3.368   4.871   2.850 -0.5570  0.3494  0.2988
  128SOPE    HA13718   3.330   4.976   2.847 -1.3194  0.0660 -0.2800
  128SOPE    HB13719   3.417   4.847   2.753 -1.1556  0.5202 -0.0552
  128SOPE    C213720   3.465   4.859   2.969  0.4042 -0.2316  0.5152
  128SOPE    HS13721   3.498   4.753   2.969 -0.7496 -0.6975  3.6921
  128SOPE   O2113722   3.398   4.902   3.089 -0.7639 -0.1066  0.3725
  128SOPE   C2113723   3.412   4.830   3.192  0.4289  0.1232  0.3668
  128SOPE   O2213724   3.466   4.716   3.191  0.3167  0.1432 -0.2728
  128SOPE   C2213725   3.350   4.903   3.312 -0.1604  0.1584  0.1083
  128SOPE   H2R13726   3.255   4.846   3.325 -0.9438  1.3801 -0.0553
  128SOPE   H2S13727   3.321   5.008   3.291  2.6345  0.9676 -0.0652
  128SOPE    C313728   3.586   4.951   2.937  0.0019 -0.3792 -0.0377
  128SOPE    HX13729   3.558   5.058   2.940 -0.7605 -0.5674 -0.1522
  128SOPE    HY13730   3.629   4.934   2.836  2.9584  2.1557  0.6239
  128SOPE   O3113731   3.693   4.932   3.030 -0.4041  0.1830 -0.1399
  128SOPE   C3113732   3.766   4.824   3.020  0.4567  0.3405 -0.1045
  128SOPE   O3213733   3.749   4.732   2.937 -0.2908  0.1504  0.3645
  128SOPE   C3213734   3.884   4.830   3.124 -0.4306  0.1200 -0.0528
  128SOPE   H2X13735   3.890   4.921   3.189 -1.6280  1.1453 -1.3145
  128SOPE   H2Y13736   3.974   4.824   3.060 -1.9362 -1.7737 -2.1296
  128SOPE   C2313737   3.450   4.898   3.429  0.7022 -0.0785 -0.9428
  128SOPE   H3R13738   3.537   4.959   3.397  1.0508 -0.4910 -0.7909
  128SOPE   H3S13739   3.476   4.794   3.457 -3.0273 -0.4128  2.2145
  128SOPE   C2413740   3.395   4.979   3.548 -0.1690 -0.6305 -0.1064
  128SOPE   H4R13741   3.400   5.086   3.519  0.0940 -0.1475  1.6447
  128SOPE   H4S13742   3.286   4.969   3.569 -0.3704  0.4063 -0.5791
  128SOPE   C2513743   3.486   4.964   3.673  0.6371 -0.1883  0.7117
  128SOPE   H5R13744   3.480   4.855   3.693 -2.9918  0.1689  2.4118
  128SOPE   H5S13745   3.588   4.994   3.642  0.5916 -0.7629 -0.0375
  128SOPE   C2613746   3.434   5.046   3.794 -0.2035  0.2413  0.0810
  128SOPE   H6R13747   3.415   5.149   3.757 -0.8683  0.0352 -0.1647
  128SOPE   H6S13748   3.342   4.998   3.833 -0.6907  0.5597 -0.6675
  128SOPE   C2713749   3.531   5.063   3.912  0.2559  0.4131 -0.6275
  128SOPE   H7R13750   3.598   5.149   3.897  0.6438  0.6992  2.1453
  128SOPE   H7S13751   3.480   5.085   4.009 -1.6054 -0.2952 -1.3858
  128SOPE   C2813752   3.613   4.932   3.943 -0.2281 -0.2013  0.8260
  128SOPE   H8R13753   3.535   4.854   3.959 -0.8718  0.1378 -0.5273
  128SOPE   H8S13754   3.678   4.911   3.856 -2.3011  2.5981 -1.5894
  128SOPE   C2913755   3.695   4.937   4.068 -0.7105 -0.0250  0.4367
  128SOPE   H9113756   3.796   4.981   4.060  0.3510 -2.1879  1.2674
  128SOPE  C21013757   3.654   4.901   4.184 -0.2156  0.1317 -0.8317
  128SOPE  H10113758   3.730   4.905   4.263 -0.3479 -0.1620 -0.6864
  128SOPE  C21113759   3.522   4.843   4.221  0.2170  0.5333  0.1268
  128SOPE  H11R13760   3.443   4.910   4.182  2.6638  2.2795 -2.1284
  128SOPE  H11S13761   3.509   4.848   4.331 -1.6071  0.0738 -0.0298
  128SOPE  C21213762   3.508   4.694   4.188  0.1120  0.4538 -0.2719
  128SOPE  H12R13763   3.508   4.668   4.080  0.1293 -1.3916  0.1334
  128SOPE  H12S13764   3.409   4.657   4.221  0.8699 -0.8887  0.6173
  128SOPE  C21313765   3.613   4.593   4.239 -0.2967 -0.2839  0.3423
  128SOPE  H13R13766   3.706   4.637   4.197 -1.7471  3.9058  1.0592
  128SOPE  H13S13767   3.586   4.493   4.199 -1.3728 -0.0351  0.4189
  128SOPE  C21413768   3.621   4.588   4.402  0.0143  0.0543  0.3085
  128SOPE  H14R13769   3.667   4.681   4.441 -0.5662  1.4986 -2.2282
  128SOPE  H14S13770   3.678   4.494   4.417  0.1420  0.1260  0.2755
  128SOPE  C21513771   3.494   4.558   4.469  0.2090  0.1681 -0.0452
  128SOPE  H15R13772   3.439   4.481   4.410  1.0667 -0.0826 -0.5365
  128SOPE  H15S13773   3.427   4.647   4.468  2.2948  1.8233  0.7040
  128SOPE  C21613774   3.513   4.514   4.614 -0.5623 -0.7273  0.3992
  128SOPE  H16R13775   3.589   4.580   4.661 -0.4275 -0.4230 -0.2488
  128SOPE  H16S13776   3.562   4.414   4.613 -0.1397 -0.5442 -1.6566
  128SOPE  C21713777   3.379   4.512   4.698 -0.0207 -0.0758 -0.7793
  128SOPE  H17R13778   3.306   4.461   4.631  0.6673 -1.4303 -0.5260
  128SOPE  H17S13779   3.351   4.618   4.719  0.2426 -0.0949 -0.3173
  128SOPE  C21813780   3.399   4.435   4.828 -0.7480  0.3900 -0.2070
  128SOPE  H18R13781   3.306   4.396   4.875 -0.3777 -1.5153 -0.9313
  128SOPE  H18S13782   3.467   4.492   4.895 -0.9264  1.2071 -0.7187
  128SOPE  H18T13783   3.457   4.344   4.800 -0.4109  1.6001 -4.0015
  128SOPE   C3313784   3.892   4.703   3.218 -0.0203  0.2192  0.3835
  128SOPE   H3X13785   3.992   4.697   3.265 -0.1120 -0.8154  0.4559
  128SOPE   H3Y13786   3.875   4.611   3.159  2.2291 -0.0480  0.0708
  128SOPE   C3413787   3.786   4.716   3.335 -0.0907 -0.1291 -0.2009
  128SOPE   H4X13788   3.688   4.742   3.289 -0.7606 -1.7421  0.2545
  128SOPE   H4Y13789   3.815   4.801   3.401 -0.7779  0.2361 -0.3551
  128SOPE   C3513790   3.776   4.586   3.421 -0.3391 -0.3789 -0.5474
  128SOPE   H5X13791   3.884   4.559   3.430 -0.5063 -1.0129 -0.3553
  128SOPE   H5Y13792   3.729   4.501   3.367  0.9229 -1.5343  0.0972
  128SOPE   C3613793   3.713   4.607   3.554  0.1262 -0.4061 -0.5986
  128SOPE   H6X13794   3.613   4.655   3.542  0.7418  1.0291 -0.2693
  128SOPE   H6Y13795   3.765   4.686   3.612 -0.7556 -1.3950  1.6472
  128SOPE   C3713796   3.704   4.477   3.641 -0.7435 -0.5162  0.2692
  128SOPE   H7X13797   3.813   4.455   3.654 -0.3127  1.1039 -0.2994
  128SOPE   H7Y13798   3.645   4.395   3.596  0.1888 -1.4621  0.7271
  128SOPE   C3813799   3.653   4.510   3.780  0.2672 -0.2211  0.3250
  128SOPE   H8X13800   3.542   4.507   3.774  0.2410 -0.4420  0.9015
  128SOPE   H8Y13801   3.667   4.615   3.814 -0.2091  0.0433 -0.2750
  128SOPE   C3913802   3.713   4.420   3.887 -0.5107 -0.4238  0.1373
  128SOPE   H9X13803   3.707   4.471   3.985  1.5277 -2.3885  1.3645
  128SOPE   H9Y13804   3.816   4.409   3.847 -0.1129 -0.7555  1.2375
  128SOPE  C31013805   3.646   4.283   3.891  0.0057 -0.6685  0.1632
  128SOPE  H10X13806   3.639   4.230   3.793  0.0205 -1.3038  0.4983
  128SOPE  H10Y13807   3.540   4.287   3.922 -0.1267 -1.3786 -0.1532
  128SOPE  C31113808   3.715   4.178   3.982 -0.1433  0.6506  0.1675
  128SOPE  H11X13809   3.811   4.170   3.927  0.4651 -1.2190  1.4005
  128SOPE  H11Y13810   3.652   4.089   3.959  0.2522  0.4446 -0.1523
  128SOPE  C31213811   3.720   4.209   4.133  0.3264 -0.7769 -0.3134
  128SOPE  H12X13812   3.727   4.320   4.141  1.8913 -0.9911  2.4232
  128SOPE  H12Y13813   3.802   4.155   4.184  0.8907  0.3635  0.0218
  128SOPE  C31313814   3.583   4.177   4.197  0.1054  0.5094  0.0820
  128SOPE  H13X13815   3.559   4.069   4.186  1.1863  0.3054 -0.4385
  128SOPE  H13Y13816   3.508   4.238   4.143 -0.4513  0.0198  0.2889
  128SOPE  C31413817   3.580   4.205   4.347 -0.4904 -0.3534 -0.1819
  128SOPE  H14X13818   3.568   4.313   4.371 -0.3345 -0.6916  1.5797
  128SOPE  H14Y13819   3.679   4.182   4.391 -1.0947 -0.1648  1.3535
  128SOPE  C31513820   3.484   4.113   4.426 -0.5817  0.0749 -0.4033
  128SOPE  H15X13821   3.490   4.011   4.384  3.6256 -0.6500  1.4524
  128SOPE  H15Y13822   3.381   4.154   4.419 -0.6463 -0.2776 -1.8161
  128SOPE  C31613823   3.523   4.097   4.573  0.3859  0.1545 -0.1715
  128SOPE  H16X13824   3.494   4.195   4.616 -1.2873 -0.6266  0.5881
  128SOPE  H16Y13825   3.632   4.080   4.589  0.5582  1.8351  0.6654
  128SOPE  C31713826   3.444   3.988   4.659  0.1765 -0.7970 -0.2119
  128SOPE  H17X13827   3.468   3.884   4.631 -1.1424 -1.0077 -0.6110
  128SOPE  H17Y13828   3.335   3.999   4.642  0.1039 -0.3171  0.5186
  128SOPE  C31813829   3.476   4.010   4.812  0.1679 -0.0573  0.0878
  128SOPE  H18X13830   3.583   4.029   4.836  0.3024 -2.1435  1.3771
  128SOPE  H18Y13831   3.452   3.913   4.862  0.8476 -0.1728  0.1974
  128SOPE  H18Z13832   3.415   4.095   4.850 -0.1761 -1.0854  1.9871
  129OSM      N13833   2.634   1.377   6.732  0.1462 -0.1277  0.4867
  129OSM    C1513834   2.575   1.270   6.815 -0.1649 -0.2901 -0.4359
  129OSM   H15A13835   2.624   1.241   6.907 -0.9941 -2.2093 -0.5592
  129OSM   H15B13836   2.559   1.181   6.756  0.8530  0.8159 -2.4711
  129OSM   H15C13837   2.482   1.305   6.857  0.7083  0.9920  0.5492
  129OSM    C1413838   2.657   1.501   6.804 -0.1105 -0.5817  0.1432
  129OSM   H14A13839   2.702   1.577   6.740 -0.5290  0.3398  0.9180
  129OSM   H14B13840   2.738   1.489   6.874 -0.7308  0.2895  1.0209
  129OSM   H14C13841   2.578   1.552   6.857  0.8517 -0.2797  1.3324
  129OSM    C1313842   2.762   1.332   6.671  0.1066  0.0916  0.3069
  129OSM   H13A13843   2.811   1.391   6.596 -0.6366 -0.7302 -0.8614
  129OSM   H13B13844   2.745   1.228   6.644 -2.1530  0.4881 -0.0466
  129OSM   H13C13845   2.842   1.317   6.742  1.3701 -1.2495 -1.3257
  129OSM    C1213846   2.543   1.403   6.617 -0.1435  1.2050  0.8470
  129OSM   H12A13847   2.508   1.304   6.594  1.7584  0.0130  2.7007
  129OSM   H12B13848   2.605   1.435   6.534 -0.2756  1.4870  0.8575
  129OSM    C1113849   2.411   1.486   6.625 -0.1851 -0.3601 -0.5191
  129OSM   H11A13850   2.367   1.487   6.523  0.0359  0.2386 -0.6135
  129OSM   H11B13851   2.441   1.589   6.653  2.5959 -0.4185 -2.8725
  129OSM      P13852   2.242   1.295   6.695  0.0827  0.0809 -0.2165
  129OSM    O1313853   2.335   1.181   6.686  0.0464  0.7873 -0.4461
  129OSM    O1413854   2.139   1.284   6.804 -0.0034 -0.0432 -0.6725
  129OSM    O1113855   2.174   1.320   6.548  0.0861 -0.3166  0.0365
  129OSM    O1213856   2.316   1.429   6.718  0.6135  0.2117  0.0808
  129OSM    C1S13857   2.027   1.351   6.556 -0.3500  0.4883  0.1691
  129OSM    H1S13858   2.020   1.457   6.589  2.6048  1.7556 -2.7187
  129OSM    H1T13859   1.965   1.283   6.619  1.3359 -2.1096 -0.8378
  129OSM     NF13860   1.824   1.387   6.439 -0.9590 -0.2096 -0.2677
  129OSM    HNF13861   1.755   1.315   6.435  0.5576 -1.8484  1.6095
  129OSM    C2S13862   1.961   1.346   6.415 -0.3358 -0.9404 -0.3842
  129OSM    H2S13863   2.018   1.419   6.354  1.2160 -0.5006  1.4661
  129OSM    C3S13864   1.986   1.210   6.348  0.1161  0.5733 -0.5846
  129OSM    H3S13865   1.951   1.120   6.402  3.4307 -0.9835 -0.8032
  129OSM     O313866   2.127   1.190   6.331  0.4259  0.2569  0.4641
  129OSM    HO313867   2.161   1.254   6.394 -1.1842  3.3845 -1.6068
  129OSM    C4S13868   1.905   1.209   6.213 -0.0087 -0.1862 -0.4155
  129OSM    H4S13869   1.932   1.290   6.143  0.0303 -0.7416 -1.0516
  129OSM    C5S13870   1.788   1.151   6.189 -0.1642  0.9539  0.2389
  129OSM    H5S13871   1.740   1.096   6.271 -3.0645  3.0503  0.0914
  129OSM    C6S13872   1.703   1.193   6.073 -0.5227  0.0558 -0.7714
  129OSM    H6S13873   1.639   1.280   6.100 -3.3655 -2.4897  1.3369
  129OSM    H6T13874   1.622   1.117   6.064 -1.4944  0.6302  2.0883
  129OSM    C7S13875   1.773   1.205   5.936  0.3226 -0.1551 -0.0607
  129OSM    H7S13876   1.841   1.122   5.909  0.9955  1.0705 -2.5126
  129OSM    H7T13877   1.845   1.289   5.948  1.2881 -0.4702 -2.8414
  129OSM    C8S13878   1.675   1.230   5.821 -0.3581  0.1616  0.1066
  129OSM    H8S13879   1.622   1.328   5.830 -0.1015  0.1626  1.9069
  129OSM    H8T13880   1.591   1.157   5.825  0.1531 -0.3970  0.9525
  129OSM    C9S13881   1.750   1.229   5.688  0.2985  0.6321 -0.3440
  129OSM    H9S13882   1.810   1.136   5.687 -3.8694 -2.3810  0.2025
  129OSM    H9T13883   1.826   1.308   5.701 -0.0126  0.7770  0.7548
  129OSM   C10S13884   1.677   1.238   5.559  0.2730 -0.4332 -0.0860
  129OSM   H10S13885   1.633   1.336   5.533 -0.4462 -0.7252  0.0189
  129OSM   H10T13886   1.603   1.156   5.544 -0.5083 -0.2113  2.1571
  129OSM   C11S13887   1.789   1.223   5.445  0.2877 -0.2002  0.0972
  129OSM   H11S13888   1.749   1.160   5.363 -2.0182  1.1566  0.0774
  129OSM   H11T13889   1.883   1.175   5.479  0.5625 -0.4673 -0.9991
  129OSM   C12S13890   1.812   1.348   5.361 -0.2438 -0.1999  0.2260
  129OSM   H12S13891   1.833   1.431   5.432 -0.2417 -0.9165  1.0890
  129OSM   H12T13892   1.714   1.363   5.311  0.5855 -0.1694 -1.4482
  129OSM   C13S13893   1.925   1.327   5.256  0.1955 -0.6250  0.2118
  129OSM   H13S13894   1.888   1.251   5.185 -1.1489  1.4579 -1.4489
  129OSM   H13T13895   2.004   1.276   5.315 -0.8647  0.5747  2.8079
  129OSM   C14S13896   1.980   1.451   5.185 -0.9532  0.3943  0.3880
  129OSM   H14S13897   2.013   1.527   5.259  0.5530  0.5809 -0.4333
  129OSM   H14T13898   1.916   1.501   5.110 -0.6185  0.0958 -0.1048
  129OSM   C15S13899   2.103   1.411   5.115 -0.4591  0.4439  1.0016
  129OSM   H15S13900   2.089   1.315   5.061 -0.2530 -0.4920  2.5434
  129OSM   H15T13901   2.182   1.382   5.188 -0.5922 -1.6770  0.3854
  129OSM   C16S13902   2.169   1.513   5.020  0.4678 -0.3025  0.0753
  129OSM   H16S13903   2.219   1.595   5.077  1.0396  0.1180 -0.9963
  129OSM   H16T13904   2.085   1.558   4.962  0.9052 -0.5129 -0.7398
  129OSM   C17S13905   2.274   1.450   4.929  0.6246  0.4472 -0.2299
  129OSM   H17S13906   2.229   1.368   4.869  0.5221 -1.0621  1.8146
  129OSM   H17T13907   2.347   1.414   5.004 -0.0517  0.0988  0.2655
  129OSM   C18S13908   2.327   1.548   4.828  0.1900  0.1788 -0.4463
  129OSM   H18S13909   2.402   1.493   4.768  0.2679  1.0189 -1.1342
  129OSM   H18T13910   2.375   1.628   4.888 -0.8746 -0.2695  1.0890
  129OSM   H18U13911   2.252   1.604   4.768  1.0658  1.6505 -0.2189
  129OSM    C1F13912   1.775   1.508   6.463  0.0723  0.0070 -1.0948
  129OSM     OF13913   1.845   1.606   6.491  0.1697  0.4538 -0.0308
  129OSM    C2F13914   1.623   1.528   6.464 -0.0175  0.7895 -0.6397
  129OSM    H2F13915   1.605   1.630   6.505  1.5357  0.7435  0.2447
  129OSM    H2G13916   1.571   1.452   6.527  0.2882  0.3020 -0.9688
  129OSM    C3F13917   1.571   1.509   6.312 -1.1258  0.1614 -0.0150
  129OSM    H3F13918   1.603   1.414   6.266 -1.3091  1.1361 -2.2689
  129OSM    H3G13919   1.615   1.590   6.251  2.5264  0.6280  2.8927
  129OSM    C4F13920   1.417   1.509   6.311 -0.3528 -0.1906 -0.1967
  129OSM    H4F13921   1.373   1.590   6.373 -1.5062 -1.8741  1.3162
  129OSM    H4G13922   1.385   1.415   6.362 -2.1838  1.9402  2.9423
  129OSM    C5F13923   1.362   1.515   6.169 -0.0002 -0.3824 -0.3115
  129OSM    H5F13924   1.255   1.484   6.167  0.1759 -0.9552 -1.6877
  129OSM    H5G13925   1.411   1.446   6.098 -1.5288 -0.6178 -1.2000
  129OSM    C6F13926   1.358   1.669   6.113 -1.0221 -0.1153 -0.0836
  129OSM    H6F13927   1.463   1.706   6.116 -0.4632 -1.5887 -0.6930
  129OSM    H6G13928   1.297   1.736   6.179 -0.4544 -1.1581  1.5714
  129OSM    C7F13929   1.308   1.682   5.968  0.4770  0.1166  0.1451
  129OSM    H7F13930   1.302   1.791   5.950 -0.0670  0.1699  0.6267
  129OSM    H7G13931   1.206   1.641   5.978  0.8452 -1.5702 -2.2483
  129OSM    C8F13932   1.383   1.607   5.860 -0.2078 -0.0688  0.2673
  129OSM    H8F13933   1.377   1.497   5.878 -0.6433  0.2412  2.1916
  129OSM    H8G13934   1.489   1.639   5.854  0.3426 -1.9919 -2.1942
  129OSM    C9F13935   1.323   1.629   5.724 -0.8136  0.3971  0.6668
  129OSM    H9F13936   1.216   1.601   5.714  0.0659 -2.4737 -3.3488
  129OSM   C10F13937   1.384   1.679   5.614 -0.8359  0.7312 -0.4630
  129OSM   H10F13938   1.313   1.694   5.532 -0.4819  1.0927 -0.7043
  129OSM   C11F13939   1.524   1.719   5.604  0.0466 -0.0558  0.0481
  129OSM   H11F13940   1.587   1.634   5.637 -1.2255 -1.3782 -0.7929
  129OSM   H11G13941   1.554   1.815   5.650 -0.3287  0.9305 -1.6707
  129OSM   C12F13942   1.564   1.753   5.456  0.3427  0.1910 -0.2948
  129OSM   H12F13943   1.672   1.779   5.461  0.2741  0.2745  0.9835
  129OSM   H12G13944   1.515   1.847   5.421 -0.8336 -0.4620 -0.4381
  129OSM   C13F13945   1.534   1.641   5.357  0.5816  0.7632  0.3862
  129OSM   H13F13946   1.431   1.601   5.360  0.6435  0.6510  2.3142
  129OSM   H13G13947   1.608   1.561   5.379  0.6954  0.2909 -1.5707
  129OSM   C14F13948   1.547   1.676   5.207 -0.0638 -0.6950 -0.0991
  129OSM   H14F13949   1.643   1.731   5.197 -0.1340 -0.5681 -0.0691
  129OSM   H14G13950   1.462   1.743   5.184 -0.3670 -0.5641  1.3347
  129OSM   C15F13951   1.532   1.552   5.116  0.3555  0.7338  0.1650
  129OSM   H15F13952   1.426   1.520   5.123 -0.0495  1.9190 -0.3668
  129OSM   H15G13953   1.588   1.466   5.160 -1.2011 -0.2778  0.2202
  129OSM   C16F13954   1.568   1.558   4.967  0.3955 -0.1192 -0.4869
  129OSM   H16F13955   1.671   1.599   4.962  0.1208  1.7305  3.7932
  129OSM   H16G13956   1.507   1.639   4.922 -0.4363  0.5773  1.7300
  129OSM   C17F13957   1.563   1.427   4.884 -0.5429 -0.2404 -0.2424
  129OSM   H17F13958   1.562   1.453   4.776 -1.1900  1.0469  0.0525
  129OSM   H17G13959   1.466   1.378   4.908 -0.7648  0.1095 -0.4163
  129OSM   C18F13960   1.675   1.335   4.923  0.5263 -0.0041  0.8160
  129OSM   H18F13961   1.670   1.234   4.876 -1.5404  0.6185 -0.4302
  129OSM   H18G13962   1.688   1.322   5.033  1.6504  0.3758  0.7454
  129OSM   H18H13963   1.772   1.376   4.890  1.4201 -1.5729  1.3563
  130OSM      N13964   2.077   1.795   6.701 -0.2933  0.3399  0.4496
  130OSM    C1513965   1.962   1.718   6.748 -0.5163  0.2806  0.4657
  130OSM   H15A13966   1.873   1.771   6.777 -0.7539  1.8400 -2.6510
  130OSM   H15B13967   1.986   1.644   6.823 -0.9773 -0.1699  0.1767
  130OSM   H15C13968   1.935   1.653   6.666 -0.1917 -3.8139  3.2880
  130OSM    C1413969   2.155   1.690   6.623 -0.4867  0.1830  0.1089
  130OSM   H14A13970   2.109   1.683   6.525  0.2801  1.6578 -0.3892
  130OSM   H14B13971   2.167   1.595   6.671 -0.0181  0.2171  0.0605
  130OSM   H14C13972   2.250   1.719   6.582  0.2820 -1.1107  0.9071
  130OSM    C1313973   2.026   1.902   6.612 -0.3679 -0.6123  0.0050
  130OSM   H13A13974   1.966   1.867   6.530 -0.0842 -0.3969 -0.2948
  130OSM   H13B13975   2.102   1.968   6.574 -0.0185  1.0504  3.2683
  130OSM   H13C13976   1.965   1.970   6.670  2.9613  2.3511  0.3789
  130OSM    C1213977   2.162   1.845   6.816  0.3437  0.5823 -0.4356
  130OSM   H12A13978   2.150   1.766   6.889 -0.9376 -0.6196 -1.8675
  130OSM   H12B13979   2.113   1.933   6.855  1.3792  0.2148  1.8455
  130OSM    C1113980   2.313   1.889   6.791  0.0031 -0.1166 -0.4342
  130OSM   H11A13981   2.365   1.795   6.765 -0.9750 -1.0624  0.8484
  130OSM   H11B13982   2.348   1.940   6.884 -0.6791  0.4769 -0.4955
  130OSM      P13983   2.418   1.952   6.558 -0.3260 -0.1375  0.4198
  130OSM    O1313984   2.561   1.957   6.595  0.1090 -0.3307 -0.2079
  130OSM    O1413985   2.374   1.831   6.486 -0.0973  0.5479  0.8954
  130OSM    O1113986   2.390   2.076   6.469  0.2170 -0.2073 -0.3967
  130OSM    O1213987   2.331   1.990   6.691  0.2215 -0.0819 -0.2337
  130OSM    C1S13988   2.416   2.212   6.503  0.2709 -0.1278  0.2457
  130OSM    H1S13989   2.501   2.219   6.575 -2.0780 -0.9851  3.2931
  130OSM    H1T13990   2.330   2.263   6.550  0.4052 -0.0770  0.4363
  130OSM     NF13991   2.519   2.406   6.386  0.1113  0.1289 -0.4778
  130OSM    HNF13992   2.463   2.479   6.348 -2.1616 -2.3299 -2.1212
  130OSM    C2S13993   2.459   2.279   6.367 -0.4035  0.3210 -0.9289
  130OSM    H2S13994   2.530   2.205   6.325  0.3056 -1.3862  2.8237
  130OSM    C3S13995   2.341   2.268   6.267 -0.5893  0.0023  0.1430
  130OSM    H3S13996   2.255   2.312   6.322  0.0496  1.4181  0.0688
  130OSM     O313997   2.289   2.139   6.248 -0.5657  0.5049  0.2568
  130OSM    HO313998   2.316   2.083   6.321 -0.9552 -1.0421 -0.7164
  130OSM    C4S13999   2.366   2.346   6.138  0.5664 -0.5519  0.1663
  130OSM    H4S14000   2.366   2.456   6.148 -0.6754 -0.4931 -0.2139
  130OSM    C5S14001   2.387   2.303   6.013  0.1172  0.0683 -0.0271
  130OSM    H5S14002   2.379   2.195   5.998  0.5547 -0.1368  1.0846
  130OSM    C6S14003   2.406   2.398   5.892 -0.4310 -0.5452 -1.2360
  130OSM    H6S14004   2.321   2.376   5.824 -1.6582 -0.2652  0.1501
  130OSM    H6T14005   2.505   2.385   5.844 -0.2333  2.0378 -1.6359
  130OSM    C7S14006   2.407   2.548   5.929  0.7637 -0.4777  0.3080
  130OSM    H7S14007   2.497   2.574   5.989  1.8889 -2.7211 -0.2679
  130OSM    H7T14008   2.319   2.587   5.983 -0.3698 -0.6183 -1.3490
  130OSM    C8S14009   2.412   2.630   5.798  0.5341  0.2031  0.3281
  130OSM    H8S14010   2.386   2.736   5.815  3.0317  0.9872 -0.3058
  130OSM    H8T14011   2.328   2.586   5.739 -1.0941  2.3953  0.9141
  130OSM    C9S14012   2.550   2.621   5.737  0.4833  0.6831 -0.0884
  130OSM    H9S14013   2.572   2.515   5.714 -2.4461 -0.1212  0.3409
  130OSM    H9T14014   2.626   2.664   5.806  1.6827 -1.0879 -0.2590
  130OSM   C10S14015   2.539   2.696   5.598 -0.3894  0.0932  0.1154
  130OSM   H10S14016   2.471   2.784   5.600  0.4075  0.9558 -3.2822
  130OSM   H10T14017   2.491   2.619   5.535  0.3233 -0.4281  0.1917
  130OSM   C11S14018   2.669   2.749   5.539  0.1308 -0.2520 -0.6348
  130OSM   H11S14019   2.746   2.678   5.575 -0.0403  0.8971  2.2438
  130OSM   H11T14020   2.685   2.843   5.596 -0.1510 -1.6494  1.8738
  130OSM   C12S14021   2.669   2.797   5.396  0.1048 -0.2239  0.5932
  130OSM   H12S14022   2.763   2.851   5.372 -1.2065  2.1431  0.4573
  130OSM   H12T14023   2.588   2.873   5.392 -0.5126 -0.9136 -1.1327
  130OSM   C13S14024   2.635   2.697   5.295 -0.0042 -0.3720 -0.8303
  130OSM   H13S14025   2.527   2.673   5.310 -0.5570  0.5045 -2.9704
  130OSM   H13T14026   2.684   2.598   5.306 -0.7030 -0.4479  2.3850
  130OSM   C14S14027   2.658   2.745   5.147  0.6479  0.0889 -0.7722
  130OSM   H14S14028   2.763   2.781   5.140  2.0880 -2.6341  3.1979
  130OSM   H14T14029   2.586   2.821   5.111  1.3059 -0.4156 -3.3656
  130OSM   C15S14030   2.648   2.628   5.046 -1.2810 -0.0782 -0.3251
  130OSM   H15S14031   2.738   2.564   5.051  0.6481  2.5168 -0.0736
  130OSM   H15T14032   2.671   2.673   4.947  1.4288 -1.3483 -0.3473
  130OSM   C16S14033   2.511   2.560   5.050 -1.1212  0.3729 -0.3997
  130OSM   H16S14034   2.516   2.504   5.146 -0.0725  1.4649  0.2095
  130OSM   H16T14035   2.508   2.474   4.980 -1.7063 -1.4761  1.7722
  130OSM   C17S14036   2.389   2.650   5.039  0.3370  0.0645  0.2987
  130OSM   H17S14037   2.401   2.744   5.097  0.8032  0.1013  0.1439
  130OSM   H17T14038   2.305   2.597   5.089 -0.7852  1.8632  0.4172
  130OSM   C18S14039   2.354   2.683   4.891  0.3617 -0.1862 -1.1181
  130OSM   H18S14040   2.254   2.730   4.885  0.6248  0.9376  1.6833
  130OSM   H18T14041   2.352   2.586   4.836  2.8567 -1.8938  1.4597
  130OSM   H18U14042   2.430   2.753   4.850  1.6519 -1.2287 -0.6097
  130OSM    C1F14043   2.625   2.443   6.463  0.6921  0.0593 -0.0919
  130OSM     OF14044   2.669   2.366   6.548  0.8667  0.0748  0.3938
  130OSM    C2F14045   2.697   2.569   6.438  0.0020 -1.2190 -0.3154
  130OSM    H2F14046   2.804   2.552   6.465  0.3645 -1.0545 -1.5525
  130OSM    H2G14047   2.644   2.642   6.503 -1.8280 -2.5757 -0.2199
  130OSM    C3F14048   2.688   2.626   6.294  0.0570  0.5485 -0.0627
  130OSM    H3F14049   2.579   2.624   6.269 -0.1970 -1.2386  1.0709
  130OSM    H3G14050   2.738   2.552   6.229  0.6158 -0.7526  1.7825
  130OSM    C4F14051   2.754   2.764   6.269 -0.1249  0.0758  0.3611
  130OSM    H4F14052   2.859   2.772   6.302  0.0705 -0.2331 -0.1792
  130OSM    H4G14053   2.688   2.845   6.309  0.2527  0.1878  0.7589
  130OSM    C5F14054   2.758   2.791   6.122 -0.4587  0.0542  0.3895
  130OSM    H5F14055   2.664   2.804   6.065 -0.0042  0.7541 -0.2119
  130OSM    H5G14056   2.817   2.717   6.064 -0.3816  0.7259 -0.4040
  130OSM    C6F14057   2.833   2.921   6.100 -0.0890 -0.9196  0.8068
  130OSM    H6F14058   2.938   2.886   6.114  1.3209  2.6639  0.1727
  130OSM    H6G14059   2.824   2.995   6.182 -0.0222 -0.7634  0.6726
  130OSM    C7F14060   2.804   2.982   5.962 -0.8268 -0.1908  0.4171
  130OSM    H7F14061   2.833   3.090   5.970  1.9478 -0.8058 -0.0679
  130OSM    H7G14062   2.697   2.965   5.938 -1.5310 -1.8703  4.0988
  130OSM    C8F14063   2.877   2.904   5.842  1.3152 -0.3056  0.0644
  130OSM    H8F14064   2.838   2.954   5.751  1.3924  0.0820  0.2447
  130OSM    H8G14065   2.851   2.796   5.843 -0.7298 -0.0625 -4.5044
  130OSM    C9F14066   3.026   2.929   5.844 -0.1147 -0.1083  0.1545
  130OSM    H9F14067   3.070   2.871   5.926 -0.9488 -1.4130 -0.2892
  130OSM   C10F14068   3.107   2.984   5.751 -0.2472  0.1998  0.3240
  130OSM   H10F14069   3.212   2.989   5.783 -0.5827  0.2843  1.4515
  130OSM   C11F14070   3.066   3.058   5.623 -0.0492  1.0258 -0.1848
  130OSM   H11F14071   3.099   3.164   5.627  2.4560  0.2547  1.8362
  130OSM   H11G14072   2.956   3.060   5.604  0.0495  3.1883 -0.7431
  130OSM   C12F14073   3.136   2.988   5.499 -0.0502 -0.9778  0.1724
  130OSM   H12F14074   3.132   2.879   5.520 -2.0090 -0.3943  3.4448
  130OSM   H12G14075   3.241   3.024   5.506 -0.4988  1.0414 -2.1602
  130OSM   C13F14076   3.077   3.005   5.366  0.6231  0.8234 -0.8688
  130OSM   H13F14077   2.973   2.967   5.359 -0.3058  1.8622  3.8660
  130OSM   H13G14078   3.141   2.943   5.301 -1.5570 -2.2955 -0.2337
  130OSM   C14F14079   3.075   3.150   5.324 -0.7171 -0.1458  0.7218
  130OSM   H14F14080   3.180   3.186   5.319  0.1651 -2.3065  2.1974
  130OSM   H14G14081   3.013   3.220   5.384  0.2540  1.0606  0.3689
  130OSM   C15F14082   3.015   3.152   5.185  0.3970 -0.4631 -0.0907
  130OSM   H15F14083   2.925   3.088   5.172  0.4479 -0.2871 -1.4041
  130OSM   H15G14084   3.083   3.106   5.110 -0.1769  0.2497 -1.0830
  130OSM   C16F14085   2.981   3.294   5.131  0.0561 -0.0201 -0.1162
  130OSM   H16F14086   3.066   3.357   5.164  0.7104 -0.1721 -1.4392
  130OSM   H16G14087   2.892   3.322   5.191 -0.8988 -1.1639 -0.9435
  130OSM   C17F14088   2.949   3.303   4.981  0.0452 -0.1054 -0.3235
  130OSM   H17F14089   2.892   3.209   4.961  0.6037 -0.4976 -0.1079
  130OSM   H17G14090   3.040   3.285   4.920 -0.5410 -0.3167 -1.1592
  130OSM   C18F14091   2.888   3.427   4.934  0.2289 -0.0186  0.0132
  130OSM   H18F14092   2.954   3.515   4.953 -0.3022  0.4388 -0.2250
  130OSM   H18G14093   2.790   3.449   4.982 -0.7074 -1.7275 -1.0042
  130OSM   H18H14094   2.870   3.414   4.825  0.6040 -3.4802  0.2749
  131OSM      N14095   1.371   2.780   7.151  1.0640 -0.3803 -0.0044
  131OSM    C1514096   1.252   2.831   7.061 -0.4478  0.0705 -0.1036
  131OSM   H15A14097   1.266   2.938   7.054 -1.2071  0.1914  0.0926
  131OSM   H15B14098   1.159   2.816   7.115  1.0896  0.6157  2.9566
  131OSM   H15C14099   1.264   2.779   6.967  0.1584 -0.6352  0.3532
  131OSM    C1414100   1.335   2.823   7.297 -0.8642  0.1208 -0.8293
  131OSM   H14A14101   1.240   2.781   7.328  1.2562 -2.1293  3.6006
  131OSM   H14B14102   1.327   2.930   7.288  2.7490  0.6297  0.2838
  131OSM   H14C14103   1.409   2.794   7.370  0.7372 -1.7800 -3.0601
  131OSM    C1314104   1.372   2.627   7.137 -0.4360  0.7621 -0.3509
  131OSM   H13A14105   1.444   2.582   7.204 -0.7798 -0.2727 -0.6516
  131OSM   H13B14106   1.397   2.583   7.041 -0.5279 -0.1028  0.0095
  131OSM   H13C14107   1.275   2.582   7.157 -1.5719  3.6887  1.2228
  131OSM    C1214108   1.507   2.837   7.106 -0.3822 -0.1503 -0.7722
  131OSM   H12A14109   1.501   2.945   7.098  1.4594 -0.0917 -1.8520
  131OSM   H12B14110   1.527   2.806   7.004 -2.0933 -1.9559 -0.6205
  131OSM    C1114111   1.626   2.814   7.201 -0.6031  0.1846  0.3500
  131OSM   H11A14112   1.704   2.863   7.138 -0.8920  2.2702  1.4988
  131OSM   H11B14113   1.639   2.704   7.204  0.4152  0.3243  1.7477
  131OSM      P14114   1.629   3.034   7.340  0.0098 -0.3819  0.1538
  131OSM    O1314115   1.538   3.089   7.442  0.7011 -0.0998 -0.6318
  131OSM    O1414116   1.769   3.067   7.352 -0.2086 -0.3790 -0.0451
  131OSM    O1114117   1.579   3.085   7.196 -0.4416  0.2154 -0.2084
  131OSM    O1214118   1.612   2.876   7.329  0.1299 -0.2035 -0.0537
  131OSM    C1S14119   1.663   3.166   7.116  0.0772  0.3445 -0.2981
  131OSM    H1S14120   1.741   3.095   7.080  0.7263  1.4628 -1.1669
  131OSM    H1T14121   1.707   3.248   7.177 -1.0473  0.0810  0.9324
  131OSM     NF14122   1.679   3.250   6.881 -0.6574  0.6830 -0.2458
  131OSM    HNF14123   1.709   3.345   6.872  1.9549  0.0745  0.9488
  131OSM    C2S14124   1.588   3.224   6.995 -0.3766  0.1630  0.3330
  131OSM    H2S14125   1.520   3.142   6.963 -0.4282  0.3146  0.0536
  131OSM    C3S14126   1.503   3.338   7.045 -0.9816  0.2255  0.7380
  131OSM    H3S14127   1.567   3.421   7.080 -2.0323  1.8744 -1.0924
  131OSM     O314128   1.406   3.307   7.145 -0.5193  0.2422 -0.3177
  131OSM    HO314129   1.429   3.216   7.164  2.2197  0.4522 -2.0102
  131OSM    C4S14130   1.426   3.396   6.931 -0.2952 -0.2510  0.1817
  131OSM    H4S14131   1.332   3.345   6.906 -0.9470  0.7885  0.4291
  131OSM    C5S14132   1.449   3.520   6.877 -0.0534 -0.2324  0.4704
  131OSM    H5S14133   1.528   3.589   6.909 -0.7113  1.2354 -0.8777
  131OSM    C6S14134   1.367   3.570   6.754 -0.4202  0.5610 -0.3436
  131OSM    H6S14135   1.329   3.674   6.766 -1.3385  0.1265  0.8072
  131OSM    H6T14136   1.285   3.497   6.736  0.1928 -0.9231  2.2601
  131OSM    C7S14137   1.459   3.549   6.634 -0.6232 -0.3769  0.0875
  131OSM    H7S14138   1.490   3.443   6.628 -3.6757 -1.2960 -0.9624
  131OSM    H7T14139   1.548   3.616   6.637 -0.6786 -0.2724 -0.6245
  131OSM    C8S14140   1.395   3.590   6.501  0.4898  0.2498  0.1437
  131OSM    H8S14141   1.380   3.699   6.517  0.7395  0.2097  0.6702
  131OSM    H8T14142   1.301   3.534   6.479 -0.8194  1.4808  2.2631
  131OSM    C9S14143   1.490   3.573   6.379  0.0235  0.2636  0.2691
  131OSM    H9S14144   1.523   3.467   6.369 -0.1464  0.3403 -1.5716
  131OSM    H9T14145   1.583   3.633   6.383  0.4579 -0.3456 -0.3945
  131OSM   C10S14146   1.416   3.593   6.247 -0.2822 -0.1152 -0.3322
  131OSM   H10S14147   1.343   3.676   6.252 -1.9600 -0.8808 -5.6820
  131OSM   H10T14148   1.353   3.502   6.228 -1.5076  0.7174 -0.3941
  131OSM   C11S14149   1.513   3.622   6.144  0.1774 -0.3837 -0.6473
  131OSM   H11S14150   1.603   3.559   6.159  0.5909  0.0373 -1.3134
  131OSM   H11T14151   1.550   3.727   6.148  1.0674 -0.5780 -2.5505
  131OSM   C12S14152   1.466   3.604   5.995 -0.7289  0.1288 -0.1851
  131OSM   H12S14153   1.475   3.702   5.944 -0.7373  0.3076  0.1558
  131OSM   H12T14154   1.358   3.581   6.001 -1.3936  2.4107 -2.0327
  131OSM   C13S14155   1.528   3.485   5.912 -0.1026  0.3107  0.3032
  131OSM   H13S14156   1.515   3.383   5.955 -0.1408  1.1722  2.4440
  131OSM   H13T14157   1.637   3.509   5.912  0.0706 -0.3607 -1.3474
  131OSM   C14S14158   1.476   3.482   5.765 -0.4331  0.3806 -0.5641
  131OSM   H14S14159   1.482   3.584   5.720  0.3251  0.9026  0.6761
  131OSM   H14T14160   1.371   3.448   5.768 -0.2514 -0.1478  0.0067
  131OSM   C15S14161   1.560   3.398   5.668  0.2414 -0.1020  0.3317
  131OSM   H15S14162   1.523   3.296   5.689 -2.3492  0.6516 -0.2063
  131OSM   H15T14163   1.669   3.398   5.690  0.3378 -0.0447 -0.1431
  131OSM   C16S14164   1.527   3.441   5.523  0.3296  0.9652  0.8736
  131OSM   H16S14165   1.570   3.542   5.505  3.8214 -0.4246  0.7978
  131OSM   H16T14166   1.417   3.458   5.515  0.2219 -0.6361 -3.5497
  131OSM   C17S14167   1.584   3.358   5.409  0.0618 -0.2531 -0.5259
  131OSM   H17S14168   1.568   3.248   5.419 -0.1324 -0.4318 -2.3438
  131OSM   H17T14169   1.689   3.389   5.395 -0.6990  1.9060 -1.8755
  131OSM   C18S14170   1.514   3.389   5.268 -0.3815  0.5660  0.4318
  131OSM   H18S14171   1.537   3.493   5.240 -2.1549  0.5522 -1.2642
  131OSM   H18T14172   1.406   3.369   5.281 -0.1855 -1.0898 -0.2534
  131OSM   H18U14173   1.557   3.326   5.187  1.9755  1.6310  0.7601
  131OSM    C1F14174   1.741   3.160   6.824  0.0838  1.0712  0.1675
  131OSM     OF14175   1.731   3.040   6.843 -0.1219 -0.1471  0.6830
  131OSM    C2F14176   1.860   3.207   6.742  0.3634 -0.7796  0.3695
  131OSM    H2F14177   1.946   3.236   6.806  0.4141  0.6177 -0.3049
  131OSM    H2G14178   1.835   3.304   6.694  0.7435 -1.1147 -0.5261
  131OSM    C3F14179   1.890   3.112   6.623  0.8214  0.3099  0.2482
  131OSM    H3F14180   1.937   3.016   6.652 -2.0896 -1.6800 -1.1080
  131OSM    H3G14181   1.963   3.171   6.563 -0.6226  1.4767 -0.4264
  131OSM    C4F14182   1.772   3.079   6.529 -0.3622 -0.9101  0.5218
  131OSM    H4F14183   1.715   3.168   6.494 -2.3840 -2.2888  0.1470
  131OSM    H4G14184   1.708   3.003   6.578 -0.8680 -1.1104 -0.4210
  131OSM    C5F14185   1.831   3.006   6.401  0.1391  0.1033 -0.1853
  131OSM    H5F14186   1.879   2.909   6.427  1.3209  0.8330  0.4930
  131OSM    H5G14187   1.912   3.075   6.367 -0.7027  0.5306 -1.3865
  131OSM    C6F14188   1.725   2.996   6.286 -0.2580  0.0799 -1.1223
  131OSM    H6F14189   1.683   3.099   6.279  1.0832  0.5638 -6.3061
  131OSM    H6G14190   1.651   2.915   6.302 -2.7107  2.2886 -0.5289
  131OSM    C7F14191   1.797   2.960   6.156  0.1440 -0.3130 -0.1633
  131OSM    H7F14192   1.862   2.873   6.177  1.8619  1.2952  1.6238
  131OSM    H7G14193   1.856   3.051   6.130 -1.8641  0.7014 -1.4571
  131OSM    C8F14194   1.711   2.923   6.037 -0.4533  0.6633 -0.6592
  131OSM    H8F14195   1.632   2.848   6.062  0.1908  0.6635  1.5848
  131OSM    H8G14196   1.786   2.889   5.962  0.4175 -0.5625  0.6875
  131OSM    C9F14197   1.646   3.040   5.986  0.4329 -0.1795 -0.0191
  131OSM    H9F14198   1.621   3.120   6.057  0.5785 -1.6256  1.7190
  131OSM   C10F14199   1.605   3.046   5.859 -0.0659  0.4240  0.0463
  131OSM   H10F14200   1.555   3.138   5.828  2.6417  1.7125 -0.8062
  131OSM   C11F14201   1.622   2.945   5.743  0.2482 -0.5369 -0.2673
  131OSM   H11F14202   1.571   2.852   5.776  2.3125 -1.2376  1.1329
  131OSM   H11G14203   1.729   2.921   5.725  0.9693 -0.2003  3.0023
  131OSM   C12F14204   1.550   2.989   5.617 -0.7452  0.4146 -0.0627
  131OSM   H12F14205   1.596   3.081   5.575  1.0386 -0.5727 -0.4003
  131OSM   H12G14206   1.447   3.018   5.646  0.3171  0.1911  4.7814
  131OSM   C13F14207   1.551   2.880   5.504 -0.3385 -0.3072  0.7595
  131OSM   H13F14208   1.503   2.790   5.547 -3.3102  1.5317  1.5475
  131OSM   H13G14209   1.656   2.861   5.471 -0.3469 -0.2482  0.7003
  131OSM   C14F14210   1.477   2.932   5.381  0.2319 -0.0352  0.8769
  131OSM   H14F14211   1.522   2.890   5.289  1.4001 -1.0284  1.8718
  131OSM   H14G14212   1.486   3.043   5.375 -1.2810  0.0138 -2.7652
  131OSM   C15F14213   1.333   2.887   5.377 -0.0931  0.7209 -0.1604
  131OSM   H15F14214   1.275   2.915   5.468  1.3603 -0.6892  1.2831
  131OSM   H15G14215   1.316   2.777   5.367 -2.3677  0.9299  0.6462
  131OSM   C16F14216   1.267   2.935   5.245  0.7387 -0.5632  0.1215
  131OSM   H16F14217   1.340   2.911   5.165 -0.0341  0.9106 -1.0733
  131OSM   H16G14218   1.260   3.046   5.244 -0.4882 -0.6195  0.5466
  131OSM   C17F14219   1.127   2.876   5.222 -0.1765 -0.0373  0.2329
  131OSM   H17F14220   1.056   2.889   5.307 -1.2579 -1.4056 -0.4225
  131OSM   H17G14221   1.143   2.768   5.205  1.0948  0.4132 -1.6958
  131OSM   C18F14222   1.054   2.936   5.100 -0.5517 -0.2933  0.1473
  131OSM   H18F14223   1.120   2.950   5.012  2.2358 -0.0732  2.1537
  131OSM   H18G14224   1.021   3.040   5.123 -2.3696 -0.5374 -1.1841
  131OSM   H18H14225   0.967   2.875   5.068 -0.2435  0.2874 -1.9665
  132OSM      N14226   2.184   0.574   7.410 -0.4924  0.6506 -0.1244
  132OSM    C1514227   2.330   0.542   7.399 -0.1513  0.8985 -0.1644
  132OSM   H15A14228   2.342   0.505   7.298 -1.6237  2.4199 -0.9572
  132OSM   H15B14229   2.352   0.470   7.476  0.5859  0.3318 -0.8870
  132OSM   H15C14230   2.383   0.634   7.417 -3.1339  2.6753  0.1899
  132OSM    C1414231   2.107   0.459   7.368 -0.4342  0.1605  0.7597
  132OSM   H14A14232   2.138   0.369   7.418  2.1817  0.4125 -0.2656
  132OSM   H14B14233   2.125   0.434   7.264 -1.8352 -0.8971  0.7393
  132OSM   H14C14234   2.000   0.469   7.381 -0.4399  1.7688 -0.2429
  132OSM    C1314235   2.155   0.610   7.553  0.5026  0.5387 -0.2657
  132OSM   H13A14236   2.166   0.525   7.620 -0.8452  1.2520  0.9133
  132OSM   H13B14237   2.053   0.646   7.557  0.6185  0.8558 -0.1577
  132OSM   H13C14238   2.207   0.695   7.594  0.5511 -0.2350  1.4074
  132OSM    C1214239   2.147   0.685   7.315 -0.6805  0.0752 -0.2984
  132OSM   H12A14240   2.179   0.779   7.356  1.8759 -0.9871  0.3754
  132OSM   H12B14241   2.039   0.679   7.311 -0.6871  0.1714 -0.2547
  132OSM    C1114242   2.192   0.686   7.170  0.3557 -0.1399 -0.4190
  132OSM   H11A14243   2.301   0.705   7.162 -0.0182  1.4355 -2.5491
  132OSM   H11B14244   2.148   0.773   7.118  0.0093 -0.5632 -0.8476
  132OSM      P14245   2.061   0.549   6.987 -0.1703 -0.2402 -0.0548
  132OSM    O1314246   2.058   0.415   6.924 -0.3074 -0.1193  0.1510
  132OSM    O1414247   1.927   0.598   7.038 -0.4000  0.1414  0.1987
  132OSM    O1114248   2.117   0.647   6.875  0.6026 -0.2870  0.5452
  132OSM    O1214249   2.166   0.565   7.100  0.0484  0.2707  0.4645
  132OSM    C1S14250   2.226   0.600   6.790 -0.2551  0.1674  0.1335
  132OSM    H1S14251   2.245   0.490   6.795  0.4858  0.1207 -2.1931
  132OSM    H1T14252   2.317   0.658   6.816  0.7309 -1.9548  1.7372
  132OSM     NF14253   2.276   0.574   6.557  0.1089  0.8238  0.1487
  132OSM    HNF14254   2.348   0.633   6.520  2.2918 -0.8180  1.5526
  132OSM    C2S14255   2.182   0.626   6.647  0.6097 -0.3445  0.3276
  132OSM    H2S14256   2.082   0.578   6.638 -1.5893  3.1842  2.9111
  132OSM    C3S14257   2.159   0.781   6.635 -0.7506 -0.0837  0.2741
  132OSM    H3S14258   2.259   0.829   6.628 -0.9517  0.2886 -0.1055
  132OSM     O314259   2.088   0.853   6.738 -0.5841 -0.4469 -0.2213
  132OSM    HO314260   2.099   0.786   6.807  4.4263 -0.3540 -0.5497
  132OSM    C4S14261   2.094   0.801   6.495  0.4632 -0.0574  0.8995
  132OSM    H4S14262   2.168   0.784   6.416  1.1137  1.6467  1.1010
  132OSM    C5S14263   1.966   0.820   6.455  0.6424  0.4071 -0.7380
  132OSM    H5S14264   1.887   0.832   6.530  0.4613 -1.2841 -0.5990
  132OSM    C6S14265   1.922   0.820   6.312 -0.3204  0.3729  0.0726
  132OSM    H6S14266   1.872   0.918   6.302  0.9007  0.7995 -2.3209
  132OSM    H6T14267   1.840   0.745   6.301 -1.8974  1.7698  1.6330
  132OSM    C7S14268   2.024   0.790   6.195 -0.7085 -0.4535 -0.3036
  132OSM    H7S14269   2.082   0.701   6.228 -0.4037  0.3401  1.4354
  132OSM    H7T14270   2.101   0.870   6.191 -0.2134 -0.9569 -1.2012
  132OSM    C8S14271   1.964   0.782   6.051  0.0760 -0.8312 -0.0103
  132OSM    H8S14272   1.866   0.835   6.041 -0.1106 -1.2626 -0.5727
  132OSM    H8T14273   1.931   0.678   6.030 -1.5554 -0.1778 -0.9066
  132OSM    C9S14274   2.055   0.848   5.940 -0.1393 -0.0966 -0.4883
  132OSM    H9S14275   2.147   0.789   5.923  0.3768  0.3160  0.7328
  132OSM    H9T14276   2.088   0.948   5.975  0.0036 -0.2967 -0.0463
  132OSM   C10S14277   1.992   0.865   5.804 -0.1535  0.1751 -0.4095
  132OSM   H10S14278   1.887   0.902   5.813 -0.3026 -0.0191 -1.2289
  132OSM   H10T14279   1.990   0.757   5.778 -0.3842 -0.8326  3.2127
  132OSM   C11S14280   2.073   0.948   5.703  0.4804  0.0397 -0.4989
  132OSM   H11S14281   2.076   1.054   5.736  0.9056  1.0334 -3.4256
  132OSM   H11T14282   2.015   0.952   5.608  0.2908  0.4840 -0.3654
  132OSM   C12S14283   2.210   0.882   5.681 -0.3424 -0.5527  0.2473
  132OSM   H12S14284   2.186   0.777   5.656 -0.9205  0.1506 -2.4812
  132OSM   H12T14285   2.281   0.878   5.766 -0.8855 -0.9949  0.6888
  132OSM   C13S14286   2.273   0.954   5.566  0.4183 -0.0926 -0.4960
  132OSM   H13S14287   2.214   0.955   5.472  0.5145  0.4532 -0.5538
  132OSM   H13T14288   2.364   0.897   5.537 -0.2153 -0.7977 -1.1381
  132OSM   C14S14289   2.309   1.101   5.596  0.6378 -0.4900  0.0984
  132OSM   H14S14290   2.341   1.102   5.703 -0.0664 -0.1686  0.3100
  132OSM   H14T14291   2.214   1.158   5.595  0.8006 -0.1925  0.7961
  132OSM   C15S14292   2.421   1.164   5.513 -0.1889 -1.0201  0.0442
  132OSM   H15S14293   2.527   1.146   5.543 -0.5326 -1.1793  1.2017
  132OSM   H15T14294   2.398   1.272   5.513 -0.5121 -1.0831 -1.0777
  132OSM   C16S14295   2.412   1.119   5.373  0.7118  0.3012  0.3510
  132OSM   H16S14296   2.311   1.099   5.333  1.2681  0.4823 -1.2320
  132OSM   H16T14297   2.477   1.030   5.366 -1.2179 -1.1135 -0.3958
  132OSM   C17S14298   2.470   1.221   5.272  0.0543 -0.4245 -0.5904
  132OSM   H17S14299   2.579   1.239   5.287  0.4186 -1.2390 -2.0438
  132OSM   H17T14300   2.413   1.316   5.272 -1.8541 -1.4450 -3.2291
  132OSM   C18S14301   2.450   1.165   5.132 -0.6904 -0.1172  0.1345
  132OSM   H18S14302   2.499   1.068   5.107 -1.1556 -0.3702  0.2025
  132OSM   H18T14303   2.485   1.233   5.051  0.2066 -1.6440 -0.8063
  132OSM   H18U14304   2.342   1.160   5.107 -0.3992 -0.8006 -1.0621
  132OSM    C1F14305   2.306   0.446   6.543 -0.3607  0.4333  0.3898
  132OSM     OF14306   2.235   0.355   6.592  0.2268  0.0159  0.3053
  132OSM    C2F14307   2.428   0.409   6.465 -0.1439  0.9386  1.1634
  132OSM    H2F14308   2.484   0.332   6.521 -1.4034 -1.4352 -0.6037
  132OSM    H2G14309   2.494   0.498   6.457  1.4054 -0.2923 -0.7313
  132OSM    C3F14310   2.398   0.362   6.320 -0.1064 -0.1612  0.9215
  132OSM    H3F14311   2.346   0.264   6.315 -0.3971 -0.0617  1.8570
  132OSM    H3G14312   2.496   0.357   6.268  0.3987 -1.9408  1.9693
  132OSM    C4F14313   2.324   0.466   6.237 -0.0693  0.1523 -0.4173
  132OSM    H4F14314   2.388   0.557   6.236  0.7580 -0.3242  2.2941
  132OSM    H4G14315   2.233   0.494   6.295  0.4982 -1.5866  1.4020
  132OSM    C5F14316   2.284   0.415   6.101 -0.2838  0.0017  0.1053
  132OSM    H5F14317   2.218   0.329   6.124  0.1333  0.0981  1.8561
  132OSM    H5G14318   2.380   0.385   6.054 -0.6702  0.6682 -1.1536
  132OSM    C6F14319   2.208   0.520   6.022  0.4601 -0.0245  0.8114
  132OSM    H6F14320   2.247   0.623   6.040 -1.3104  1.0874 -1.2707
  132OSM    H6G14321   2.103   0.520   6.060 -0.0260 -0.5572 -0.4916
  132OSM    C7F14322   2.220   0.491   5.870 -0.1281  0.1534  0.5525
  132OSM    H7F14323   2.144   0.558   5.825  0.3445  1.5431  1.7289
  132OSM    H7G14324   2.203   0.385   5.841  2.4208 -0.4054  0.8492
  132OSM    C8F14325   2.349   0.532   5.795 -0.2303 -0.0611  0.3900
  132OSM    H8F14326   2.416   0.459   5.845 -0.0392  0.3980  0.8144
  132OSM    H8G14327   2.390   0.631   5.823  1.8255 -1.4518  2.7041
  132OSM    C9F14328   2.345   0.517   5.642 -0.3287  0.2718 -0.6152
  132OSM    H9F14329   2.259   0.464   5.598 -1.0019  0.3205  0.5918
  132OSM   C10F14330   2.433   0.578   5.562  0.0860 -0.2005 -0.0302
  132OSM   H10F14331   2.442   0.547   5.457  0.5996  0.3260 -0.1459
  132OSM   C11F14332   2.546   0.663   5.609 -0.1154  0.7962 -0.0995
  132OSM   H11F14333   2.614   0.603   5.674  0.6770  2.7688  1.0029
  132OSM   H11G14334   2.504   0.745   5.671 -0.2975 -0.4901  1.5302
  132OSM   C12F14335   2.615   0.738   5.495  0.7109 -0.3215 -0.4250
  132OSM   H12F14336   2.672   0.817   5.549  0.9361 -0.5621 -0.3065
  132OSM   H12G14337   2.535   0.794   5.443 -1.0382 -1.4847  0.9331
  132OSM   C13F14338   2.693   0.655   5.402 -0.1116  0.0029  0.0185
  132OSM   H13F14339   2.627   0.594   5.337  0.4392  1.5055 -2.0675
  132OSM   H13G14340   2.782   0.611   5.454  1.2894  2.4406 -0.1515
  132OSM   C14F14341   2.767   0.752   5.298 -0.1350 -0.1615  0.1296
  132OSM   H14F14342   2.817   0.830   5.359 -0.9240  0.1842  0.3523
  132OSM   H14G14343   2.693   0.795   5.228 -0.1084  0.4480  0.4761
  132OSM   C15F14344   2.874   0.686   5.208  0.0767 -0.0129 -0.2403
  132OSM   H15F14345   2.826   0.610   5.142 -1.0753 -0.8033  1.4422
  132OSM   H15G14346   2.954   0.642   5.272  0.0408 -1.2307 -0.9955
  132OSM   C16F14347   2.950   0.794   5.126 -0.7120  0.3977  0.5261
  132OSM   H16F14348   3.026   0.736   5.070  1.2483  2.4310  0.9573
  132OSM   H16G14349   3.010   0.868   5.183  1.3705  0.2771 -1.3750
  132OSM   C17F14350   2.858   0.870   5.026  0.2025  0.4082  0.0041
  132OSM   H17F14351   2.807   0.954   5.079  0.2116 -0.0363  0.7366
  132OSM   H17G14352   2.768   0.814   4.993 -1.0967  2.5861 -0.3799
  132OSM   C18F14353   2.917   0.929   4.897 -0.3276  0.5053  0.4148
  132OSM   H18F14354   2.861   0.902   4.805 -0.2470 -1.4705  0.8926
  132OSM   H18G14355   3.014   0.876   4.884  0.2571  2.0001 -1.7985
  132OSM   H18H14356   2.943   1.036   4.914  0.8384  0.3020 -0.0205
  133OSM      N14357   1.218   1.625   7.618 -0.2221 -0.5021  0.7500
  133OSM    C1514358   1.074   1.666   7.637 -0.2796 -0.6851 -0.5010
  133OSM   H15A14359   1.044   1.757   7.587  0.3930 -0.4855 -0.5387
  133OSM   H15B14360   1.055   1.696   7.739  1.2721 -1.0055 -0.0955
  133OSM   H15C14361   1.008   1.581   7.627 -0.9921 -0.3923  1.2083
  133OSM    C1414362   1.292   1.759   7.629 -0.4981 -0.7160 -0.3301
  133OSM   H14A14363   1.393   1.753   7.665 -1.3065  1.2642  2.6406
  133OSM   H14B14364   1.231   1.822   7.692 -1.2873 -0.4850 -1.2946
  133OSM   H14C14365   1.295   1.807   7.532  0.0173 -0.2711 -0.1000
  133OSM    C1314366   1.260   1.548   7.729 -0.0961 -0.3321 -0.1642
  133OSM   H13A14367   1.366   1.530   7.738 -0.2961 -1.8020 -0.4829
  133OSM   H13B14368   1.222   1.448   7.716 -0.3375  0.1257 -3.8214
  133OSM   H13C14369   1.219   1.589   7.820 -1.3713 -0.1969 -0.7826
  133OSM    C1214370   1.245   1.559   7.488 -0.1398 -0.4376 -0.6712
  133OSM   H12A14371   1.183   1.471   7.478  0.4629 -0.9300 -0.1227
  133OSM   H12B14372   1.346   1.524   7.481 -0.3474 -1.5052  1.1922
  133OSM    C1114373   1.212   1.642   7.357 -0.0629 -0.7257 -0.6580
  133OSM   H11A14374   1.109   1.681   7.372  0.0550 -1.1543  1.4801
  133OSM   H11B14375   1.207   1.566   7.275  0.1745  0.5857 -1.9410
  133OSM      P14376   1.443   1.711   7.264  0.0885  0.4627 -0.1978
  133OSM    O1314377   1.508   1.827   7.206 -0.2746 -0.5897  0.4592
  133OSM    O1414378   1.530   1.643   7.365  0.4844  0.1488  0.0082
  133OSM    O1114379   1.407   1.607   7.150 -0.4734 -0.4135 -0.7411
  133OSM    O1214380   1.300   1.745   7.327 -0.3409 -0.3142  0.1707
  133OSM    C1S14381   1.340   1.654   7.032 -0.3809 -0.7390  0.0695
  133OSM    H1S14382   1.370   1.756   7.000  1.0748 -1.0930  0.2180
  133OSM    H1T14383   1.232   1.660   7.056 -0.1677  0.0635  0.8590
  133OSM     NF14384   1.281   1.602   6.797  0.2048 -0.2971  0.1369
  133OSM    HNF14385   1.193   1.561   6.776  0.1490 -0.3215  0.4211
  133OSM    C2S14386   1.363   1.557   6.911  0.0149  1.1001 -0.6983
  133OSM    H2S14387   1.469   1.572   6.881  0.8922  1.3593  2.2467
  133OSM    C3S14388   1.333   1.407   6.939  0.4298 -0.9442 -0.6571
  133OSM    H3S14389   1.239   1.399   6.998  0.3194  2.1876 -0.2687
  133OSM     O314390   1.419   1.353   7.033 -0.3638  0.5972 -0.0024
  133OSM    HO314391   1.470   1.427   7.066  0.2654 -0.5753  1.7980
  133OSM    C4S14392   1.334   1.327   6.811 -0.1966 -0.6459 -0.2635
  133OSM    H4S14393   1.424   1.324   6.748  0.1067  1.3141  0.0192
  133OSM    C5S14394   1.235   1.266   6.755 -0.3395  1.0710  0.2043
  133OSM    H5S14395   1.135   1.275   6.798 -1.3216  0.2179 -1.7957
  133OSM    C6S14396   1.242   1.185   6.627  0.4084  0.3529  0.2018
  133OSM    H6S14397   1.229   1.078   6.651 -1.5550  0.0639 -1.7487
  133OSM    H6T14398   1.325   1.193   6.554 -1.4661 -2.4141 -2.4743
  133OSM    C7S14399   1.110   1.211   6.542  0.6874 -0.1935  0.4178
  133OSM    H7S14400   1.089   1.318   6.519 -0.1510 -0.5413 -0.5022
  133OSM    H7T14401   1.022   1.189   6.606 -0.1922  2.7946  0.3798
  133OSM    C8S14402   1.089   1.126   6.417  0.0472 -0.0113  0.6018
  133OSM    H8S14403   0.981   1.120   6.392  0.0982 -1.0167  0.5815
  133OSM    H8T14404   1.119   1.022   6.440  1.2178  0.9700  4.1510
  133OSM    C9S14405   1.169   1.185   6.298 -0.2905  0.1622  0.2862
  133OSM    H9S14406   1.274   1.183   6.333 -0.3300 -1.3514  0.3601
  133OSM    H9T14407   1.139   1.291   6.284  1.2809  0.3131 -3.1282
  133OSM   C10S14408   1.152   1.114   6.162  0.6625 -0.8358 -0.5513
  133OSM   H10S14409   1.042   1.105   6.150  0.5887  1.0992 -1.8345
  133OSM   H10T14410   1.203   1.015   6.166 -0.5520 -1.4307  0.5749
  133OSM   C11S14411   1.202   1.204   6.051  0.1264  0.2153 -0.1015
  133OSM   H11S14412   1.304   1.235   6.084  0.9836 -3.0491  0.7277
  133OSM   H11T14413   1.139   1.295   6.046  1.2604  1.2432  2.4429
  133OSM   C12S14414   1.209   1.132   5.916 -0.2916 -0.6166  0.2438
  133OSM   H12S14415   1.102   1.113   5.892 -0.5905  0.6976  0.4723
  133OSM   H12T14416   1.273   1.042   5.915  0.2901 -0.2293 -1.3028
  133OSM   C13S14417   1.260   1.228   5.802  0.0070  0.0569 -0.6621
  133OSM   H13S14418   1.363   1.245   5.841  0.2545  1.5691 -1.8832
  133OSM   H13T14419   1.196   1.319   5.805  1.1904  0.8823  1.0613
  133OSM   C14S14420   1.256   1.156   5.660  0.0542  0.8876 -0.7090
  133OSM   H14S14421   1.158   1.106   5.643  0.8441 -1.2529  0.6394
  133OSM   H14T14422   1.328   1.072   5.662  0.4136  1.2070  0.5441
  133OSM   C15S14423   1.300   1.247   5.545  0.2185  0.4525  0.1660
  133OSM   H15S14424   1.400   1.290   5.566  0.7333  0.7523 -2.5344
  133OSM   H15T14425   1.230   1.332   5.529  0.9955  1.5861  2.3971
  133OSM   C16S14426   1.327   1.162   5.418 -0.0741 -0.1745 -0.2902
  133OSM   H16S14427   1.243   1.098   5.384  0.2567 -0.5981 -0.3106
  133OSM   H16T14428   1.407   1.086   5.429 -0.4841 -0.8498 -1.7606
  133OSM   C17S14429   1.383   1.255   5.308 -0.3070  0.7817 -0.4693
  133OSM   H17S14430   1.450   1.327   5.360 -1.4040 -0.4683  2.9654
  133OSM   H17T14431   1.297   1.314   5.268 -0.6191 -0.1095 -1.1224
  133OSM   C18S14432   1.456   1.184   5.192 -0.6193 -0.2108 -0.0847
  133OSM   H18S14433   1.479   1.242   5.099 -2.2168 -2.9901 -2.3951
  133OSM   H18T14434   1.402   1.099   5.145  1.1562 -0.2515 -2.2639
  133OSM   H18U14435   1.548   1.145   5.239 -0.2442  0.7400 -0.0082
  133OSM    C1F14436   1.309   1.710   6.728 -0.5745 -0.2257  0.5099
  133OSM     OF14437   1.415   1.768   6.747 -0.6451  0.1128  0.0518
  133OSM    C2F14438   1.205   1.743   6.621  0.2838 -0.3034  0.4633
  133OSM    H2F14439   1.112   1.788   6.662  0.1735 -0.2814  0.1924
  133OSM    H2G14440   1.179   1.662   6.550  1.0836 -0.9032  0.8369
  133OSM    C3F14441   1.267   1.847   6.521 -0.7443  0.2709 -0.3634
  133OSM    H3F14442   1.357   1.802   6.474  0.4042  2.3386 -0.2794
  133OSM    H3G14443   1.300   1.932   6.584  0.5443 -0.5623  0.1223
  133OSM    C4F14444   1.165   1.891   6.414 -0.3837 -0.4230 -0.1312
  133OSM    H4F14445   1.064   1.896   6.460 -1.1505 -0.0939 -1.7785
  133OSM    H4G14446   1.157   1.809   6.339  1.1570  0.1699 -0.9878
  133OSM    C5F14447   1.205   2.021   6.337 -0.1585  0.0304  0.1551
  133OSM    H5F14448   1.315   2.013   6.327 -0.4095 -1.4811 -2.4775
  133OSM    H5G14449   1.174   2.118   6.381 -1.1668  0.6963 -1.8859
  133OSM    C6F14450   1.148   2.043   6.196  0.1145  0.1498  0.2821
  133OSM    H6F14451   1.038   2.058   6.194 -0.0050 -0.4783 -2.6589
  133OSM    H6G14452   1.168   1.954   6.132 -0.2131  0.7085 -0.6088
  133OSM    C7F14453   1.219   2.150   6.125  0.0250  1.2401  0.1124
  133OSM    H7F14454   1.324   2.113   6.117 -0.6820 -1.7183  2.4841
  133OSM    H7G14455   1.207   2.248   6.175  0.4636  1.2123  0.2779
  133OSM    C8F14456   1.159   2.174   5.976 -0.2809 -0.3201 -0.2310
  133OSM    H8F14457   1.052   2.202   5.975  0.4189  3.1586  2.4754
  133OSM    H8G14458   1.167   2.074   5.928  1.5781 -0.7607  0.8825
  133OSM    C9F14459   1.239   2.284   5.904  0.0369  0.0767 -0.2834
  133OSM    H9F14460   1.213   2.387   5.933 -1.0727 -0.2133 -0.2265
  133OSM   C10F14461   1.341   2.271   5.820 -0.0009  0.5032  0.3008
  133OSM   H10F14462   1.392   2.352   5.765  1.9596 -1.0194 -0.2366
  133OSM   C11F14463   1.400   2.137   5.774 -0.3220 -0.5461  0.2939
  133OSM   H11F14464   1.351   2.057   5.833  0.4315 -0.5020  1.0061
  133OSM   H11G14465   1.507   2.132   5.804 -1.1668  1.1954  4.1511
  133OSM   C12F14466   1.397   2.093   5.622  0.0887 -0.5545 -0.1166
  133OSM   H12F14467   1.290   2.090   5.592  0.4272 -0.2111 -1.4277
  133OSM   H12G14468   1.450   1.997   5.606  0.8236  0.1550 -2.2647
  133OSM   C13F14469   1.467   2.197   5.520  0.2328  0.6385 -0.4400
  133OSM   H13F14470   1.435   2.295   5.562  0.1540 -0.1613  1.4717
  133OSM   H13G14471   1.422   2.199   5.419 -0.2465 -1.0280 -0.2831
  133OSM   C14F14472   1.618   2.188   5.517 -0.4774  0.3478 -0.7033
  133OSM   H14F14473   1.658   2.096   5.469  0.4720 -0.2715  1.1481
  133OSM   H14G14474   1.651   2.176   5.622 -1.2319 -1.8234 -0.6741
  133OSM   C15F14475   1.689   2.312   5.461  0.5637 -0.2316  0.0302
  133OSM   H15F14476   1.675   2.321   5.351 -1.2155  3.5274  0.4075
  133OSM   H15G14477   1.797   2.296   5.478  0.2316 -2.1455  0.6589
  133OSM   C16F14478   1.648   2.447   5.523 -0.1768 -0.0219  0.4877
  133OSM   H16F14479   1.546   2.482   5.495 -0.4759 -0.2747  1.2051
  133OSM   H16G14480   1.712   2.528   5.485  2.8537 -3.1326 -1.6530
  133OSM   C17F14481   1.660   2.453   5.672 -0.2570  0.2672 -0.6592
  133OSM   H17F14482   1.759   2.411   5.700  0.1514  0.7713 -1.2938
  133OSM   H17G14483   1.588   2.380   5.714 -0.9059  1.8285  1.0678
  133OSM   C18F14484   1.646   2.592   5.737  0.5403 -0.2651  0.0947
  133OSM   H18F14485   1.712   2.671   5.695 -1.9508  2.0699  0.2710
  133OSM   H18G14486   1.662   2.585   5.847 -1.0802  0.2870  0.3980
  133OSM   H18H14487   1.542   2.630   5.720 -0.2678 -1.9807  0.9930
  134OSM      N14488   4.187   1.902   7.290  0.8951  0.3759  0.3918
  134OSM    C1514489   4.045   1.858   7.299  0.1509  0.1629  0.0780
  134OSM   H15A14490   3.977   1.915   7.237 -0.3623 -1.0151 -0.4670
  134OSM   H15B14491   4.019   1.868   7.403 -1.4040 -2.6066  0.0520
  134OSM   H15C14492   4.034   1.753   7.274 -1.4544  0.2431  0.3368
  134OSM    C1414493   4.181   2.054   7.310  0.2116  0.7299 -0.5477
  134OSM   H14A14494   4.161   2.077   7.413  1.1548  0.6026 -0.3296
  134OSM   H14B14495   4.112   2.105   7.245  0.1650  2.2981  0.6841
  134OSM   H14C14496   4.277   2.103   7.313  0.0575  1.1471 -1.7003
  134OSM    C1314497   4.271   1.844   7.397 -0.3768 -0.1187 -0.3035
  134OSM   H13A14498   4.281   1.737   7.386 -0.7783 -0.2968  0.9173
  134OSM   H13B14499   4.229   1.858   7.495 -1.3371 -1.4223 -0.4957
  134OSM   H13C14500   4.373   1.879   7.393 -0.7283  0.8806 -0.7937
  134OSM    C1214501   4.243   1.867   7.155 -0.0284  0.2064  0.3974
  134OSM   H12A14502   4.337   1.917   7.138  0.1333 -0.5934 -1.3023
  134OSM   H12B14503   4.173   1.887   7.075  0.8992 -3.7048 -1.6532
  134OSM    C1114504   4.269   1.718   7.131  0.2482  0.5289 -0.1511
  134OSM   H11A14505   4.359   1.685   7.187  0.5222  1.3861 -0.0642
  134OSM   H11B14506   4.291   1.717   7.023 -1.6717 -0.6401 -0.5829
  134OSM      P14507   4.167   1.487   7.148  0.3865  0.1677 -0.3908
  134OSM    O1314508   4.281   1.447   7.237 -0.2634  0.4205  0.5628
  134OSM    O1414509   4.041   1.415   7.165  0.6041  0.0883  0.4337
  134OSM    O1114510   4.204   1.452   6.996 -0.0633 -0.8129 -0.5660
  134OSM    O1214511   4.149   1.635   7.155 -0.2950 -0.0778  0.7231
  134OSM    C1S14512   4.239   1.320   6.955 -0.2454  0.0833 -0.1464
  134OSM    H1S14513   4.141   1.267   6.953 -1.5016  2.1541  1.8323
  134OSM    H1T14514   4.297   1.264   7.031  1.1789  0.6778 -0.7752
  134OSM     NF14515   4.321   1.151   6.782 -0.1846 -0.1073 -0.2037
  134OSM    HNF14516   4.410   1.108   6.781  0.1856  0.6118 -1.7051
  134OSM    C2S14517   4.305   1.297   6.813 -0.3526  0.4410 -0.2319
  134OSM    H2S14518   4.236   1.337   6.735  1.1324  2.7363 -0.4560
  134OSM    C3S14519   4.431   1.392   6.791 -0.2743  0.0018  0.0139
  134OSM    H3S14520   4.512   1.356   6.858 -1.2831 -0.9981  0.7342
  134OSM     O314521   4.403   1.522   6.844  0.2378 -0.0820 -0.3142
  134OSM    HO314522   4.326   1.503   6.898  0.1999  0.9453  0.0331
  134OSM    C4S14523   4.482   1.381   6.655 -0.1177  0.2024  0.6735
  134OSM    H4S14524   4.551   1.297   6.641  0.0139  0.2710  0.9097
  134OSM    C5S14525   4.448   1.464   6.545 -0.0504 -0.4953  0.1913
  134OSM    H5S14526   4.394   1.559   6.554  1.1968  0.1463  1.1625
  134OSM    C6S14527   4.486   1.447   6.401  0.7868  0.7550  0.3300
  134OSM    H6S14528   4.580   1.506   6.390 -0.7446  2.9684 -2.0577
  134OSM    H6T14529   4.408   1.489   6.333 -0.2355 -0.6502  0.5953
  134OSM    C7S14530   4.521   1.297   6.368 -0.8744  0.2764 -0.3190
  134OSM    H7S14531   4.446   1.229   6.413  0.9824 -1.4235  0.3210
  134OSM    H7T14532   4.619   1.278   6.417 -0.7455  0.0468 -0.6636
  134OSM    C8S14533   4.523   1.273   6.215  0.0357  0.2262  0.0600
  134OSM    H8S14534   4.429   1.307   6.166 -0.4558 -0.8557  0.2348
  134OSM    H8T14535   4.524   1.164   6.196 -1.1805 -0.0790  1.5431
  134OSM    C9S14536   4.641   1.341   6.148  0.3076  0.6020  0.2648
  134OSM    H9S14537   4.733   1.295   6.190  0.3684  2.2298  2.0883
  134OSM    H9T14538   4.637   1.451   6.161  1.5598  1.5176 -4.9511
  134OSM   C10S14539   4.624   1.333   5.994 -0.1535 -0.0378  0.4289
  134OSM   H10S14540   4.566   1.416   5.949 -2.8778 -1.7272  0.6158
  134OSM   H10T14541   4.583   1.235   5.961 -0.3315  0.2187 -0.1165
  134OSM   C11S14542   4.765   1.348   5.918  0.4605 -1.1206 -0.2914
  134OSM   H11S14543   4.832   1.265   5.948  1.6539 -0.6243 -1.4802
  134OSM   H11T14544   4.809   1.447   5.941 -0.7680 -0.2882 -1.3808
  134OSM   C12S14545   4.743   1.348   5.768 -0.7203  0.0219 -0.7380
  134OSM   H12S14546   4.664   1.421   5.740 -0.6022 -0.2931 -1.9037
  134OSM   H12T14547   4.703   1.248   5.740 -2.4947 -0.4853  2.9080
  134OSM   C13S14548   4.881   1.373   5.700  0.0941  0.3029  0.3763
  134OSM   H13S14549   4.955   1.296   5.732 -1.6502 -1.6682 -0.0739
  134OSM   H13T14550   4.922   1.471   5.732  2.1569 -0.1370 -0.7627
  134OSM   C14S14551   4.872   1.376   5.547  0.1272  0.1704 -0.2538
  134OSM   H14S14552   4.850   1.272   5.515 -2.5300  0.2958  0.8599
  134OSM   H14T14553   4.974   1.402   5.512  0.6595 -0.3622  0.8229
  134OSM   C15S14554   4.777   1.482   5.492 -0.0709 -0.5218 -0.0986
  134OSM   H15S14555   4.670   1.458   5.506 -0.5784  1.3851 -0.3837
  134OSM   H15T14556   4.793   1.479   5.382 -1.1297 -1.8597 -0.2352
  134OSM   C16S14557   4.831   1.625   5.530 -0.2114  0.4498  0.7872
  134OSM   H16S14558   4.937   1.625   5.497 -0.5046  0.0357 -0.1641
  134OSM   H16T14559   4.811   1.627   5.640 -2.0916 -0.4775  0.4999
  134OSM   C17S14560   4.762   1.739   5.454 -0.2541 -0.3553 -0.5193
  134OSM   H17S14561   4.669   1.707   5.402 -0.8489  1.2875 -0.5294
  134OSM   H17T14562   4.836   1.779   5.381  1.1015 -0.4764  0.7523
  134OSM   C18S14563   4.724   1.861   5.547  0.3230  0.5068  0.8646
  134OSM   H18S14564   4.642   1.817   5.607  1.1895  0.1258  1.8013
  134OSM   H18T14565   4.684   1.946   5.488 -1.1641 -0.9974 -0.3994
  134OSM   H18U14566   4.813   1.890   5.607  2.5171 -2.1847 -0.8280
  134OSM    C1F14567   4.215   1.080   6.755 -0.3003  0.0997  0.1064
  134OSM     OF14568   4.100   1.122   6.766 -0.0794  0.6694  0.5250
  134OSM    C2F14569   4.243   0.945   6.702  0.5967 -0.3916 -0.4919
  134OSM    H2F14570   4.220   0.880   6.789  0.6686  1.9956  1.4530
  134OSM    H2G14571   4.353   0.943   6.685  0.5894  1.0724 -0.8793
  134OSM    C3F14572   4.161   0.921   6.575  0.3627  0.4463  0.0924
  134OSM    H3F14573   4.055   0.950   6.588  0.1653 -1.3423  3.4490
  134OSM    H3G14574   4.156   0.810   6.571  1.4247  0.4144 -0.8409
  134OSM    C4F14575   4.228   0.988   6.455  0.8893 -0.1231 -0.9430
  134OSM    H4F14576   4.334   0.955   6.454  0.6708 -0.8622 -0.5085
  134OSM    H4G14577   4.223   1.098   6.475  2.3569 -0.1178 -0.4817
  134OSM    C5F14578   4.155   0.967   6.323 -0.5095 -0.1295 -0.0056
  134OSM    H5F14579   4.055   1.015   6.321 -0.4049  0.0682 -0.5755
  134OSM    H5G14580   4.144   0.860   6.294 -0.5773 -0.4813  1.2482
  134OSM    C6F14581   4.230   1.041   6.208 -0.3868  0.1909  0.0104
  134OSM    H6F14582   4.333   1.002   6.203 -0.8354 -0.9954 -0.2714
  134OSM    H6G14583   4.246   1.149   6.228  0.9421 -0.3084  1.8567
  134OSM    C7F14584   4.174   1.021   6.069  0.2038  1.1042 -0.2262
  134OSM    H7F14585   4.074   1.067   6.052 -0.3832 -0.3272 -0.7816
  134OSM    H7G14586   4.156   0.912   6.061 -0.7248  1.2182  0.1551
  134OSM    C8F14587   4.262   1.071   5.961  0.3309 -0.1535 -0.3489
  134OSM    H8F14588   4.350   1.004   5.960  1.8454  1.7243  1.1606
  134OSM    H8G14589   4.306   1.172   5.967 -0.2044  0.0143  1.0632
  134OSM    C9F14590   4.190   1.061   5.830 -0.5701  0.8384 -0.1372
  134OSM    H9F14591   4.083   1.082   5.838 -0.2879  1.9712  1.0244
  134OSM   C10F14592   4.248   1.041   5.706 -0.5395 -0.0717 -0.4852
  134OSM   H10F14593   4.169   1.040   5.630 -0.9940  0.4982 -0.0331
  134OSM   C11F14594   4.399   1.024   5.674  0.1611  0.3646 -0.0043
  134OSM   H11F14595   4.409   0.922   5.630  2.2788  1.0689 -1.2844
  134OSM   H11G14596   4.469   1.034   5.759 -0.6641 -1.0244  0.8717
  134OSM   C12F14597   4.454   1.126   5.566  0.5855  0.8908 -0.5070
  134OSM   H12F14598   4.564   1.131   5.563  1.0910 -0.2377  4.9542
  134OSM   H12G14599   4.414   1.224   5.601 -0.2811  0.7997 -1.1959
  134OSM   C13F14600   4.409   1.085   5.420 -0.4242 -0.4340 -0.9848
  134OSM   H13F14601   4.299   1.071   5.410 -0.3046 -2.0647 -0.4221
  134OSM   H13G14602   4.456   0.988   5.391 -0.8499 -0.9604  0.0507
  134OSM   C14F14603   4.448   1.191   5.310  0.3158  0.2172 -0.6808
  134OSM   H14F14604   4.544   1.245   5.327 -0.0971  0.1344  2.4380
  134OSM   H14G14605   4.365   1.266   5.312  0.3890  0.3350 -1.5532
  134OSM   C15F14606   4.457   1.132   5.169 -0.2795  0.1674 -0.3441
  134OSM   H15F14607   4.461   1.216   5.096  0.5537  1.8845  1.5680
  134OSM   H15G14608   4.365   1.074   5.149  1.0095 -1.4925 -1.7684
  134OSM   C16F14609   4.563   1.024   5.153 -0.2068 -0.5705 -0.4891
  134OSM   H16F14610   4.550   0.988   5.049  0.0729 -0.8125 -0.4419
  134OSM   H16G14611   4.542   0.936   5.217 -2.1536  0.5772  0.5283
  134OSM   C17F14612   4.704   1.060   5.189 -0.3044  0.2294 -0.2318
  134OSM   H17F14613   4.764   0.972   5.160 -1.5723 -1.1417  1.1787
  134OSM   H17G14614   4.708   1.067   5.300 -2.4593 -3.3443  0.2314
  134OSM   C18F14615   4.751   1.185   5.118 -0.4363  0.1630  0.7608
  134OSM   H18F14616   4.674   1.264   5.131 -1.6439 -0.8393 -0.0043
  134OSM   H18G14617   4.756   1.167   5.008 -0.0546  0.4104  0.7364
  134OSM   H18H14618   4.851   1.197   5.165 -0.1720 -2.8016  1.0954
  135OSM      N14619   5.875   6.239   7.522  0.0194 -0.0079  0.0915
  135OSM    C1514620   5.993   6.337   7.523  0.2509  0.5543  0.6093
  135OSM   H15A14621   5.968   6.435   7.486  1.5600  0.3917 -0.8785
  135OSM   H15B14622   6.061   6.297   7.448 -1.1123  0.0622 -0.4006
  135OSM   H15C14623   6.025   6.349   7.625 -1.2251  1.9949  0.9322
  135OSM    C1414624   5.924   6.092   7.528 -0.0610 -0.6750  0.0762
  135OSM   H14A14625   5.983   6.069   7.441  1.3397  0.5151  0.6799
  135OSM   H14B14626   5.841   6.022   7.530  1.2150 -2.4741 -2.9760
  135OSM   H14C14627   5.973   6.085   7.624  0.0573 -3.2218 -0.1193
  135OSM    C1314628   5.795   6.268   7.647  0.1997 -0.1481  1.0241
  135OSM   H13A14629   5.706   6.207   7.655 -0.3270  0.5607  0.5985
  135OSM   H13B14630   5.751   6.366   7.656 -0.9011 -0.5704  0.4100
  135OSM   H13C14631   5.854   6.246   7.735  0.0674  0.3463  1.2368
  135OSM    C1214632   5.791   6.250   7.403  0.5000  0.1762 -0.0783
  135OSM   H12A14633   5.738   6.345   7.408  1.2620  0.5554  1.5660
  135OSM   H12B14634   5.719   6.169   7.408 -0.1510  0.7140 -0.4879
  135OSM    C1114635   5.852   6.245   7.256  0.7165 -0.0249 -0.2445
  135OSM   H11A14636   5.940   6.310   7.241 -0.3338  1.6238  0.4344
  135OSM   H11B14637   5.777   6.289   7.187 -0.3719 -1.5775 -0.1140
  135OSM      P14638   5.777   6.006   7.177  0.3613 -0.0102 -0.3535
  135OSM    O1314639   5.844   5.873   7.164 -0.1341 -0.1068  0.0625
  135OSM    O1414640   5.663   6.026   7.268  0.1146 -0.2480 -0.1803
  135OSM    O1114641   5.734   6.057   7.032  0.3479 -0.2558 -0.0467
  135OSM    O1214642   5.887   6.111   7.222 -0.2117  0.5380 -0.0551
  135OSM    C1S14643   5.839   6.106   6.946  0.3402  0.3860 -0.1734
  135OSM    H1S14644   5.933   6.056   6.979 -1.0380 -0.2491  3.1533
  135OSM    H1T14645   5.842   6.215   6.969 -1.8388  0.1437  1.5615
  135OSM     NF14646   5.957   6.093   6.730  0.3030 -0.1017  0.1463
  135OSM    HNF14647   5.955   6.172   6.670  0.9299 -1.1023 -1.2458
  135OSM    C2S14648   5.831   6.067   6.795  0.1078 -0.1418 -1.0367
  135OSM    H2S14649   5.815   5.957   6.788 -1.5145 -0.0872  0.8950
  135OSM    C3S14650   5.712   6.145   6.728 -0.1717  0.1586 -0.2461
  135OSM    H3S14651   5.744   6.251   6.725  1.2390 -0.2480 -0.5873
  135OSM     O314652   5.595   6.129   6.805 -0.2881 -0.0976 -0.0790
  135OSM    HO314653   5.625   6.110   6.894  2.0617  2.3199 -0.2111
  135OSM    C4S14654   5.677   6.090   6.594 -0.5268 -0.2135 -0.3778
  135OSM    H4S14655   5.664   5.981   6.597 -0.9118 -0.1622 -0.1012
  135OSM    C5S14656   5.662   6.159   6.484 -0.5426 -0.9141 -0.3790
  135OSM    H5S14657   5.650   6.267   6.500  0.1013 -0.5286 -2.2055
  135OSM    C6S14658   5.621   6.105   6.348  0.0803  0.8385  0.3022
  135OSM    H6S14659   5.535   6.155   6.298  0.1487  0.9010  0.2477
  135OSM    H6T14660   5.581   6.003   6.363  0.8799  0.6350  1.1732
  135OSM    C7S14661   5.734   6.108   6.243 -0.4660 -0.8915  0.0433
  135OSM    H7S14662   5.814   6.040   6.277 -0.1337 -0.7691 -0.4843
  135OSM    H7T14663   5.769   6.213   6.237 -1.0481 -0.4985  2.4471
  135OSM    C8S14664   5.687   6.055   6.104 -0.3054  0.2539  0.5757
  135OSM    H8S14665   5.609   6.127   6.069  0.1486 -0.2656 -1.6249
  135OSM    H8T14666   5.654   5.949   6.098  0.6020  0.0419 -1.6392
  135OSM    C9S14667   5.800   6.074   6.005 -0.2387 -0.9745  0.0562
  135OSM    H9S14668   5.884   6.001   6.005 -0.7172 -1.5375  0.4933
  135OSM    H9T14669   5.837   6.178   6.015 -2.4491  0.0794 -1.6977
  135OSM   C10S14670   5.741   6.061   5.867 -0.0115 -0.5138 -0.4217
  135OSM   H10S14671   5.651   6.126   5.867 -0.6396 -1.3349 -1.6335
  135OSM   H10T14672   5.698   5.959   5.855 -3.0551  0.7245 -1.0705
  135OSM   C11S14673   5.829   6.104   5.748  0.2418  0.3254 -0.0723
  135OSM   H11S14674   5.926   6.051   5.758  0.4210  0.2838 -1.7990
  135OSM   H11T14675   5.849   6.213   5.752  1.2569  0.1222  2.5056
  135OSM   C12S14676   5.764   6.067   5.609  0.2234 -0.6076 -0.0932
  135OSM   H12S14677   5.654   6.086   5.606  0.4040  1.5163  2.9308
  135OSM   H12T14678   5.771   5.956   5.609  0.1373 -0.6152  0.2604
  135OSM   C13S14679   5.841   6.111   5.482 -0.1835  1.0994 -0.0292
  135OSM   H13S14680   5.925   6.038   5.482  1.2938  2.7195 -0.4975
  135OSM   H13T14681   5.898   6.206   5.493  2.3848 -0.5904  3.8588
  135OSM   C14S14682   5.756   6.111   5.353 -0.1926 -0.2972 -0.3728
  135OSM   H14S14683   5.668   6.174   5.377 -0.2079  0.0107 -1.1916
  135OSM   H14T14684   5.729   6.007   5.327 -1.6776 -0.6324  2.1906
  135OSM   C15S14685   5.837   6.172   5.239 -0.3703  0.3236  0.0683
  135OSM   H15S14686   5.924   6.105   5.223 -1.3629 -0.7044 -1.3251
  135OSM   H15T14687   5.874   6.270   5.276  1.4154 -0.6751  1.0415
  135OSM   C16S14688   5.761   6.198   5.108  1.3550 -0.3886  0.2775
  135OSM   H16S14689   5.668   6.233   5.156  0.4375  0.5492 -2.0293
  135OSM   H16T14690   5.734   6.103   5.057  0.9126 -0.5650  0.8306
  135OSM   C17S14691   5.830   6.293   5.011 -0.1777 -0.3732 -0.2396
  135OSM   H17S14692   5.915   6.236   4.968 -0.3470 -1.8144  1.2532
  135OSM   H17T14693   5.869   6.379   5.070  0.8512  0.8248 -2.5357
  135OSM   C18S14694   5.739   6.353   4.907 -1.1334 -0.6423  0.6012
  135OSM   H18S14695   5.810   6.401   4.836  0.0132  0.5084  2.4339
  135OSM   H18T14696   5.677   6.436   4.946 -3.1970 -1.3976 -0.8753
  135OSM   H18U14697   5.678   6.277   4.855  0.9468 -2.9074  1.3125
  135OSM    C1F14698   6.064   6.014   6.736  0.8599  0.0896  0.6463
  135OSM     OF14699   6.063   5.915   6.810 -0.4470 -0.0130 -0.1119
  135OSM    C2F14700   6.179   6.040   6.648  0.0187  0.3277  0.2773
  135OSM    H2F14701   6.268   6.017   6.710 -1.1853 -3.2050  0.9189
  135OSM    H2G14702   6.170   6.145   6.613 -1.6665  0.1300  0.0362
  135OSM    C3F14703   6.185   5.949   6.524  0.5550  0.4541  0.2306
  135OSM    H3F14704   6.091   5.955   6.465 -0.0340  1.7633  1.2445
  135OSM    H3G14705   6.206   5.841   6.539  2.9020  0.9491  0.9555
  135OSM    C4F14706   6.292   6.018   6.436  0.0261 -0.0339  0.7107
  135OSM    H4F14707   6.276   6.126   6.417  1.1242 -0.0217 -0.2082
  135OSM    H4G14708   6.396   6.016   6.473  0.9687  1.3492 -1.6759
  135OSM    C5F14709   6.305   5.949   6.299  0.3731 -0.0319  0.1137
  135OSM    H5F14710   6.290   5.839   6.305  2.4565 -0.3523  0.2531
  135OSM    H5G14711   6.407   5.964   6.255  0.1130  1.4483 -0.0477
  135OSM    C6F14712   6.206   6.005   6.191 -0.4215 -0.6065  0.5287
  135OSM    H6F14713   6.236   6.109   6.164  0.1219 -0.9071 -0.0349
  135OSM    H6G14714   6.112   6.005   6.250  0.3095 -1.2432  1.7161
  135OSM    C7F14715   6.181   5.900   6.078 -0.2182 -0.3411 -0.0902
  135OSM    H7F14716   6.091   5.937   6.024  1.4210  1.0716 -1.9940
  135OSM    H7G14717   6.153   5.811   6.138 -1.4976  0.5376  0.6587
  135OSM    C8F14718   6.309   5.876   6.002  0.2003 -0.5658  0.1979
  135OSM    H8F14719   6.282   5.802   5.923  0.4221  0.2733 -0.6763
  135OSM    H8G14720   6.385   5.822   6.062 -0.5066  0.1383  1.7802
  135OSM    C9F14721   6.358   6.009   5.939 -0.4260  0.7069  0.7133
  135OSM    H9F14722   6.429   6.064   6.003 -1.4759 -0.1865  2.7419
  135OSM   C10F14723   6.330   6.055   5.820  0.2184 -0.4925 -0.1713
  135OSM   H10F14724   6.361   6.155   5.786  0.0817 -0.3982 -0.0179
  135OSM   C11F14725   6.240   5.989   5.727 -0.2895  0.2895  0.5545
  135OSM   H11F14726   6.135   5.994   5.761 -0.2268  2.0015  0.5921
  135OSM   H11G14727   6.250   5.879   5.712  1.7392  0.1885  2.1532
  135OSM   C12F14728   6.245   6.052   5.584  0.1612 -0.1413  0.4759
  135OSM   H12F14729   6.240   6.163   5.593  3.2711 -0.0260  2.1280
  135OSM   H12G14730   6.159   6.012   5.527 -0.9508  1.4840  0.9614
  135OSM   C13F14731   6.380   6.045   5.501 -0.2388  0.0153  0.0720
  135OSM   H13F14732   6.411   5.938   5.503 -1.9339 -0.4886  0.5003
  135OSM   H13G14733   6.451   6.106   5.560  0.3714 -1.2327  0.6843
  135OSM   C14F14734   6.368   6.087   5.362  0.3602 -0.4184 -0.2762
  135OSM   H14F14735   6.310   6.181   5.350  0.1407 -0.6087 -0.7388
  135OSM   H14G14736   6.314   6.010   5.303 -1.5856  1.4239 -1.0403
  135OSM   C15F14737   6.506   6.114   5.292 -0.4716  0.3187 -0.2286
  135OSM   H15F14738   6.572   6.155   5.372  2.6379 -1.4645 -1.6931
  135OSM   H15G14739   6.503   6.191   5.213  0.6708 -1.4101 -2.0551
  135OSM   C16F14740   6.569   5.982   5.233  0.1255  0.1745 -0.2557
  135OSM   H16F14741   6.486   5.926   5.185 -2.3524  1.1690  2.5099
  135OSM   H16G14742   6.594   5.938   5.332 -2.7041  0.2653  0.5861
  135OSM   C17F14743   6.696   6.001   5.156  0.0662 -0.4217 -0.0208
  135OSM   H17F14744   6.768   6.058   5.219 -0.7711 -0.6960  1.1936
  135OSM   H17G14745   6.670   6.073   5.074 -1.0146 -0.8749 -0.0903
  135OSM   C18F14746   6.764   5.870   5.108  0.2405  0.5675  0.5346
  135OSM   H18F14747   6.875   5.877   5.106  0.3460 -0.7281  0.8675
  135OSM   H18G14748   6.726   5.859   5.004  2.7698  0.3503 -0.4470
  135OSM   H18H14749   6.728   5.787   5.173 -0.2624  0.5977  0.3056
  136OSM      N14750   1.097   0.484   7.267 -0.4937 -0.2805  0.4951
  136OSM    C1514751   1.223   0.457   7.191  0.7944 -0.9600 -0.4645
  136OSM   H15A14752   1.276   0.550   7.178  0.5250 -0.4924  1.4453
  136OSM   H15B14753   1.211   0.417   7.092 -0.4383 -2.2369  0.1592
  136OSM   H15C14754   1.293   0.390   7.239  1.0294  0.0152  0.6295
  136OSM    C1414755   1.128   0.547   7.398  0.3049  0.8896  0.0207
  136OSM   H14A14756   1.148   0.653   7.392 -1.0171  1.3064  2.1856
  136OSM   H14B14757   1.210   0.492   7.443  0.4497  0.9097 -0.2154
  136OSM   H14C14758   1.045   0.537   7.466 -0.1924 -0.2085 -0.7182
  136OSM    C1314759   1.017   0.571   7.182 -0.3946  0.5209  0.2236
  136OSM   H13A14760   1.070   0.664   7.168  0.4547 -0.0617 -0.5527
  136OSM   H13B14761   0.921   0.597   7.224 -2.1915 -2.7824 -1.4007
  136OSM   H13C14762   1.006   0.534   7.081 -0.2517  0.7223  0.1336
  136OSM    C1214763   1.017   0.349   7.283 -0.1823 -0.3193  0.1262
  136OSM   H12A14764   0.928   0.378   7.336  0.0360  1.4124 -0.4069
  136OSM   H12B14765   1.084   0.283   7.337  2.6732  2.6792  0.5766
  136OSM    C1114766   0.972   0.285   7.148  0.1890  0.1674  0.3059
  136OSM   H11A14767   0.963   0.176   7.168 -0.1526  0.3864  1.4189
  136OSM   H11B14768   1.050   0.310   7.074 -2.4602  1.9080 -2.1196
  136OSM      P14769   0.822   0.358   6.949 -0.0087  0.5080 -0.4775
  136OSM    O1314770   0.676   0.362   6.917  0.1187  0.0124  0.3964
  136OSM    O1414771   0.903   0.470   6.904 -0.3444 -0.2515 -0.3696
  136OSM    O1114772   0.891   0.234   6.888 -0.4900  0.3865  0.0060
  136OSM    O1214773   0.844   0.334   7.104 -0.0650 -0.3209  0.1072
  136OSM    C1S14774   0.847   0.186   6.758 -0.8762 -0.8908 -0.2343
  136OSM    H1S14775   0.739   0.208   6.748 -0.7714 -0.4041 -0.3179
  136OSM    H1T14776   0.875   0.079   6.754  0.5227 -0.5425 -0.4238
  136OSM     NF14777   0.880   0.215   6.515  0.2272  0.6902 -0.1912
  136OSM    HNF14778   0.938   0.152   6.464  0.5014 -0.3291  1.3100
  136OSM    C2S14779   0.932   0.258   6.642 -0.0462 -0.2815  0.6372
  136OSM    H2S14780   0.927   0.369   6.646 -0.4681 -0.2598 -0.2733
  136OSM    C3S14781   1.083   0.232   6.658  0.3989  0.4069 -0.1872
  136OSM    H3S14782   1.096   0.122   6.648  1.4753  0.0407  3.6600
  136OSM     O314783   1.138   0.259   6.789  0.0804 -0.5896 -0.8515
  136OSM    HO314784   1.062   0.249   6.848  1.3294  0.2094  0.9837
  136OSM    C4S14785   1.155   0.301   6.548  0.0519  0.3827  0.6463
  136OSM    H4S14786   1.119   0.268   6.449  0.1340  0.1488  0.6937
  136OSM    C5S14787   1.241   0.395   6.543 -0.1421 -0.2685  0.2606
  136OSM    H5S14788   1.283   0.432   6.638 -0.9284 -0.2359  0.5985
  136OSM    C6S14789   1.298   0.447   6.412 -0.0893  0.1269 -0.0403
  136OSM    H6S14790   1.408   0.441   6.423  0.1787  1.0414 -1.9152
  136OSM    H6T14791   1.286   0.558   6.411 -0.9218  0.0495  0.3334
  136OSM    C7S14792   1.241   0.391   6.281 -0.2055 -0.8953  0.3527
  136OSM    H7S14793   1.130   0.390   6.281 -0.2042 -1.4179  1.0491
  136OSM    H7T14794   1.263   0.284   6.264  0.5852 -0.9788  1.7780
  136OSM    C8S14795   1.301   0.467   6.159  0.1802 -0.1593  0.2713
  136OSM    H8S14796   1.386   0.531   6.191 -0.6815  2.8580 -2.8930
  136OSM    H8T14797   1.228   0.540   6.118 -0.3470 -1.4982 -1.3058
  136OSM    C9S14798   1.319   0.370   6.044  0.4340  0.1231  0.2668
  136OSM    H9S14799   1.226   0.313   6.027  0.4986  0.1388 -0.1514
  136OSM    H9T14800   1.405   0.306   6.073 -1.3947 -1.6238  2.1005
  136OSM   C10S14801   1.360   0.444   5.912  0.3513 -0.8869  0.3372
  136OSM   H10S14802   1.458   0.492   5.935 -0.3236  1.0352 -0.6294
  136OSM   H10T14803   1.278   0.513   5.882 -0.2555 -1.3759  0.8436
  136OSM   C11S14804   1.382   0.346   5.798  0.5616 -0.3766 -0.4047
  136OSM   H11S14805   1.284   0.294   5.803 -1.4819  3.1975  3.3346
  136OSM   H11T14806   1.462   0.272   5.815  1.4037  0.6673  0.2941
  136OSM   C12S14807   1.383   0.420   5.668 -0.4150  0.2556 -0.2564
  136OSM   H12S14808   1.489   0.449   5.655 -0.2523 -0.0893  0.2788
  136OSM   H12T14809   1.316   0.507   5.683 -0.0945  0.2619  1.2547
  136OSM   C13S14810   1.343   0.342   5.545 -0.5151 -0.1507  0.1593
  136OSM   H13S14811   1.235   0.318   5.547 -0.9425  1.6757  1.7154
  136OSM   H13T14812   1.398   0.245   5.538  0.8821  0.6884 -1.1694
  136OSM   C14S14813   1.376   0.424   5.425 -0.1314  0.4338  0.5966
  136OSM   H14S14814   1.482   0.457   5.420  1.1709 -3.1652  1.2282
  136OSM   H14T14815   1.303   0.507   5.423 -0.3210  0.3098  1.9974
  136OSM   C15S14816   1.360   0.346   5.287  0.2006  0.3204 -0.1396
  136OSM   H15S14817   1.252   0.331   5.269 -0.1599  1.2699  1.0890
  136OSM   H15T14818   1.415   0.250   5.281  1.1248  0.9375 -3.1648
  136OSM   C16S14819   1.401   0.432   5.167 -0.2657 -0.2095  0.1037
  136OSM   H16S14820   1.444   0.377   5.081  1.2293  1.4887 -0.3027
  136OSM   H16T14821   1.486   0.494   5.202 -0.7036 -0.7204  2.2315
  136OSM   C17S14822   1.290   0.522   5.116 -0.2914 -0.3281  0.7773
  136OSM   H17S14823   1.264   0.594   5.197  3.5033  0.2692  1.6732
  136OSM   H17T14824   1.200   0.465   5.086  1.0821 -1.0582 -2.3299
  136OSM   C18S14825   1.314   0.609   4.998  0.0107 -0.5105  0.2187
  136OSM   H18S14826   1.390   0.685   5.027  1.6841 -1.2887 -1.8469
  136OSM   H18T14827   1.223   0.653   4.952  0.4006 -2.5857 -2.8892
  136OSM   H18U14828   1.352   0.561   4.905  3.8761  0.7524  0.9523
  136OSM    C1F14829   0.763   0.244   6.475  0.4131 -0.1822  0.4876
  136OSM     OF14830   0.673   0.291   6.536 -0.6407  0.0881  0.4255
  136OSM    C2F14831   0.746   0.218   6.322 -0.6035  0.1852  0.1221
  136OSM    H2F14832   0.745   0.109   6.302  1.3690  0.1327  0.0788
  136OSM    H2G14833   0.843   0.252   6.278 -0.3163 -1.6450 -0.7739
  136OSM    C3F14834   0.623   0.280   6.257 -0.1223  0.1555  0.3454
  136OSM    H3F14835   0.627   0.391   6.264 -0.0285  0.2476 -0.8242
  136OSM    H3G14836   0.523   0.260   6.300  0.1381 -1.9818  0.1023
  136OSM    C4F14837   0.615   0.232   6.104 -0.3604 -0.5323 -0.3144
  136OSM    H4F14838   0.522   0.274   6.059 -0.5615 -0.6364 -0.0012
  136OSM    H4G14839   0.596   0.123   6.098 -0.7704 -1.0717  5.2373
  136OSM    C5F14840   0.735   0.286   6.025  0.1511 -0.8058 -0.3726
  136OSM    H5F14841   0.815   0.210   6.032  1.4021  0.3644 -1.4559
  136OSM    H5G14842   0.772   0.385   6.060 -0.0401 -0.1153 -2.0204
  136OSM    C6F14843   0.698   0.297   5.875 -0.6653 -0.4332  0.2224
  136OSM    H6F14844   0.641   0.389   5.850 -0.0676  0.5346  2.1740
  136OSM    H6G14845   0.624   0.217   5.855 -1.1984 -0.2726  1.4595
  136OSM    C7F14846   0.814   0.279   5.779  0.2921 -0.0872 -0.5670
  136OSM    H7F14847   0.870   0.187   5.806  0.2454  0.0453  0.0020
  136OSM    H7G14848   0.893   0.355   5.798  0.5532 -0.0327 -1.7889
  136OSM    C8F14849   0.786   0.265   5.623 -0.5718  0.3592  0.4892
  136OSM    H8F14850   0.705   0.190   5.611  1.2326 -1.4020 -1.8393
  136OSM    H8G14851   0.875   0.223   5.572 -1.0409 -0.4338  0.2992
  136OSM    C9F14852   0.756   0.406   5.568 -0.1967  0.3069  0.3588
  136OSM    H9F14853   0.660   0.450   5.599 -1.5408 -0.5247 -2.3021
  136OSM   C10F14854   0.827   0.469   5.467 -0.2130 -0.0054  0.5376
  136OSM   H10F14855   0.811   0.575   5.443 -1.6326 -0.5750 -1.2358
  136OSM   C11F14856   0.945   0.423   5.383  0.3520 -0.5490 -0.7833
  136OSM   H11F14857   0.988   0.334   5.434  1.1840  1.0052  1.3734
  136OSM   H11G14858   1.020   0.505   5.387 -0.9873  0.8203 -2.0820
  136OSM   C12F14859   0.911   0.385   5.234 -0.0838 -0.1008 -0.5060
  136OSM   H12F14860   1.000   0.369   5.171  0.3817 -2.2663  0.5844
  136OSM   H12G14861   0.861   0.476   5.195  1.4133  1.8060  1.7487
  136OSM   C13F14862   0.823   0.259   5.229  0.3033 -0.4871  0.8960
  136OSM   H13F14863   0.724   0.283   5.274 -1.2814 -0.5835 -2.2360
  136OSM   H13G14864   0.873   0.187   5.297  0.9919 -1.0075 -0.1437
  136OSM   C14F14865   0.810   0.197   5.089 -0.3773  0.2350  0.1766
  136OSM   H14F14866   0.911   0.186   5.044 -0.0330 -0.4178  1.0899
  136OSM   H14G14867   0.758   0.270   5.022  1.2813  0.7118 -0.6447
  136OSM   C15F14868   0.742   0.061   5.093  0.4670  0.0703 -0.7555
  136OSM   H15F14869   0.637   0.073   5.124  0.0541 -1.5050 -1.4602
  136OSM   H15G14870   0.794  -0.005   5.166  0.7832  1.1426  0.0175
  136OSM   C16F14871   0.726  -0.013   4.958  0.2597  0.5681  0.4569
  136OSM   H16F14872   0.826  -0.041   4.919  0.2472  0.8827  0.2009
  136OSM   H16G14873   0.680   0.049   4.879  0.7868  0.4566  0.0561
  136OSM   C17F14874   0.647  -0.146   4.976 -0.1973  0.2190 -0.2295
  136OSM   H17F14875   0.637  -0.191   4.874  2.6842 -0.6180 -0.2502
  136OSM   H17G14876   0.547  -0.123   5.019  0.2280 -0.7819  1.3673
  136OSM   C18F14877   0.703  -0.246   5.076  0.5686  0.2060 -0.5245
  136OSM   H18F14878   0.800  -0.288   5.041  1.6654  1.7473  0.5435
  136OSM   H18G14879   0.634  -0.332   5.092  1.1088 -0.5051 -1.8799
  136OSM   H18H14880   0.715  -0.192   5.172 -0.2509 -0.0712 -0.2581
  137OSM      N14881   3.815   6.309   7.442  0.0539  0.2552 -0.1028
  137OSM    C1514882   3.716   6.196   7.423 -0.0450  0.4326  0.1173
  137OSM   H15A14883   3.755   6.125   7.351  0.1498  0.8943 -0.2403
  137OSM   H15B14884   3.622   6.233   7.384 -0.0273 -0.6366 -1.0128
  137OSM   H15C14885   3.704   6.154   7.522 -2.2923  1.6130  0.4200
  137OSM    C1414886   3.834   6.374   7.307  0.9116  0.2841  1.0678
  137OSM   H14A14887   3.737   6.414   7.282  1.2553 -0.7330 -2.5039
  137OSM   H14B14888   3.853   6.308   7.223  0.3673  0.0394  1.1329
  137OSM   H14C14889   3.904   6.455   7.299  1.5013 -0.3570 -0.7856
  137OSM    C1314890   3.759   6.400   7.542  0.1941  0.0375 -0.2079
  137OSM   H13A14891   3.827   6.483   7.551  2.2833 -1.5038 -1.0107
  137OSM   H13B14892   3.737   6.361   7.641  0.5733  2.9167  1.1157
  137OSM   H13C14893   3.673   6.452   7.504  0.5762  0.3466 -0.6567
  137OSM    C1214894   3.950   6.255   7.487  0.5236  0.1173  0.0411
  137OSM   H12A14895   3.935   6.230   7.591  0.4336 -1.0438 -0.2450
  137OSM   H12B14896   4.019   6.338   7.498  1.4697 -0.4518 -1.3672
  137OSM    C1114897   4.023   6.140   7.420 -0.8048  0.4078  0.6224
  137OSM   H11A14898   3.960   6.048   7.420  1.2189 -1.0837 -0.8371
  137OSM   H11B14899   4.115   6.116   7.479  0.1422  0.1451 -0.9035
  137OSM      P14900   4.192   6.249   7.252  0.2401  0.1953 -0.0895
  137OSM    O1314901   4.198   6.380   7.315  0.4875 -0.3401 -0.1757
  137OSM    O1414902   4.297   6.158   7.294  0.1352  0.0441  0.4102
  137OSM    O1114903   4.197   6.262   7.096 -0.3980 -0.1918 -0.4725
  137OSM    O1214904   4.053   6.173   7.285 -0.1674 -0.1030 -0.2654
  137OSM    C1S14905   4.082   6.320   7.028 -0.5111  0.0407 -0.3905
  137OSM    H1S14906   4.089   6.431   7.036  0.3148  0.1184 -1.9141
  137OSM    H1T14907   3.985   6.283   7.067 -0.2764  0.6105  0.7819
  137OSM     NF14908   3.979   6.367   6.816 -0.2085 -0.0807  0.1987
  137OSM    HNF14909   3.881   6.355   6.807 -0.5939 -0.0729  3.4091
  137OSM    C2S14910   4.077   6.278   6.882 -0.2006  0.0668  0.1303
  137OSM    H2S14911   4.183   6.293   6.850  0.4811  0.2853  2.3291
  137OSM    C3S14912   4.049   6.126   6.875 -0.7400 -0.6916  0.3165
  137OSM    H3S14913   3.958   6.106   6.935 -1.5381  2.1824  0.2441
  137OSM     O314914   4.142   6.042   6.944 -0.1286  0.0553 -0.0005
  137OSM    HO314915   4.203   6.102   6.987  0.6052 -0.3259 -0.4687
  137OSM    C4S14916   4.023   6.078   6.742  0.5031  0.6118 -0.0182
  137OSM    H4S14917   3.927   6.118   6.705 -0.2550 -0.2423  0.9710
  137OSM    C5S14918   4.103   6.011   6.652 -0.2712  0.2141  0.7737
  137OSM    H5S14919   4.204   5.979   6.679  0.1578 -0.1812 -1.1409
  137OSM    C6S14920   4.061   5.975   6.513  0.0213 -0.5693  0.0462
  137OSM    H6S14921   3.960   6.015   6.490  0.2539 -0.3601 -0.6576
  137OSM    H6T14922   4.079   5.866   6.496 -0.6635 -0.6767 -0.0234
  137OSM    C7S14923   4.158   6.057   6.418  0.1881 -0.2180  0.3980
  137OSM    H7S14924   4.261   6.017   6.428 -0.1514 -1.4556 -0.6767
  137OSM    H7T14925   4.142   6.161   6.454  3.4766  0.9160 -1.0902
  137OSM    C8S14926   4.129   6.059   6.270 -0.1060 -0.6521 -0.2458
  137OSM    H8S14927   4.195   6.145   6.246 -1.6550  1.3085  1.9794
  137OSM    H8T14928   4.026   6.093   6.246  0.5561  0.0773 -2.2718
  137OSM    C9S14929   4.150   5.936   6.195 -0.0483 -0.1396  0.2836
  137OSM    H9S14930   4.054   5.881   6.204 -1.2888  1.7890 -0.3525
  137OSM    H9T14931   4.236   5.885   6.243  0.6272 -2.3821 -2.9979
  137OSM   C10S14932   4.165   5.957   6.040  1.0392  0.2296  0.3126
  137OSM   H10S14933   4.239   6.037   6.016  2.0309 -0.2209  1.6963
  137OSM   H10T14934   4.063   5.991   6.013  0.2009 -0.9852  1.7541
  137OSM   C11S14935   4.186   5.825   5.967 -0.5187  0.3001  0.5725
  137OSM   H11S14936   4.106   5.748   5.973 -0.3313 -0.2001 -1.9248
  137OSM   H11T14937   4.266   5.787   6.034  1.5189 -0.3472 -2.0527
  137OSM   C12S14938   4.244   5.831   5.825  0.5950 -0.5404  0.1188
  137OSM   H12S14939   4.250   5.725   5.791  1.6881 -1.3758  2.6884
  137OSM   H12T14940   4.345   5.878   5.822 -0.6581  2.3561 -2.4477
  137OSM   C13S14941   4.169   5.918   5.725  0.5764  0.2159  0.1906
  137OSM   H13S14942   4.157   6.022   5.763 -2.6845  0.0397 -0.1248
  137OSM   H13T14943   4.066   5.877   5.716  0.7758 -0.5461  1.2558
  137OSM   C14S14944   4.225   5.943   5.585 -0.2140  0.1697 -0.3806
  137OSM   H14S14945   4.313   6.011   5.590 -0.2343  0.5108 -3.0226
  137OSM   H14T14946   4.147   5.999   5.530 -0.1083 -2.0709 -3.0386
  137OSM   C15S14947   4.258   5.814   5.513 -0.1346 -0.4691  0.4151
  137OSM   H15S14948   4.164   5.754   5.513 -1.1641  1.0566  1.7071
  137OSM   H15T14949   4.343   5.767   5.565  1.0577  1.7874  0.6332
  137OSM   C16S14950   4.287   5.841   5.366 -0.8708  0.1825  0.1606
  137OSM   H16S14951   4.193   5.863   5.311 -1.0046  0.6309  0.5575
  137OSM   H16T14952   4.315   5.748   5.312  0.2074 -1.1457  2.7794
  137OSM   C17S14953   4.388   5.940   5.328  0.0109 -0.3823  0.8284
  137OSM   H17S14954   4.493   5.910   5.350 -0.3924 -2.9708 -0.5004
  137OSM   H17T14955   4.372   6.042   5.370  0.2441 -0.1257  0.2903
  137OSM   C18S14956   4.369   5.961   5.180 -0.1119  0.1692 -0.2395
  137OSM   H18S14957   4.269   6.010   5.170  0.4908  1.4953 -0.0654
  137OSM   H18T14958   4.355   5.873   5.114 -0.8060 -0.6794  0.9920
  137OSM   H18U14959   4.442   6.024   5.124 -1.0914 -0.2885 -2.1164
  137OSM    C1F14960   4.027   6.492   6.795  0.7169 -0.2806  0.1514
  137OSM     OF14961   4.140   6.532   6.816 -0.5398  0.1558  0.6716
  137OSM    C2F14962   3.927   6.590   6.734  0.1737 -0.1444 -0.2391
  137OSM    H2F14963   3.910   6.674   6.804 -1.0446 -1.6411  1.3680
  137OSM    H2G14964   3.826   6.543   6.725 -0.8005  2.0709 -1.9401
  137OSM    C3F14965   3.957   6.641   6.593 -0.2832 -0.0915 -0.0742
  137OSM    H3F14966   4.052   6.697   6.607  0.5065 -1.6090  1.0349
  137OSM    H3G14967   3.881   6.711   6.554  0.1708 -0.3169 -1.4376
  137OSM    C4F14968   3.970   6.531   6.479 -0.2612 -0.6000  0.1396
  137OSM    H4F14969   4.041   6.450   6.504  0.6924 -0.1960 -1.1565
  137OSM    H4G14970   4.017   6.588   6.396  1.1139 -1.4269  0.3247
  137OSM    C5F14971   3.829   6.489   6.424  0.6560 -0.0998  0.2311
  137OSM    H5F14972   3.767   6.581   6.417  3.2394  1.6927 -0.7784
  137OSM    H5G14973   3.777   6.411   6.484 -0.1389 -0.4942 -0.9448
  137OSM    C6F14974   3.857   6.437   6.272  0.4773  0.2520 -0.1918
  137OSM    H6F14975   3.776   6.363   6.253  1.7176 -2.0286  2.5661
  137OSM    H6G14976   3.940   6.364   6.269  1.9173  1.7707  0.7929
  137OSM    C7F14977   3.870   6.542   6.157  0.1483  0.5525  0.5502
  137OSM    H7F14978   3.934   6.628   6.186  2.3749 -1.8687  3.3473
  137OSM    H7G14979   3.767   6.580   6.139 -1.3067 -2.3171  2.1150
  137OSM    C8F14980   3.942   6.486   6.035  0.0586  0.0476 -0.0174
  137OSM    H8F14981   4.047   6.451   6.050  0.4581  1.6942  1.4436
  137OSM    H8G14982   3.945   6.566   5.958  1.9876  0.2998  0.2659
  137OSM    C9F14983   3.870   6.371   5.976  0.2782  0.6156 -0.2646
  137OSM    H9F14984   3.832   6.297   6.047 -2.7141  1.4447 -0.8459
  137OSM   C10F14985   3.859   6.344   5.847  0.4294 -0.3736  0.0410
  137OSM   H10F14986   3.785   6.265   5.830 -1.9149  1.8945 -0.9509
  137OSM   C11F14987   3.888   6.425   5.720  0.5463  0.4685 -0.1067
  137OSM   H11F14988   3.910   6.531   5.744 -0.2084  0.4993  0.4725
  137OSM   H11G14989   3.792   6.428   5.664 -0.3826 -0.0036  1.3882
  137OSM   C12F14990   3.979   6.336   5.638  0.1444 -0.3451  0.0139
  137OSM   H12F14991   3.942   6.232   5.621 -0.3238 -0.1413 -0.2400
  137OSM   H12G14992   4.072   6.326   5.698 -1.1236  0.2035  2.1773
  137OSM   C13F14993   4.019   6.403   5.506  0.2174 -0.3702  0.2396
  137OSM   H13F14994   4.075   6.497   5.524  2.4500 -1.4408 -0.7357
  137OSM   H13G14995   3.928   6.428   5.446  0.1133  0.6295  0.7889
  137OSM   C14F14996   4.111   6.317   5.411 -0.0935 -0.2468 -0.1547
  137OSM   H14F14997   4.060   6.224   5.379  3.1916 -1.6036 -1.8805
  137OSM   H14G14998   4.200   6.286   5.471 -0.3862 -0.1630  0.3257
  137OSM   C15F14999   4.179   6.392   5.286 -0.3246 -0.1462 -0.1913
  137OSM   H15F15000   4.272   6.439   5.324 -1.7347  1.9647  0.8405
  137OSM   H15G15001   4.113   6.468   5.239 -0.8307 -1.3163 -1.4336
  137OSM   C16F15002   4.221   6.296   5.171 -1.2039 -0.0784 -0.6720
  137OSM   H16F15003   4.126   6.251   5.135 -0.1930 -1.5854 -1.5648
  137OSM   H16G15004   4.284   6.215   5.212  0.1223  0.6553 -1.2052
  137OSM   C17F15005   4.297   6.369   5.059  0.1285 -0.3215  0.0327
  137OSM   H17F15006   4.373   6.433   5.108 -0.7057  1.0299 -0.3911
  137OSM   H17G15007   4.228   6.438   5.006  0.8589  0.3545 -0.0602
  137OSM   C18F15008   4.360   6.289   4.947 -0.0927  0.5688  0.7352
  137OSM   H18F15009   4.421   6.359   4.886  0.2871 -0.8328 -0.5689
  137OSM   H18G15010   4.286   6.236   4.883  2.2559 -4.0752  1.4397
  137OSM   H18H15011   4.418   6.202   4.985 -0.7985 -0.4111 -0.3617
  138OSM      N15012   1.566   3.521   7.484 -0.6044  1.0064  0.4527
  138OSM    C1515013   1.474   3.567   7.594 -0.2687  0.3633 -0.4096
  138OSM   H15A15014   1.395   3.626   7.550 -1.7059 -0.7248  0.6035
  138OSM   H15B15015   1.526   3.617   7.674  0.4028 -0.1871 -0.4940
  138OSM   H15C15016   1.417   3.490   7.642  1.2423 -0.6954 -0.2439
  138OSM    C1415017   1.667   3.622   7.450  0.0543 -0.7012  0.2876
  138OSM   H14A15018   1.714   3.660   7.540  2.9066 -1.2453 -0.8731
  138OSM   H14B15019   1.619   3.698   7.389  1.0408 -1.3233 -1.3237
  138OSM   H14C15020   1.744   3.583   7.385 -0.4767 -0.2668 -0.6209
  138OSM    C1315021   1.644   3.396   7.528  0.1951 -0.6065 -0.5727
  138OSM   H13A15022   1.575   3.316   7.550 -0.1814  0.1394  1.1114
  138OSM   H13B15023   1.682   3.414   7.627 -2.5476 -0.4952  0.5545
  138OSM   H13C15024   1.719   3.366   7.457  0.8738  1.9242 -1.0198
  138OSM    C1215025   1.475   3.501   7.356 -0.5154  0.4592  0.0528
  138OSM   H12A15026   1.385   3.444   7.377 -2.0310  2.7104 -0.0092
  138OSM   H12B15027   1.530   3.452   7.276 -1.8406 -0.0384 -0.5788
  138OSM    C1115028   1.417   3.626   7.281  0.1943  0.3429  0.0032
  138OSM   H11A15029   1.375   3.597   7.182 -1.4778  3.2715 -0.2753
  138OSM   H11B15030   1.495   3.688   7.232  1.9100 -2.0741 -0.5264
  138OSM      P15031   1.176   3.646   7.372 -0.1094  0.3661  0.2784
  138OSM    O1315032   1.164   3.496   7.355 -0.3325 -0.2789 -0.1327
  138OSM    O1415033   1.121   3.700   7.503 -0.0139 -0.0806  0.7610
  138OSM    O1115034   1.104   3.714   7.250  0.0863 -0.1677  0.2349
  138OSM    O1215035   1.319   3.693   7.363 -0.7885  0.4082 -1.0735
  138OSM    C1S15036   1.157   3.810   7.159  0.6340  0.3823 -0.7085
  138OSM    H1S15037   1.261   3.823   7.198  0.0092  1.2519  0.7424
  138OSM    H1T15038   1.112   3.910   7.175  1.3491  0.5618  0.2703
  138OSM     NF15039   1.220   3.858   6.922  0.1737 -0.6308 -0.0066
  138OSM    HNF15040   1.166   3.907   6.854  3.0323  0.8464 -1.4031
  138OSM    C2S15041   1.154   3.760   7.013  0.3850  0.0965  0.0982
  138OSM    H2S15042   1.209   3.664   7.013 -1.6327 -1.1242 -0.9183
  138OSM    C3S15043   1.010   3.734   6.972 -0.1167  1.0537 -0.0780
  138OSM    H3S15044   0.956   3.831   6.968  0.9606  1.6458 -0.8479
  138OSM     O315045   0.934   3.655   7.065  0.1971 -0.0006 -0.1466
  138OSM    HO315046   0.957   3.687   7.152 -0.4525 -1.3382  0.5485
  138OSM    C4S15047   0.998   3.672   6.836 -1.0109 -0.3505  0.2727
  138OSM    H4S15048   1.017   3.744   6.755 -1.4901  0.3444  0.7760
  138OSM    C5S15049   0.989   3.543   6.796  0.3535 -0.3765  0.0587
  138OSM    H5S15050   0.987   3.455   6.862  0.7968  1.0378  2.0513
  138OSM    C6S15051   0.982   3.514   6.647  0.5658  0.2738 -0.3908
  138OSM    H6S15052   0.895   3.449   6.623 -0.9098  2.6691 -2.0055
  138OSM    H6T15053   1.071   3.450   6.631  0.5301  0.0707  0.1850
  138OSM    C7S15054   0.998   3.624   6.542 -0.0905 -0.3750  0.1430
  138OSM    H7S15055   1.094   3.679   6.559  0.4848 -1.0324 -0.8693
  138OSM    H7T15056   0.914   3.694   6.559 -1.5804 -1.7240 -1.3250
  138OSM    C8S15057   1.001   3.570   6.395 -0.2469 -0.3667  0.3199
  138OSM    H8S15058   0.904   3.522   6.370  0.5522 -1.5330 -0.7376
  138OSM    H8T15059   1.073   3.485   6.385  1.2453  1.0183 -1.5189
  138OSM    C9S15060   1.035   3.672   6.290  0.5368  0.0488  0.5069
  138OSM    H9S15061   1.128   3.726   6.318  1.8568 -0.6982 -2.1686
  138OSM    H9T15062   0.946   3.739   6.290 -0.1774 -0.8484  2.0192
  138OSM   C10S15063   1.052   3.606   6.149  0.7549 -0.2967  0.1801
  138OSM   H10S15064   0.973   3.530   6.133  2.5653 -2.2006 -0.0534
  138OSM   H10T15065   1.148   3.553   6.161  1.5798  1.6614  3.8328
  138OSM   C11S15066   1.045   3.709   6.036 -0.5761  0.4667  0.1037
  138OSM   H11S15067   1.130   3.780   6.044  1.2192 -1.7389  1.8224
  138OSM   H11T15068   0.952   3.769   6.035 -1.7601 -1.1926 -2.6297
  138OSM   C12S15069   1.036   3.650   5.897 -0.7392 -0.3138  0.5471
  138OSM   H12S15070   0.940   3.600   5.869  0.2606 -0.5900 -2.8387
  138OSM   H12T15071   1.109   3.569   5.873 -1.0232 -0.1895 -0.8474
  138OSM   C13S15072   1.065   3.758   5.789 -0.8676 -0.0544  0.0044
  138OSM   H13S15073   1.174   3.778   5.793 -0.9219  0.1461  0.5852
  138OSM   H13T15074   1.019   3.858   5.804 -0.1269  0.0207  2.1103
  138OSM   C14S15075   1.052   3.703   5.649 -0.2566 -0.2305  0.1954
  138OSM   H14S15076   0.952   3.656   5.638 -0.2132 -0.3390  0.2634
  138OSM   H14T15077   1.127   3.622   5.636  0.6515  0.7678 -0.9876
  138OSM   C15S15078   1.062   3.820   5.545 -0.0374  0.0636 -0.0701
  138OSM   H15S15079   1.127   3.901   5.586  1.0267 -0.4857 -0.6136
  138OSM   H15T15080   0.960   3.862   5.535 -1.8781 -2.9766  3.5755
  138OSM   C16S15081   1.107   3.771   5.404 -0.0788  0.1433  0.1149
  138OSM   H16S15082   1.028   3.702   5.369 -0.2714  0.7602 -0.7006
  138OSM   H16T15083   1.205   3.722   5.420  0.0371  0.5892  0.7927
  138OSM   C17S15084   1.119   3.885   5.302 -0.2370  0.5539 -0.5027
  138OSM   H17S15085   1.196   3.960   5.328 -1.3069  0.6586  2.6908
  138OSM   H17T15086   1.018   3.928   5.313 -0.9703 -1.3444  0.6891
  138OSM   C18S15087   1.152   3.840   5.156  0.8146 -0.3443 -0.1490
  138OSM   H18S15088   1.076   3.770   5.114  0.9087  0.1897 -1.2470
  138OSM   H18T15089   1.243   3.777   5.146  0.7138 -0.2125 -2.4277
  138OSM   H18U15090   1.154   3.928   5.088 -0.2740 -1.2057 -1.3604
  138OSM    C1F15091   1.350   3.896   6.930 -0.1203 -0.1450 -0.0433
  138OSM     OF15092   1.414   3.857   7.025 -0.0723  0.0150  0.7990
  138OSM    C2F15093   1.399   3.985   6.825  0.5356 -0.0697 -0.1414
  138OSM    H2F15094   1.393   4.087   6.868  1.0827  0.9540 -2.3381
  138OSM    H2G15095   1.332   3.987   6.736 -1.1796  0.8129  1.1012
  138OSM    C3F15096   1.543   3.962   6.781 -0.0846 -0.7278  0.0490
  138OSM    H3F15097   1.592   3.883   6.842  1.0232  1.1699  1.7304
  138OSM    H3G15098   1.612   4.042   6.814  2.1989 -1.4749 -2.5821
  138OSM    C4F15099   1.566   3.935   6.627  0.4328  0.2349 -0.0806
  138OSM    H4F15100   1.504   3.847   6.599 -2.3439  2.4879 -1.5065
  138OSM    H4G15101   1.670   3.897   6.627 -0.6897 -3.6886  3.5429
  138OSM    C5F15102   1.529   4.044   6.529  0.4100 -0.1796 -0.2478
  138OSM    H5F15103   1.595   4.131   6.548 -1.6082  1.4096 -0.2008
  138OSM    H5G15104   1.434   4.091   6.565  1.7807  0.9517  2.1210
  138OSM    C6F15105   1.526   3.989   6.384  0.3260 -0.1825 -0.2054
  138OSM    H6F15106   1.447   3.911   6.371  0.9172 -0.8968  0.3799
  138OSM    H6G15107   1.617   3.929   6.361  0.2617  0.0172 -1.0080
  138OSM    C7F15108   1.524   4.103   6.278 -0.4693 -0.7252  0.8657
  138OSM    H7F15109   1.607   4.173   6.298 -0.1679 -1.1685  1.1916
  138OSM    H7G15110   1.431   4.160   6.300  0.0702  0.3548  0.4321
  138OSM    C8F15111   1.526   4.047   6.130 -0.1824 -0.0323 -0.0939
  138OSM    H8F15112   1.492   4.124   6.057 -1.2943  0.0368  0.4688
  138OSM    H8G15113   1.438   3.980   6.124 -0.1035 -0.2179  0.7202
  138OSM    C9F15114   1.651   3.976   6.088  0.2273 -0.1424 -0.0974
  138OSM    H9F15115   1.693   3.903   6.159 -2.6609 -2.2311 -0.3644
  138OSM   C10F15116   1.695   3.979   5.965 -0.2411 -0.2561  0.7733
  138OSM   H10F15117   1.785   3.920   5.943  0.0878  0.3724  0.4175
  138OSM   C11F15118   1.633   4.044   5.841  0.2628 -0.3167  0.0529
  138OSM   H11F15119   1.709   4.096   5.780  2.2538 -2.0901  0.8843
  138OSM   H11G15120   1.557   4.123   5.858  0.0682  0.1562 -2.5605
  138OSM   C12F15121   1.559   3.938   5.751  0.1544  0.4678 -0.0529
  138OSM   H12F15122   1.451   3.956   5.771 -0.1526  0.3036 -1.4976
  138OSM   H12G15123   1.589   3.834   5.778 -1.4042 -0.2945 -1.1351
  138OSM   C13F15124   1.582   3.964   5.603  0.4052  0.1383 -0.0571
  138OSM   H13F15125   1.682   3.932   5.568  1.2915  3.9704 -1.4959
  138OSM   H13G15126   1.573   4.071   5.573  1.7715 -0.1491 -1.6324
  138OSM   C14F15127   1.488   3.881   5.524  0.3783  0.3054  0.2230
  138OSM   H14F15128   1.384   3.922   5.525  0.4088  0.3987 -0.2337
  138OSM   H14G15129   1.472   3.777   5.561  0.9526  0.3907  0.7255
  138OSM   C15F15130   1.529   3.882   5.372 -0.3932 -0.0070 -0.1454
  138OSM   H15F15131   1.477   3.798   5.321 -0.1564 -0.8433  0.9723
  138OSM   H15G15132   1.635   3.849   5.368 -0.5140 -0.5545  0.8916
  138OSM   C16F15133   1.513   4.014   5.305 -0.4735 -0.1128 -0.0702
  138OSM   H16F15134   1.583   4.093   5.340  2.0893 -1.0360 -2.6712
  138OSM   H16G15135   1.408   4.050   5.315 -0.0267  1.2213  0.1062
  138OSM   C17F15136   1.534   3.994   5.149  0.9687 -0.0058 -0.1691
  138OSM   H17F15137   1.467   3.909   5.121 -0.5023  0.6804  1.1325
  138OSM   H17G15138   1.640   3.964   5.138  0.5173 -1.1924 -1.7480
  138OSM   C18F15139   1.499   4.111   5.053 -0.4027 -0.7441  0.5244
  138OSM   H18F15140   1.396   4.148   5.075  0.0329  1.8051 -1.2679
  138OSM   H18G15141   1.519   4.078   4.949 -0.5072 -2.3991  0.9999
  138OSM   H18H15142   1.566   4.198   5.070 -0.4806 -0.6656  0.4417
  139OSM      N15143   3.937   0.313   7.296  0.0914 -0.2317  0.7135
  139OSM    C1515144   4.087   0.322   7.303  0.3365 -0.1930 -0.0722
  139OSM   H15A15145   4.127   0.283   7.211  2.0329  1.7407 -0.2173
  139OSM   H15B15146   4.132   0.268   7.386 -1.4271 -2.0047 -0.2257
  139OSM   H15C15147   4.122   0.423   7.320  1.1873 -0.4662 -0.1361
  139OSM    C1415148   3.871   0.411   7.381  0.1418 -0.2512  0.2424
  139OSM   H14A15149   3.764   0.402   7.380  0.0814  0.2509 -1.6020
  139OSM   H14B15150   3.910   0.510   7.363  1.9260 -1.1350 -1.2004
  139OSM   H14C15151   3.890   0.379   7.483  1.7710  1.4728  0.5391
  139OSM    C1315152   3.896   0.358   7.162 -0.3278 -0.4696 -0.1168
  139OSM   H13A15153   3.790   0.361   7.146 -0.3044  0.1253 -0.2105
  139OSM   H13B15154   3.935   0.293   7.085  0.7745  0.9428 -0.8100
  139OSM   H13C15155   3.940   0.455   7.141  0.0749 -0.2042  1.7220
  139OSM    C1215156   3.886   0.173   7.316 -0.0862  0.3104 -0.3571
  139OSM   H12A15157   3.779   0.178   7.321 -0.0504  0.9067 -0.1161
  139OSM   H12B15158   3.930   0.137   7.407 -0.3527 -0.0818 -0.3843
  139OSM    C1115159   3.915   0.071   7.196  0.5714  0.2747  0.5845
  139OSM   H11A15160   3.890  -0.031   7.234 -1.6140 -0.1556 -1.7225
  139OSM   H11B15161   4.023   0.074   7.171 -0.2799  0.6687 -3.8349
  139OSM      P15162   3.701   0.044   7.039  0.0084 -0.0179  0.2205
  139OSM    O1315163   3.689  -0.091   7.092  0.6146  0.2203 -0.5048
  139OSM    O1415164   3.605   0.146   7.091  0.1874 -0.2086 -0.1396
  139OSM    O1115165   3.685   0.045   6.881  0.4112 -1.2899  0.3084
  139OSM    O1215166   3.856   0.090   7.068 -0.2343 -0.4765 -0.1851
  139OSM    C1S15167   3.716   0.174   6.819 -0.2492 -0.1679 -0.2351
  139OSM    H1S15168   3.813   0.219   6.846 -1.2778  0.9966  1.8211
  139OSM    H1T15169   3.628   0.240   6.836 -2.7302 -2.8721 -1.5727
  139OSM     NF15170   3.734   0.283   6.611  0.0985  0.0196  0.1191
  139OSM    HNF15171   3.655   0.311   6.557  1.7855  0.8130 -2.0874
  139OSM    C2S15172   3.729   0.150   6.667  0.3935  0.0012 -0.9808
  139OSM    H2S15173   3.824   0.097   6.646 -0.1569 -0.5459 -2.1744
  139OSM    C3S15174   3.608   0.067   6.612  0.0281  0.5242  0.0220
  139OSM    H3S15175   3.519   0.117   6.655  1.4236  1.5771  1.8193
  139OSM     O315176   3.590  -0.064   6.659 -0.2176  0.2087 -0.5165
  139OSM    HO315177   3.650  -0.070   6.733 -1.7822  2.2672  1.0446
  139OSM    C4S15178   3.601   0.052   6.461  0.0031  0.4963 -0.0887
  139OSM    H4S15179   3.507   0.074   6.408 -1.1437 -1.5056  1.0051
  139OSM    C5S15180   3.697  -0.005   6.390 -1.0922 -0.8210  0.1455
  139OSM    H5S15181   3.798  -0.025   6.429  0.7122  1.0739 -3.1977
  139OSM    C6S15182   3.707  -0.024   6.246 -0.6914  0.6605  0.4543
  139OSM    H6S15183   3.701  -0.131   6.217 -0.1702  0.4330  1.1617
  139OSM    H6T15184   3.801   0.016   6.204 -0.8206  1.1178  0.5957
  139OSM    C7S15185   3.587   0.036   6.172 -0.3274  0.2173 -0.0851
  139OSM    H7S15186   3.568   0.143   6.198 -0.9105  0.0093  0.3868
  139OSM    H7T15187   3.496  -0.016   6.211 -0.0341  0.9935  1.7605
  139OSM    C8S15188   3.598   0.033   6.020 -0.0632 -0.4368  0.1019
  139OSM    H8S15189   3.653   0.123   5.985  0.1787 -0.9377 -0.8255
  139OSM    H8T15190   3.497   0.047   5.976  0.4163  1.4379 -0.5137
  139OSM    C9S15191   3.652  -0.090   5.947 -0.3422  0.1696 -0.2060
  139OSM    H9S15192   3.576  -0.167   5.971  1.0163 -2.1517 -2.7645
  139OSM    H9T15193   3.749  -0.114   5.996 -1.2462 -2.1822  0.5680
  139OSM   C10S15194   3.688  -0.074   5.795 -0.4984  0.0345 -0.2351
  139OSM   H10S15195   3.732  -0.168   5.757  0.4703  0.5682 -0.4721
  139OSM   H10T15196   3.758   0.012   5.782  0.3191 -0.8315 -1.8064
  139OSM   C11S15197   3.562  -0.045   5.708  0.9045  0.3162 -0.2869
  139OSM   H11S15198   3.499   0.042   5.738 -1.2406 -0.5065 -2.0892
  139OSM   H11T15199   3.499  -0.136   5.695  1.3059  0.0192 -0.1568
  139OSM   C12S15200   3.605   0.001   5.561 -0.4011  1.3435  0.1258
  139OSM   H12S15201   3.685  -0.067   5.524 -2.0818 -1.8913  1.9432
  139OSM   H12T15202   3.652   0.099   5.583  1.4776  0.5285 -0.0386
  139OSM   C13S15203   3.491   0.030   5.462  0.5172  0.8405  0.1532
  139OSM   H13S15204   3.413   0.090   5.514  1.7633  1.0502  1.9073
  139OSM   H13T15205   3.439  -0.054   5.412  1.5743  0.8980 -1.1007
  139OSM   C14S15206   3.532   0.125   5.348  0.2458 -0.1682 -0.3504
  139OSM   H14S15207   3.615   0.184   5.393  1.0063  0.2960 -2.2715
  139OSM   H14T15208   3.448   0.196   5.331  1.7961  2.1917  1.2190
  139OSM   C15S15209   3.586   0.050   5.225 -0.2767 -0.3806 -0.3895
  139OSM   H15S15210   3.523  -0.041   5.212 -1.0874  0.1874 -0.4982
  139OSM   H15T15211   3.685   0.005   5.250 -0.6823 -0.9306  0.2454
  139OSM   C16S15212   3.591   0.142   5.095 -0.5434 -0.6401  0.4353
  139OSM   H16S15213   3.648   0.236   5.107 -1.6746  0.3788 -1.4941
  139OSM   H16T15214   3.485   0.173   5.079 -0.4006 -1.0543 -1.6487
  139OSM   C17S15215   3.642   0.072   4.973  0.3318  0.2503 -0.4208
  139OSM   H17S15216   3.580  -0.020   4.976 -0.8342  1.0330  0.3584
  139OSM   H17T15217   3.742   0.031   5.000 -0.1890 -1.6783 -1.1914
  139OSM   C18S15218   3.656   0.146   4.846  0.1197 -0.3151 -0.2948
  139OSM   H18S15219   3.670   0.085   4.754  2.5130  1.1422 -1.0050
  139OSM   H18T15220   3.738   0.219   4.862 -0.4640  0.6968 -1.6595
  139OSM   H18U15221   3.564   0.207   4.832  0.3975  0.4483  1.0418
  139OSM    C1F15222   3.834   0.374   6.610 -0.0661 -0.0363  0.2269
  139OSM     OF15223   3.934   0.345   6.668 -0.0207  0.2344  1.2069
  139OSM    C2F15224   3.798   0.503   6.545 -1.0699 -0.2898 -0.0510
  139OSM    H2F15225   3.785   0.581   6.623 -2.9776  0.5536 -1.1351
  139OSM    H2G15226   3.700   0.500   6.492 -1.5268  3.2081  0.4095
  139OSM    C3F15227   3.908   0.550   6.441  0.4719  0.2464  0.0498
  139OSM    H3F15228   4.003   0.556   6.497  0.4042  1.8792  0.0588
  139OSM    H3G15229   3.895   0.654   6.405  1.7092  0.4054  0.0430
  139OSM    C4F15230   3.929   0.454   6.330 -0.2216 -0.0004  0.1040
  139OSM    H4F15231   3.947   0.354   6.375  0.3623  0.9109  1.9952
  139OSM    H4G15232   4.026   0.477   6.280  0.6663 -2.0427  0.7777
  139OSM    C5F15233   3.817   0.451   6.224 -0.0305  0.5913  0.2421
  139OSM    H5F15234   3.789   0.556   6.202 -1.0130  0.4171  0.6148
  139OSM    H5G15235   3.729   0.402   6.271  0.4744 -0.8278 -0.2596
  139OSM    C6F15236   3.861   0.379   6.091  0.3109  0.0867 -0.6210
  139OSM    H6F15237   3.884   0.274   6.120  0.3590  0.9279  2.9324
  139OSM    H6G15238   3.957   0.425   6.060 -1.1076  3.8047  0.0734
  139OSM    C7F15239   3.768   0.402   5.978 -0.0987 -0.6094  0.1611
  139OSM    H7F15240   3.748   0.506   5.945 -1.7258 -0.2370  2.1808
  139OSM    H7G15241   3.662   0.374   5.993 -0.6378  0.5445 -1.1891
  139OSM    C8F15242   3.830   0.308   5.872  0.2442  0.4196 -0.1642
  139OSM    H8F15243   3.828   0.205   5.913  0.6281  0.6126  0.3463
  139OSM    H8G15244   3.939   0.325   5.863  0.1763  0.9438 -0.0241
  139OSM    C9F15245   3.752   0.307   5.740  0.2221  0.2435  0.3769
  139OSM    H9F15246   3.650   0.266   5.740  0.2020  0.1362 -2.3094
  139OSM   C10F15247   3.804   0.344   5.622  0.1854  0.4579 -0.5791
  139OSM   H10F15248   3.735   0.339   5.537  1.1808  0.6772 -1.4229
  139OSM   C11F15249   3.941   0.399   5.594 -0.6048 -0.2746  0.2723
  139OSM   H11F15250   4.018   0.389   5.675 -0.2439 -0.1623 -0.0525
  139OSM   H11G15251   3.934   0.509   5.578 -0.1677 -0.5763 -2.4559
  139OSM   C12F15252   3.986   0.331   5.465  0.5858  0.5578 -0.7574
  139OSM   H12F15253   4.011   0.225   5.485 -1.8845  0.5350  3.2204
  139OSM   H12G15254   4.077   0.390   5.440  2.2431 -1.0675  1.1621
  139OSM   C13F15255   3.892   0.333   5.339  0.4691  0.0494 -0.0107
  139OSM   H13F15256   3.841   0.428   5.312 -1.1355 -0.6173  0.5098
  139OSM   H13G15257   3.803   0.269   5.357 -2.1975  1.9488 -4.5738
  139OSM   C14F15258   3.951   0.271   5.213  1.5793 -0.1961 -0.1327
  139OSM   H14F15259   3.879   0.215   5.150  1.2500 -0.0805  0.1336
  139OSM   H14G15260   4.037   0.208   5.245  0.2644 -1.4874  0.9945
  139OSM   C15F15261   4.002   0.378   5.122 -0.1634  0.6271  0.5686
  139OSM   H15F15262   4.080   0.439   5.173  1.8032 -0.0699 -1.4278
  139OSM   H15G15263   3.914   0.442   5.100 -2.0632 -2.1628 -0.5225
  139OSM   C16F15264   4.086   0.325   5.003  0.0537  0.4164  0.0610
  139OSM   H16F15265   4.038   0.246   4.941  0.5157 -1.8127  2.3520
  139OSM   H16G15266   4.165   0.259   5.044  1.3035  1.3775 -0.7394
  139OSM   C17F15267   4.149   0.436   4.911 -0.0453 -0.2293  0.2300
  139OSM   H17F15268   4.203   0.512   4.972 -1.0967 -1.3500  2.6806
  139OSM   H17G15269   4.070   0.493   4.859  0.4436  0.7027  0.4836
  139OSM   C18F15270   4.231   0.360   4.815  0.5181 -0.6100 -0.1401
  139OSM   H18F15271   4.172   0.295   4.746  0.3564  0.7715 -1.3533
  139OSM   H18G15272   4.314   0.298   4.855  2.8752  1.1397 -2.0034
  139OSM   H18H15273   4.273   0.436   4.746  0.1937 -1.3923 -1.2242
  140OSM      N15274   4.601   5.640   7.335 -0.8810  0.2398  0.0775
  140OSM    C1515275   4.518   5.758   7.371  0.1090  0.8084  0.4221
  140OSM   H15A15276   4.522   5.832   7.292 -1.7174  0.9690  0.4351
  140OSM   H15B15277   4.556   5.806   7.460 -0.7069 -1.6562  2.1991
  140OSM   H15C15278   4.413   5.730   7.375  0.2506 -0.3902 -2.0187
  140OSM    C1415279   4.738   5.690   7.337  0.0209 -0.2524  0.3561
  140OSM   H14A15280   4.768   5.760   7.261  0.1633  0.2731  0.8825
  140OSM   H14B15281   4.812   5.611   7.346 -1.5078 -1.6726  0.9762
  140OSM   H14C15282   4.768   5.743   7.427  2.9146  0.2373 -0.7685
  140OSM    C1315283   4.581   5.538   7.445  0.5322  0.2030 -0.2847
  140OSM   H13A15284   4.481   5.499   7.457  0.5365  0.5974  1.0982
  140OSM   H13B15285   4.606   5.592   7.535 -1.9708  0.4930  0.2998
  140OSM   H13C15286   4.649   5.455   7.428 -1.2840 -1.2818 -0.6685
  140OSM    C1215287   4.571   5.591   7.192 -0.1725 -0.0911 -1.1773
  140OSM   H12A15288   4.635   5.506   7.175  0.4873  0.1440  0.0618
  140OSM   H12B15289   4.592   5.670   7.121 -0.4842 -0.9521 -2.2590
  140OSM    C1115290   4.426   5.544   7.165  0.2581 -0.0130 -0.6065
  140OSM   H11A15291   4.402   5.547   7.057 -1.7123  2.7652 -0.1936
  140OSM   H11B15292   4.360   5.622   7.208 -1.4156 -2.1948  1.0157
  140OSM      P15293   4.462   5.290   7.148 -0.1279 -0.1371 -0.1773
  140OSM    O1315294   4.611   5.294   7.165  0.2414 -0.6091 -0.0177
  140OSM    O1415295   4.397   5.172   7.198  0.0971 -0.2827  0.3052
  140OSM    O1115296   4.426   5.307   6.996 -0.6711 -0.1431  0.2881
  140OSM    O1215297   4.393   5.417   7.224 -0.1980 -0.1297  0.5868
  140OSM    C1S15298   4.480   5.212   6.901  0.5311  0.4532  0.1751
  140OSM    H1S15299   4.405   5.130   6.902 -0.6516  1.4495 -1.2890
  140OSM    H1T15300   4.574   5.174   6.945 -1.0018 -1.5984  1.9248
  140OSM     NF15301   4.493   5.185   6.638 -0.6808 -0.3578 -0.2072
  140OSM    HNF15302   4.577   5.146   6.602 -0.2851  0.7429 -0.5062
  140OSM    C2S15303   4.504   5.269   6.755  0.6022  0.5206 -0.3649
  140OSM    H2S15304   4.429   5.350   6.743  0.7416  0.7248  0.1038
  140OSM    C3S15305   4.639   5.350   6.763  0.5470 -0.3179  0.6778
  140OSM    H3S15306   4.708   5.268   6.793  1.9453  1.1896  1.7641
  140OSM     O315307   4.638   5.449   6.868  0.6957 -0.2247 -0.0663
  140OSM    HO315308   4.575   5.412   6.931 -0.4181  1.8417  0.1148
  140OSM    C4S15309   4.679   5.405   6.620 -0.3587  0.1967 -0.0246
  140OSM    H4S15310   4.719   5.325   6.556  0.1879  0.2574  0.2382
  140OSM    C5S15311   4.671   5.531   6.575 -0.0649 -0.0567  0.0807
  140OSM    H5S15312   4.645   5.612   6.645  0.4436  1.1857 -1.1225
  140OSM    C6S15313   4.714   5.578   6.441 -0.4976  0.6167  0.1367
  140OSM    H6S15314   4.783   5.664   6.452 -1.0899  1.7006 -3.4597
  140OSM    H6T15315   4.633   5.630   6.386  0.1078  0.5096 -0.8767
  140OSM    C7S15316   4.780   5.481   6.340 -0.4506 -0.2922 -0.0349
  140OSM    H7S15317   4.719   5.390   6.326  0.1822 -0.7004 -0.1803
  140OSM    H7T15318   4.882   5.448   6.369 -1.0438 -1.4474  0.7766
  140OSM    C8S15319   4.789   5.561   6.211  1.3791  0.4439 -0.3775
  140OSM    H8S15320   4.854   5.649   6.229  0.2617  2.0608 -3.3885
  140OSM    H8T15321   4.692   5.609   6.183  1.2609  1.6625  1.9289
  140OSM    C9S15322   4.840   5.490   6.088  0.7758 -0.2315  1.1485
  140OSM    H9S15323   4.791   5.391   6.092  4.8260 -2.8214 -2.6955
  140OSM    H9T15324   4.950   5.475   6.096  1.1060 -0.0710 -1.8021
  140OSM   C10S15325   4.828   5.581   5.968 -0.8184  0.7538  0.0695
  140OSM   H10S15326   4.870   5.679   5.998  0.0616  0.1861  0.7311
  140OSM   H10T15327   4.722   5.596   5.936 -0.8759  1.8346  0.7102
  140OSM   C11S15328   4.908   5.523   5.843 -0.5130  0.0789 -0.6133
  140OSM   H11S15329   4.897   5.412   5.836  2.3839 -0.4001  0.8510
  140OSM   H11T15330   5.015   5.525   5.869 -0.6542 -0.9854  0.1123
  140OSM   C12S15331   4.897   5.586   5.711 -0.5579 -0.1675  0.2934
  140OSM   H12S15332   4.948   5.685   5.706 -0.1119 -0.4600 -1.4340
  140OSM   H12T15333   4.789   5.606   5.697 -0.2534  0.8379 -0.8034
  140OSM   C13S15334   4.941   5.491   5.594  0.0617  1.2383  0.1663
  140OSM   H13S15335   4.884   5.396   5.598  1.4718  0.3884  1.2419
  140OSM   H13T15336   5.044   5.458   5.620 -0.2477  0.5463  0.5313
  140OSM   C14S15337   4.956   5.550   5.449 -0.3706  0.7542 -0.3828
  140OSM   H14S15338   5.006   5.649   5.461  0.4359  0.4077 -0.8024
  140OSM   H14T15339   4.852   5.558   5.410 -1.8924 -2.1420  2.6419
  140OSM   C15S15340   5.046   5.480   5.354 -0.4225  0.5236 -0.0501
  140OSM   H15S15341   4.989   5.391   5.318 -0.3391  0.3564  0.2246
  140OSM   H15T15342   5.136   5.440   5.405  0.2935 -0.3000 -1.8952
  140OSM   C16S15343   5.105   5.555   5.233  0.2773 -0.7206  0.2677
  140OSM   H16S15344   5.173   5.492   5.172 -0.3496 -0.4045 -0.7887
  140OSM   H16T15345   5.170   5.641   5.260 -1.5329  0.5385  0.8299
  140OSM   C17S15346   4.991   5.611   5.136  0.0300 -0.0979  0.1907
  140OSM   H17S15347   4.912   5.668   5.190 -0.5293  1.5837 -2.2398
  140OSM   H17T15348   4.940   5.524   5.091 -2.9588  1.2672  0.7037
  140OSM   C18S15349   5.052   5.707   5.027  0.3937  0.2927  0.1270
  140OSM   H18S15350   5.062   5.806   5.077  0.3921 -0.2505  1.2483
  140OSM   H18T15351   4.983   5.730   4.944  0.0157 -0.6627  0.1616
  140OSM   H18U15352   5.152   5.675   4.990 -0.0564 -1.5704  0.4161
  140OSM    C1F15353   4.378   5.133   6.602  0.8247 -0.1104 -0.4200
  140OSM     OF15354   4.271   5.161   6.657  0.0137  0.4527 -0.1987
  140OSM    C2F15355   4.378   5.054   6.479  0.3213  0.2604  0.7442
  140OSM    H2F15356   4.459   4.980   6.493  1.5386  1.1710 -1.1371
  140OSM    H2G15357   4.395   5.124   6.395  0.2425 -0.2275  0.3131
  140OSM    C3F15358   4.244   4.986   6.439 -0.2202 -0.6956 -0.2657
  140OSM    H3F15359   4.169   5.068   6.432  0.9927  0.6931  2.0848
  140OSM    H3G15360   4.225   4.911   6.519  2.6543 -1.7876 -0.4838
  140OSM    C4F15361   4.248   4.919   6.302  0.0668 -0.2177 -0.3616
  140OSM    H4F15362   4.168   4.843   6.288 -0.9978  0.8352 -0.1511
  140OSM    H4G15363   4.343   4.862   6.310 -0.3112 -0.6058  1.8248
  140OSM    C5F15364   4.248   5.027   6.187  0.7759 -0.0008  0.5033
  140OSM    H5F15365   4.279   5.127   6.224 -1.9157  0.7735  0.9140
  140OSM    H5G15366   4.145   5.045   6.149  1.6802  0.6999 -1.7567
  140OSM    C6F15367   4.338   4.975   6.074  0.3042  0.4952 -0.7112
  140OSM    H6F15368   4.298   4.875   6.048 -1.6552  0.6167  1.5523
  140OSM    H6G15369   4.440   4.965   6.118  0.4439  1.4385 -0.7978
  140OSM    C7F15370   4.353   5.067   5.951 -0.3555 -0.1304  0.1926
  140OSM    H7F15371   4.438   5.034   5.887  0.0308 -0.3971  0.8318
  140OSM    H7G15372   4.380   5.167   5.993 -0.7286 -0.5725  1.5310
  140OSM    C8F15373   4.221   5.089   5.871  0.5815 -0.2544  0.2305
  140OSM    H8F15374   4.235   5.185   5.818 -0.2974 -0.2536 -0.0132
  140OSM    H8G15375   4.140   5.105   5.946  0.4852  0.3530 -0.0030
  140OSM    C9F15376   4.156   4.992   5.770 -0.1525  0.0657 -0.9805
  140OSM    H9F15377   4.122   4.907   5.832 -2.1011  1.2149 -0.3899
  140OSM   C10F15378   4.145   4.998   5.638  0.4550  0.1664  0.3971
  140OSM   H10F15379   4.089   4.912   5.598 -0.7431  0.4878  1.3192
  140OSM   C11F15380   4.187   5.105   5.545  0.2443  0.0216  0.4662
  140OSM   H11F15381   4.281   5.154   5.579  0.1345  0.2480  0.4441
  140OSM   H11G15382   4.115   5.188   5.531  1.6421  1.3993  1.1737
  140OSM   C12F15383   4.218   5.049   5.408 -0.7662  0.0997  0.3860
  140OSM   H12F15384   4.307   4.983   5.411 -0.0681  1.0651  2.2018
  140OSM   H12G15385   4.241   5.134   5.340 -0.0185 -1.7892 -1.8707
  140OSM   C13F15386   4.092   4.981   5.340 -0.3185  0.0250  0.1577
  140OSM   H13F15387   4.023   5.068   5.334  2.1538  2.0450 -2.3597
  140OSM   H13G15388   4.063   4.889   5.395  0.9477 -0.3687  0.1957
  140OSM   C14F15389   4.133   4.946   5.198 -0.3948 -0.2265  0.2299
  140OSM   H14F15390   4.208   4.865   5.212  0.7447  0.6216 -0.7572
  140OSM   H14G15391   4.185   5.034   5.153  1.0856 -1.5538 -0.7713
  140OSM   C15F15392   4.013   4.914   5.108 -0.2313 -0.0316  0.0965
  140OSM   H15F15393   3.963   5.010   5.084  0.0202 -0.4075 -2.0971
  140OSM   H15G15394   3.945   4.835   5.149 -0.2475 -0.4962 -0.8058
  140OSM   C16F15395   4.051   4.871   4.967  0.6403  1.0008 -0.7706
  140OSM   H16F15396   4.124   4.790   4.987  1.1467  1.4769 -0.6611
  140OSM   H16G15397   4.119   4.942   4.915  0.2950  2.6853  0.9991
  140OSM   C17F15398   3.938   4.836   4.871 -0.0546  0.4914 -0.4026
  140OSM   H17F15399   3.874   4.753   4.908  1.3564  0.2087  1.5573
  140OSM   H17G15400   3.976   4.804   4.771 -0.9376  1.5999 -1.1183
  140OSM   C18F15401   3.860   4.958   4.824  0.4592  0.1126  0.1011
  140OSM   H18F15402   3.784   4.909   4.760 -0.3411 -1.2271  1.9855
  140OSM   H18G15403   3.914   5.038   4.770  1.6756  0.6887  2.0448
  140OSM   H18H15404   3.805   5.005   4.909 -0.6948 -1.4230  0.2536
  141OSM      N15405   2.658   5.854   6.797 -0.4376 -0.3807 -0.2466
  141OSM    C1515406   2.728   5.720   6.794 -0.3735  0.1165  0.4449
  141OSM   H15A15407   2.800   5.708   6.873 -0.7251 -0.9888  0.6148
  141OSM   H15B15408   2.787   5.716   6.703 -2.1683  1.3113 -0.8563
  141OSM   H15C15409   2.668   5.632   6.813  1.0903 -1.0648 -0.1679
  141OSM    C1415410   2.555   5.853   6.694  0.0333 -0.2030 -0.0584
  141OSM   H14A15411   2.601   5.837   6.597  0.7861 -2.5421  0.6079
  141OSM   H14B15412   2.496   5.942   6.688 -0.8367 -0.8101 -0.7006
  141OSM   H14C15413   2.488   5.772   6.719  0.9982 -1.1530 -0.4487
  141OSM    C1315414   2.595   5.861   6.935 -0.1783  0.8142 -1.1162
  141OSM   H13A15415   2.533   5.948   6.954  1.5688  1.3907  2.8152
  141OSM   H13B15416   2.675   5.863   7.007 -0.1414 -1.9180 -0.9879
  141OSM   H13C15417   2.538   5.772   6.954  1.3153 -0.0733 -0.6595
  141OSM    C1215418   2.763   5.969   6.774  0.4805  0.2209 -0.1543
  141OSM   H12A15419   2.821   5.981   6.864  0.3044 -1.0529  0.1338
  141OSM   H12B15420   2.711   6.064   6.765 -0.5954 -0.5033 -2.1453
  141OSM    C1115421   2.860   5.963   6.650  0.6258  0.4665 -0.4014
  141OSM   H11A15422   2.905   6.065   6.652  0.3658  0.5757  0.1410
  141OSM   H11B15423   2.807   5.966   6.553  1.8639  2.8866 -1.1008
  141OSM      P15424   3.075   5.870   6.757 -0.0436  0.1067 -0.1646
  141OSM    O1315425   3.051   5.946   6.881  0.5353 -0.0082  0.3614
  141OSM    O1415426   3.141   5.735   6.774 -0.1959  0.5133  0.1770
  141OSM    O1115427   3.175   5.950   6.666 -0.3976  0.2717  0.1666
  141OSM    O1215428   2.946   5.852   6.663 -0.0632  0.4444 -0.2106
  141OSM    C1S15429   3.245   5.897   6.555 -0.6833 -0.1308  0.0583
  141OSM    H1S15430   3.302   5.805   6.579  1.7674  1.5257  1.0234
  141OSM    H1T15431   3.335   5.962   6.547 -0.3719 -0.6229 -0.5442
  141OSM     NF15432   3.240   5.814   6.320  0.0767 -0.1899 -0.9957
  141OSM    HNF15433   3.309   5.863   6.266  2.9546  0.7805  3.0838
  141OSM    C2S15434   3.178   5.896   6.414  0.6263 -0.8867 -0.1355
  141OSM    H2S15435   3.077   5.852   6.424  0.7049 -1.6679 -2.1971
  141OSM    C3S15436   3.152   6.046   6.376 -0.1360  0.1757 -0.0294
  141OSM    H3S15437   3.254   6.074   6.342 -0.0715 -1.7462 -1.6003
  141OSM     O315438   3.107   6.118   6.490  0.2402 -0.3401  0.6953
  141OSM    HO315439   3.148   6.066   6.560 -0.1842  0.0990  1.2792
  141OSM    C4S15440   3.055   6.063   6.273 -0.2463 -0.1190 -0.7987
  141OSM    H4S15441   2.961   6.095   6.320 -0.2613 -1.6195  0.2706
  141OSM    C5S15442   3.082   6.078   6.146 -0.1845  0.5763  0.2192
  141OSM    H5S15443   3.187   6.086   6.116 -0.4129  1.7117 -0.3169
  141OSM    C6S15444   2.975   6.121   6.049 -0.0544  0.6778 -0.5456
  141OSM    H6S15445   2.901   6.189   6.098  0.2784  0.6902 -0.0454
  141OSM    H6T15446   2.924   6.030   6.011  1.1769 -0.6124  0.7396
  141OSM    C7S15447   3.049   6.194   5.935  0.0922 -0.1936  0.3467
  141OSM    H7S15448   3.123   6.129   5.884  2.0931  1.7701  0.5929
  141OSM    H7T15449   3.107   6.281   5.973 -0.3185  0.5273 -0.6599
  141OSM    C8S15450   2.943   6.237   5.835  0.7148  0.2913  1.0075
  141OSM    H8S15451   2.881   6.320   5.875 -0.6090 -1.3525  2.5284
  141OSM    H8T15452   2.877   6.153   5.808 -0.0024  0.6372  1.6362
  141OSM    C9S15453   3.023   6.285   5.707  0.7471 -0.3187 -0.3191
  141OSM    H9S15454   3.106   6.216   5.680  1.6299  1.3700 -2.1483
  141OSM    H9T15455   3.063   6.386   5.729  1.1877 -0.4468 -0.5321
  141OSM   C10S15456   2.917   6.307   5.590 -0.3962 -0.0498 -0.6406
  141OSM   H10S15457   2.826   6.348   5.638 -1.1167  0.0056 -1.9942
  141OSM   H10T15458   2.892   6.203   5.558  0.0989 -0.5122  0.4507
  141OSM   C11S15459   2.966   6.391   5.472  0.7630 -0.4542 -0.2625
  141OSM   H11S15460   3.061   6.343   5.439  0.6497 -1.8725  1.3354
  141OSM   H11T15461   3.004   6.490   5.505 -1.2503  0.7061 -1.2839
  141OSM   C12S15462   2.850   6.399   5.370  0.2828  0.6709  0.0768
  141OSM   H12S15463   2.759   6.445   5.415 -0.7424 -1.4094  0.2192
  141OSM   H12T15464   2.813   6.299   5.341 -0.9704  1.0720  0.2234
  141OSM   C13S15465   2.880   6.477   5.241  0.4718  0.2282  0.2362
  141OSM   H13S15466   2.884   6.583   5.274  2.7650  0.8882 -1.8189
  141OSM   H13T15467   2.790   6.471   5.176  0.2147  2.2150  0.3490
  141OSM   C14S15468   2.996   6.446   5.152  0.8550 -0.4742 -0.5009
  141OSM   H14S15469   2.998   6.335   5.151 -0.1252 -0.5315 -2.6895
  141OSM   H14T15470   3.079   6.487   5.213  0.3187  0.1536 -0.1788
  141OSM   C15S15471   2.974   6.501   5.005  0.6095 -0.7826 -0.6332
  141OSM   H15S15472   2.890   6.452   4.952 -0.4423 -0.8905  1.0399
  141OSM   H15T15473   3.070   6.475   4.956  2.1272 -1.3154  2.3721
  141OSM   C16S15474   2.952   6.658   4.995 -0.1152  0.1688 -0.0873
  141OSM   H16S15475   3.033   6.708   5.053  0.3197 -0.3555 -0.2390
  141OSM   H16T15476   2.856   6.686   5.044  0.3182  1.0930  0.2676
  141OSM   C17S15477   2.951   6.716   4.852 -0.0957  0.7535 -0.4562
  141OSM   H17S15478   3.045   6.673   4.810  0.0966  1.7053 -1.0049
  141OSM   H17T15479   2.976   6.824   4.856 -0.9952  1.0704 -2.4694
  141OSM   C18S15480   2.826   6.694   4.762 -0.7041 -0.7144 -0.8376
  141OSM   H18S15481   2.744   6.770   4.757 -0.2535 -0.2499 -1.4135
  141OSM   H18T15482   2.784   6.593   4.779 -0.4718 -0.4482  1.5939
  141OSM   H18U15483   2.862   6.704   4.657 -0.5933  0.3089 -0.7177
  141OSM    C1F15484   3.259   5.685   6.339 -0.1015  0.4100  0.3527
  141OSM     OF15485   3.186   5.619   6.408  0.2309  0.2116 -0.2636
  141OSM    C2F15486   3.376   5.625   6.271  0.4245  0.0364 -0.3910
  141OSM    H2F15487   3.471   5.639   6.326 -1.0220  1.9024  1.7927
  141OSM    H2G15488   3.381   5.682   6.176 -0.7183 -1.0240 -1.1187
  141OSM    C3F15489   3.340   5.478   6.251 -0.2843 -0.3902  0.0468
  141OSM    H3F15490   3.247   5.464   6.192 -0.1829  0.5290 -0.3468
  141OSM    H3G15491   3.317   5.432   6.350  1.7395 -0.2988  0.5976
  141OSM    C4F15492   3.459   5.390   6.215 -0.0693 -0.0583 -0.0579
  141OSM    H4F15493   3.438   5.281   6.209  1.2319 -0.3309  0.0058
  141OSM    H4G15494   3.537   5.409   6.292  0.3634 -2.1976  0.0893
  141OSM    C5F15495   3.529   5.423   6.079  0.2844  0.4101  0.4717
  141OSM    H5F15496   3.610   5.352   6.050 -0.2027 -0.4549  1.1908
  141OSM    H5G15497   3.591   5.515   6.081  0.9432  0.0316 -0.8630
  141OSM    C6F15498   3.432   5.428   5.964  0.8580 -0.2503  0.5491
  141OSM    H6F15499   3.369   5.518   5.952  2.0310  0.7194  1.3403
  141OSM    H6G15500   3.364   5.340   5.968  1.4389 -1.0365 -3.0336
  141OSM    C7F15501   3.507   5.422   5.821  0.6272 -0.2772  0.7100
  141OSM    H7F15502   3.569   5.331   5.812  2.5386  1.0384  0.0631
  141OSM    H7G15503   3.581   5.504   5.824  1.7596 -1.0809 -2.2309
  141OSM    C8F15504   3.405   5.428   5.701 -1.0292  0.4178  0.0831
  141OSM    H8F15505   3.324   5.498   5.731 -0.4159  1.1336  0.1226
  141OSM    H8G15506   3.360   5.327   5.693 -1.3724  0.5845 -0.1213
  141OSM    C9F15507   3.476   5.465   5.578 -0.7695  0.2584  0.1588
  141OSM    H9F15508   3.585   5.452   5.574 -1.0104 -1.6711 -1.6286
  141OSM   C10F15509   3.419   5.525   5.476  0.1372  0.4268  0.0383
  141OSM   H10F15510   3.478   5.543   5.385 -2.1196 -1.8393 -2.0465
  141OSM   C11F15511   3.264   5.545   5.459  0.0655 -0.2575  0.4582
  141OSM   H11F15512   3.242   5.650   5.429 -1.9961 -0.7844 -0.0432
  141OSM   H11G15513   3.219   5.515   5.556  1.3587 -4.5601 -0.0543
  141OSM   C12F15514   3.193   5.457   5.355  0.2027  0.1829  0.1678
  141OSM   H12F15515   3.230   5.352   5.354  1.6958  0.6694 -1.2661
  141OSM   H12G15516   3.235   5.487   5.256 -0.0808 -1.1486 -0.3823
  141OSM   C13F15517   3.041   5.467   5.347 -0.1992  0.0265 -0.4271
  141OSM   H13F15518   2.998   5.565   5.376 -0.6264 -0.4386  0.5583
  141OSM   H13G15519   3.005   5.391   5.421  3.1411  1.5674  3.1462
  141OSM   C14F15520   2.991   5.436   5.200 -0.6987 -1.0098 -0.7983
  141OSM   H14F15521   3.037   5.339   5.172  1.2410 -0.7688  1.2663
  141OSM   H14G15522   3.028   5.517   5.134 -0.5470  1.0808  1.7171
  141OSM   C15F15523   2.843   5.417   5.191  0.0918  0.7670  0.0739
  141OSM   H15F15524   2.793   5.515   5.210 -0.3671  0.4075  0.7628
  141OSM   H15G15525   2.816   5.347   5.273  1.1675 -1.1063 -1.1067
  141OSM   C16F15526   2.797   5.365   5.050 -0.2536 -0.7606  0.5969
  141OSM   H16F15527   2.807   5.255   5.041  0.5558 -0.7036  0.6663
  141OSM   H16G15528   2.846   5.416   4.964  2.8079 -2.6747  1.0294
  141OSM   C17F15529   2.645   5.399   5.034 -1.0903  0.0056  0.2975
  141OSM   H17F15530   2.621   5.506   5.055  0.5483  0.2395  1.1737
  141OSM   H17G15531   2.599   5.341   5.117 -1.8594 -0.4568 -0.4396
  141OSM   C18F15532   2.600   5.370   4.891 -0.1636 -0.1522 -1.2294
  141OSM   H18F15533   2.659   5.420   4.811 -1.7768  0.4269 -2.0790
  141OSM   H18G15534   2.494   5.395   4.871 -1.4031 -3.1741  0.9224
  141OSM   H18H15535   2.613   5.261   4.873  1.9464 -0.1306 -0.2313
  142OSM      N15536   5.165   4.888   7.029  0.5533  0.1286  0.4832
  142OSM    C1515537   5.151   4.898   6.883 -0.0730 -0.1527 -0.1789
  142OSM   H15A15538   5.218   4.964   6.830  0.2328 -1.8823 -2.0818
  142OSM   H15B15539   5.057   4.946   6.863 -0.1071 -0.0583  0.2083
  142OSM   H15C15540   5.151   4.805   6.827  2.7327  0.7712 -1.9752
  142OSM    C1415541   5.306   4.835   7.061 -0.4214 -1.0091  0.9797
  142OSM   H14A15542   5.309   4.795   7.161 -1.6615 -0.5705  1.2210
  142OSM   H14B15543   5.377   4.915   7.044 -0.8135 -0.8780 -0.1705
  142OSM   H14C15544   5.342   4.761   6.991  2.3753  0.5398  0.6466
  142OSM    C1315545   5.152   5.020   7.094 -0.3720 -0.3423 -0.3025
  142OSM   H13A15546   5.163   5.010   7.201 -1.6482  1.4249  0.0412
  142OSM   H13B15547   5.052   5.061   7.086  0.4808  1.7271 -0.8409
  142OSM   H13C15548   5.231   5.089   7.067 -0.6194  0.7882  1.7132
  142OSM    C1215549   5.066   4.792   7.080  0.6062  0.0321  0.3000
  142OSM   H12A15550   5.082   4.780   7.186 -0.7223  0.4386  0.5599
  142OSM   H12B15551   5.088   4.699   7.030  0.4993  1.2036 -2.0674
  142OSM    C1115552   4.919   4.821   7.044 -0.1224 -0.9675  0.3964
  142OSM   H11A15553   4.888   4.915   7.095 -3.7531 -1.5423 -0.4814
  142OSM   H11B15554   4.865   4.736   7.091  0.0050  0.1004  2.6099
  142OSM      P15555   4.800   4.942   6.846  0.1487 -0.3947  0.2851
  142OSM    O1315556   4.664   4.935   6.890 -0.5007  0.5838 -0.1490
  142OSM    O1415557   4.874   5.067   6.875 -0.3679 -0.7294  0.2297
  142OSM    O1115558   4.807   4.899   6.694 -0.4068  0.4687 -0.1514
  142OSM    O1215559   4.887   4.825   6.906  0.6891  0.2819  0.5186
  142OSM    C1S15560   4.925   4.894   6.623 -0.5690 -0.7431  0.5512
  142OSM    H1S15561   4.981   4.799   6.635  0.9515  0.2172  1.3130
  142OSM    H1T15562   4.997   4.977   6.638 -0.9131 -0.2050 -0.6352
  142OSM     NF15563   5.007   4.858   6.392  0.1542 -0.0082  0.3423
  142OSM    HNF15564   5.079   4.922   6.365 -0.4534  1.0772  1.2142
  142OSM    C2S15565   4.891   4.901   6.467 -0.0857  0.6836  0.2013
  142OSM    H2S15566   4.815   4.826   6.437  1.5702 -1.9866  2.1784
  142OSM    C3S15567   4.842   5.043   6.436  0.0279  0.0234 -0.0470
  142OSM    H3S15568   4.929   5.104   6.468  0.8673 -1.5650  0.8545
  142OSM     O315569   4.719   5.074   6.498  0.1708 -0.0549  0.3298
  142OSM    HO315570   4.727   5.006   6.566 -0.2338  0.2009  0.6319
  142OSM    C4S15571   4.829   5.057   6.289 -0.0420  0.5710  0.0394
  142OSM    H4S15572   4.919   5.092   6.235  0.2437 -0.7120 -0.3496
  142OSM    C5S15573   4.717   5.052   6.212  0.7129  0.7708  0.4604
  142OSM    H5S15574   4.620   5.042   6.262  0.6714  1.4499  0.5319
  142OSM    C6S15575   4.713   5.085   6.069 -0.5370 -0.1561  0.0082
  142OSM    H6S15576   4.665   5.183   6.047  0.5281  0.7882  1.6477
  142OSM    H6T15577   4.649   5.006   6.026 -1.7186  0.0468  1.3346
  142OSM    C7S15578   4.843   5.086   5.982 -0.5201 -0.3084 -0.6903
  142OSM    H7S15579   4.907   4.998   6.004 -0.6974  0.0142  1.2987
  142OSM    H7T15580   4.893   5.184   5.997 -3.7879  1.1815  1.8358
  142OSM    C8S15581   4.807   5.078   5.833  0.4794 -0.1070 -0.3843
  142OSM    H8S15582   4.733   5.159   5.815 -1.0251 -1.1180  0.9195
  142OSM    H8T15583   4.762   4.979   5.807  2.2526 -0.6670 -1.5644
  142OSM    C9S15584   4.926   5.092   5.745 -1.0423 -0.7588 -0.0750
  142OSM    H9S15585   5.012   5.023   5.760 -0.7149 -0.2075  0.6552
  142OSM    H9T15586   4.969   5.194   5.751  0.8510 -1.2551 -2.9757
  142OSM   C10S15587   4.900   5.080   5.593 -1.0113 -0.6311  0.5269
  142OSM   H10S15588   4.819   5.153   5.572 -0.0208  1.0642  2.2556
  142OSM   H10T15589   4.859   4.979   5.571 -1.3470 -0.5130  0.6049
  142OSM   C11S15590   5.018   5.095   5.500 -0.3711  0.0109  0.0153
  142OSM   H11S15591   5.099   5.020   5.517  0.4293  0.7070 -0.6693
  142OSM   H11T15592   5.057   5.197   5.521  0.2949  0.0015 -1.1239
  142OSM   C12S15593   4.997   5.087   5.349 -0.3751 -0.5551  0.4973
  142OSM   H12S15594   4.935   5.169   5.307 -1.0041 -0.3522  1.7719
  142OSM   H12T15595   4.942   4.994   5.324 -2.0377  0.6854 -0.6567
  142OSM   C13S15596   5.132   5.098   5.278 -0.2238  0.1065 -0.3560
  142OSM   H13S15597   5.192   5.007   5.300 -1.2056 -1.0332 -2.1512
  142OSM   H13T15598   5.196   5.185   5.304 -1.3245  0.5549  0.9064
  142OSM   C14S15599   5.101   5.090   5.129 -0.1352 -0.1117 -0.6059
  142OSM   H14S15600   5.007   5.147   5.112  0.0098  0.5117  0.5630
  142OSM   H14T15601   5.076   4.985   5.103 -2.0104  0.2410 -0.3730
  142OSM   C15S15602   5.223   5.150   5.049  0.2462 -0.3131  1.1596
  142OSM   H15S15603   5.316   5.091   5.059  1.6188  1.0302 -2.2509
  142OSM   H15T15604   5.250   5.250   5.090  1.3039  0.3136 -0.9357
  142OSM   C16S15605   5.193   5.160   4.900  0.7960 -0.0998  0.8959
  142OSM   H16S15606   5.087   5.193   4.892  0.5722 -0.8360  0.7491
  142OSM   H16T15607   5.198   5.059   4.854 -1.0662 -0.2577  0.9669
  142OSM   C17S15608   5.286   5.257   4.829 -0.1953 -0.1134 -0.6829
  142OSM   H17S15609   5.291   5.352   4.885 -0.1225  1.2369 -2.8812
  142OSM   H17T15610   5.243   5.291   4.733 -0.0625  0.2423 -0.6183
  142OSM   C18S15611   5.428   5.201   4.799  0.4909  0.3816 -0.3555
  142OSM   H18S15612   5.501   5.277   4.766  1.6408  0.0140  1.1723
  142OSM   H18T15613   5.426   5.114   4.730  1.2690  0.4443 -0.4672
  142OSM   H18U15614   5.462   5.154   4.894 -1.0722 -0.8858 -0.3662
  142OSM    C1F15615   5.046   4.733   6.391 -0.0266 -0.1465  0.0578
  142OSM     OF15616   4.995   4.644   6.460 -0.1406  0.2222  0.1907
  142OSM    C2F15617   5.167   4.701   6.316  0.5629 -0.1831 -0.6739
  142OSM    H2F15618   5.236   4.653   6.389  0.3104 -0.1334 -0.4003
  142OSM    H2G15619   5.204   4.799   6.278 -1.4586  1.0062  0.2695
  142OSM    C3F15620   5.142   4.593   6.209  0.5252  0.9364 -0.7178
  142OSM    H3F15621   5.054   4.622   6.148  1.4290  0.7120 -2.1882
  142OSM    H3G15622   5.116   4.495   6.253  0.1002  0.8296 -1.1963
  142OSM    C4F15623   5.266   4.557   6.124  0.3130 -0.0016  0.3200
  142OSM    H4F15624   5.270   4.447   6.108  0.8773 -0.0977  1.0372
  142OSM    H4G15625   5.356   4.593   6.179  0.7088  0.0145 -0.3328
  142OSM    C5F15626   5.255   4.629   5.985  0.1960 -0.3987 -0.2100
  142OSM    H5F15627   5.356   4.647   5.942 -0.3648  1.8917 -0.7087
  142OSM    H5G15628   5.233   4.735   6.008  2.0421 -0.2790  1.2455
  142OSM    C6F15629   5.147   4.583   5.890  0.4497 -0.4315  0.9506
  142OSM    H6F15630   5.052   4.568   5.948 -0.3580  0.4031 -0.1277
  142OSM    H6G15631   5.173   4.477   5.869  0.9422 -0.1308  0.0082
  142OSM    C7F15632   5.133   4.667   5.764 -0.1695 -1.4966  0.6473
  142OSM    H7F15633   5.131   4.773   5.795  2.5354 -1.3224  0.4687
  142OSM    H7G15634   5.047   4.635   5.701  1.7215 -2.8337 -1.4262
  142OSM    C8F15635   5.253   4.656   5.667  0.2080  0.3534  0.4102
  142OSM    H8F15636   5.339   4.711   5.710  1.2686  1.8536 -3.1813
  142OSM    H8G15637   5.221   4.724   5.584 -0.4947  0.9199  1.1305
  142OSM    C9F15638   5.276   4.514   5.613 -0.0413 -0.3864 -0.0713
  142OSM    H9F15639   5.346   4.456   5.675 -0.0336 -0.5421 -0.2231
  142OSM   C10F15640   5.193   4.474   5.517 -0.8521 -0.6993 -0.2056
  142OSM   H10F15641   5.206   4.371   5.481 -1.0615 -0.6385 -0.4524
  142OSM   C11F15642   5.085   4.552   5.442 -0.3948  0.3306 -0.0762
  142OSM   H11F15643   5.088   4.660   5.465 -2.1031  0.0723  1.6811
  142OSM   H11G15644   4.991   4.498   5.469  0.9668 -2.4408 -0.4378
  142OSM   C12F15645   5.119   4.524   5.295 -0.1018 -0.0975  0.3509
  142OSM   H12F15646   5.128   4.415   5.275  3.9165  0.0369  0.5322
  142OSM   H12G15647   5.218   4.572   5.277  1.0059 -2.4544 -0.3373
  142OSM   C13F15648   5.018   4.594   5.199  0.9292 -0.0197 -0.2123
  142OSM   H13F15649   4.975   4.679   5.257 -1.0248 -1.0914 -0.0192
  142OSM   H13G15650   4.930   4.526   5.187  1.8535 -0.9844 -1.9675
  142OSM   C14F15651   5.076   4.636   5.065 -0.1630 -0.0754  0.0894
  142OSM   H14F15652   5.127   4.547   5.023  1.7179  0.4924  1.0468
  142OSM   H14G15653   5.151   4.718   5.072 -0.4675  0.3682 -1.5885
  142OSM   C15F15654   4.960   4.686   4.972  0.8736 -0.2970 -0.7041
  142OSM   H15F15655   4.925   4.788   4.996 -1.9840 -1.1589 -0.8803
  142OSM   H15G15656   4.883   4.608   4.989  3.2389 -2.3897  1.1509
  142OSM   C16F15657   4.999   4.689   4.826 -0.0198 -0.8226  0.5354
  142OSM   H16F15658   4.938   4.624   4.760  0.5063  0.9967 -1.9027
  142OSM   H16G15659   5.102   4.646   4.819  1.1216  1.6437  1.1306
  142OSM   C17F15660   4.995   4.834   4.773  0.1254  0.0596  0.5513
  142OSM   H17F15661   5.046   4.902   4.845 -0.1470  2.3920 -1.3308
  142OSM   H17G15662   4.890   4.869   4.768  0.2971  0.7765  1.5580
  142OSM   C18F15663   5.064   4.834   4.640 -0.5848 -0.4790  0.1022
  142OSM   H18F15664   5.055   4.935   4.594  1.0262 -0.6423 -0.6355
  142OSM   H18G15665   5.024   4.764   4.564  1.6704 -1.5634 -0.1558
  142OSM   H18H15666   5.171   4.812   4.656 -0.0311  0.8290 -1.5257
  143OSM      N15667   4.486   6.722   7.259 -0.2922  0.0895 -0.1879
  143OSM    C1515668   4.613   6.741   7.333  0.5355  0.0448 -0.3529
  143OSM   H15A15669   4.662   6.831   7.301  1.1839  0.2297  1.0857
  143OSM   H15B15670   4.676   6.654   7.320  0.3468 -0.3906  1.4027
  143OSM   H15C15671   4.587   6.746   7.438  1.1912 -0.0851 -0.1776
  143OSM    C1415672   4.427   6.590   7.288  0.2213  0.0286 -0.4943
  143OSM   H14A15673   4.419   6.576   7.395 -0.0795 -1.2604 -0.6638
  143OSM   H14B15674   4.494   6.510   7.258  1.7820  1.2027 -0.2655
  143OSM   H14C15675   4.333   6.575   7.238  1.0816  0.5489 -2.3404
  143OSM    C1315676   4.389   6.835   7.299 -0.6247 -0.0135  0.2272
  143OSM   H13A15677   4.295   6.831   7.245  0.5562 -0.2443 -1.9437
  143OSM   H13B15678   4.442   6.925   7.272 -0.9713 -0.6975 -3.2226
  143OSM   H13C15679   4.375   6.839   7.406  1.2060  3.0846  0.4637
  143OSM    C1215680   4.512   6.727   7.113  0.1219 -0.3448  0.0740
  143OSM   H12A15681   4.427   6.694   7.054  0.7019 -1.3345 -0.2502
  143OSM   H12B15682   4.594   6.659   7.093  0.0488 -0.8393  1.3854
  143OSM    C1115683   4.555   6.863   7.049 -0.5180  0.1901 -0.5513
  143OSM   H11A15684   4.485   6.945   7.075  2.0617  2.1665  0.5283
  143OSM   H11B15685   4.562   6.851   6.939  0.9568  0.2166 -0.4695
  143OSM      P15686   4.713   7.054   7.127 -0.2651 -0.0337  0.1826
  143OSM    O1315687   4.651   7.100   7.250  0.2425  0.1364 -0.5165
  143OSM    O1415688   4.861   7.073   7.121 -0.3472  0.3758  0.3310
  143OSM    O1115689   4.653   7.128   7.003 -0.2180  0.0915  0.5981
  143OSM    O1215690   4.679   6.891   7.095  0.7526 -0.6783 -0.4397
  143OSM    C1S15691   4.707   7.141   6.874  0.4074  0.1705  0.2088
  143OSM    H1S15692   4.769   7.051   6.852  0.0250 -0.5096  1.7501
  143OSM    H1T15693   4.760   7.238   6.872 -1.7606  1.4057 -0.7500
  143OSM     NF15694   4.673   7.138   6.636  0.9984 -0.0714 -0.3787
  143OSM    HNF15695   4.719   7.216   6.594 -0.5195  2.3945  2.1546
  143OSM    C2S15696   4.602   7.157   6.763  0.0764 -0.3785 -0.1402
  143OSM    H2S15697   4.532   7.071   6.776  1.9477 -2.6222 -3.4562
  143OSM    C3S15698   4.531   7.288   6.779  0.2499 -0.3533  0.0183
  143OSM    H3S15699   4.613   7.361   6.764 -1.6476  1.7814 -0.6513
  143OSM     O315700   4.483   7.319   6.910  0.1977 -0.4187  0.1755
  143OSM    HO315701   4.519   7.243   6.955  1.6488 -0.4345 -0.9324
  143OSM    C4S15702   4.430   7.317   6.679 -0.5499 -0.2009 -0.1404
  143OSM    H4S15703   4.351   7.241   6.675  0.5544 -1.4954  1.6296
  143OSM    C5S15704   4.446   7.415   6.589  0.2561  0.0083 -0.8357
  143OSM    H5S15705   4.535   7.478   6.601  0.2666 -0.2412  0.6742
  143OSM    C6S15706   4.349   7.445   6.476 -0.5340  0.3707  0.8680
  143OSM    H6S15707   4.330   7.554   6.475 -0.9773  0.3508 -2.2683
  143OSM    H6T15708   4.246   7.404   6.487 -0.6345  0.7193  1.2440
  143OSM    C7S15709   4.417   7.412   6.338 -0.5769 -0.3825  0.3799
  143OSM    H7S15710   4.421   7.302   6.321  2.2910 -0.4854  1.2423
  143OSM    H7T15711   4.522   7.448   6.346 -0.8516  0.0776  2.8583
  143OSM    C8S15712   4.351   7.488   6.227 -0.0292 -0.2064 -0.0780
  143OSM    H8S15713   4.362   7.596   6.251  0.6644 -0.2673 -0.1067
  143OSM    H8T15714   4.243   7.464   6.220  0.5499 -2.4919 -2.9566
  143OSM    C9S15715   4.396   7.462   6.084  0.3414 -0.2803 -0.2696
  143OSM    H9S15716   4.393   7.355   6.058 -0.2441  0.1028 -1.9071
  143OSM    H9T15717   4.497   7.506   6.074 -1.1554  3.9885  0.9844
  143OSM   C10S15718   4.296   7.517   5.981 -0.6432 -0.2069 -0.0916
  143OSM   H10S15719   4.287   7.625   6.005  1.1206 -0.0767  0.1138
  143OSM   H10T15720   4.201   7.463   6.006 -0.6878 -0.0158  0.1622
  143OSM   C11S15721   4.347   7.505   5.841 -0.0722  0.1863  0.3683
  143OSM   H11S15722   4.362   7.400   5.808 -0.6381 -0.0651  0.9070
  143OSM   H11T15723   4.447   7.555   5.846  0.6827 -1.2715  0.3551
  143OSM   C12S15724   4.247   7.553   5.736  0.1293  0.0680  0.3374
  143OSM   H12S15725   4.218   7.660   5.748 -1.2999 -0.1222 -1.0700
  143OSM   H12T15726   4.159   7.485   5.742  0.5244 -1.1952 -4.1877
  143OSM   C13S15727   4.301   7.538   5.594 -0.1418  0.3602 -0.1740
  143OSM   H13S15728   4.325   7.432   5.572  0.6027  0.8485 -1.9352
  143OSM   H13T15729   4.401   7.587   5.597 -0.3332  0.8265 -1.0375
  143OSM   C14S15730   4.210   7.588   5.480  0.0461  0.3940 -0.0254
  143OSM   H14S15731   4.181   7.694   5.497 -0.8515  0.0092  0.9093
  143OSM   H14T15732   4.113   7.534   5.481  0.6946 -0.8235 -0.4114
  143OSM   C15S15733   4.283   7.583   5.348  1.4301 -0.1360  0.8046
  143OSM   H15S15734   4.291   7.476   5.320 -0.6005 -1.0077  3.2558
  143OSM   H15T15735   4.382   7.627   5.372  0.1855  1.0283  4.6222
  143OSM   C16S15736   4.207   7.672   5.244 -0.6466 -0.5779 -0.4222
  143OSM   H16S15737   4.194   7.773   5.288 -1.7805 -1.4680  1.4123
  143OSM   H16T15738   4.105   7.630   5.226 -0.9185 -0.3373  0.5155
  143OSM   C17S15739   4.283   7.667   5.112 -0.7447 -0.0265  0.5189
  143OSM   H17S15740   4.302   7.562   5.082  0.4795  0.9178 -2.3802
  143OSM   H17T15741   4.389   7.696   5.129 -1.5244  2.7892  1.1804
  143OSM   C18S15742   4.233   7.752   5.002 -0.0972  0.2691 -0.5261
  143OSM   H18S15743   4.122   7.751   5.014 -0.1087  1.5263 -0.4203
  143OSM   H18T15744   4.251   7.713   4.900  0.5310 -2.7528  0.6177
  143OSM   H18U15745   4.267   7.856   5.021 -0.4793  0.5293 -1.2354
  143OSM    C1F15746   4.707   7.019   6.594 -0.4732  0.1434  1.0251
  143OSM     OF15747   4.684   6.911   6.653  0.5403 -0.9146  0.3091
  143OSM    C2F15748   4.784   7.020   6.466  0.7864  0.7696 -0.7403
  143OSM    H2F15749   4.784   6.916   6.428  1.5980  0.5403 -0.1441
  143OSM    H2G15750   4.881   7.069   6.490  0.3399  0.7612  1.2036
  143OSM    C3F15751   4.717   7.115   6.362 -0.6713  0.3647 -0.0367
  143OSM    H3F15752   4.733   7.217   6.403  2.1588  0.4708 -1.1336
  143OSM    H3G15753   4.608   7.097   6.352 -0.1435 -2.8621 -1.1361
  143OSM    C4F15754   4.778   7.121   6.217 -0.5062  0.2537  0.5880
  143OSM    H4F15755   4.779   7.012   6.198 -0.7212  0.3651 -0.0909
  143OSM    H4G15756   4.879   7.169   6.220  0.7364 -1.9403 -1.9091
  143OSM    C5F15757   4.697   7.200   6.111  0.1511  0.3107 -0.3583
  143OSM    H5F15758   4.710   7.309   6.129 -0.9794  0.2716  0.8172
  143OSM    H5G15759   4.589   7.195   6.136  0.0176 -0.4420 -1.0413
  143OSM    C6F15760   4.718   7.158   5.957  0.6308  0.3584 -0.4150
  143OSM    H6F15761   4.684   7.055   5.932 -0.6141  1.1681 -2.3816
  143OSM    H6G15762   4.827   7.147   5.943  0.5236 -0.5717 -0.5865
  143OSM    C7F15763   4.647   7.251   5.858  0.8111  0.0491 -0.3071
  143OSM    H7F15764   4.671   7.354   5.894 -3.2341  0.5207  1.7391
  143OSM    H7G15765   4.539   7.227   5.867  1.0349 -1.3488 -1.1115
  143OSM    C8F15766   4.691   7.210   5.719 -0.0013  0.1206 -0.2207
  143OSM    H8F15767   4.661   7.104   5.707  1.0578 -0.0076 -2.2886
  143OSM    H8G15768   4.802   7.218   5.721  0.0205  3.4212  4.9551
  143OSM    C9F15769   4.633   7.310   5.614  0.3014  0.0188 -0.3149
  143OSM    H9F15770   4.681   7.409   5.612 -1.1996  0.7601 -1.1333
  143OSM   C10F15771   4.538   7.285   5.529 -0.4369  0.0831 -0.2613
  143OSM   H10F15772   4.494   7.365   5.468 -2.3022  1.9059  3.1854
  143OSM   C11F15773   4.473   7.150   5.514 -0.3201 -0.4740 -0.2014
  143OSM   H11F15774   4.365   7.170   5.497  0.0942  0.3503 -2.1871
  143OSM   H11G15775   4.481   7.087   5.605 -0.1997 -0.1904 -0.0152
  143OSM   C12F15776   4.527   7.065   5.393 -0.5650 -0.8557  0.1706
  143OSM   H12F15777   4.486   6.963   5.404 -1.5632 -0.6912 -1.6454
  143OSM   H12G15778   4.635   7.053   5.414 -0.2629  1.9471  0.7017
  143OSM   C13F15779   4.480   7.118   5.253 -0.0407 -0.8854 -0.1403
  143OSM   H13F15780   4.475   7.228   5.262 -0.2341 -1.0744  3.7638
  143OSM   H13G15781   4.374   7.089   5.238  0.3305 -3.4409  1.5221
  143OSM   C14F15782   4.586   7.080   5.153  0.3350 -0.2942  0.8949
  143OSM   H14F15783   4.605   6.971   5.158 -0.5313 -0.3922  2.3275
  143OSM   H14G15784   4.681   7.130   5.181 -1.3198  2.7382  1.5734
  143OSM   C15F15785   4.539   7.115   5.011  0.4069  0.3273  0.2628
  143OSM   H15F15786   4.494   7.216   5.020 -1.7816 -0.4564 -0.9571
  143OSM   H15G15787   4.452   7.053   4.978 -0.5467  2.1510 -0.8241
  143OSM   C16F15788   4.644   7.111   4.905  0.3911  0.6399 -1.1615
  143OSM   H16F15789   4.678   7.008   4.881 -2.2820 -0.8900  1.1217
  143OSM   H16G15790   4.731   7.155   4.958 -0.8844  0.4823  1.1729
  143OSM   C17F15791   4.605   7.162   4.770  0.6192 -0.1417  0.6304
  143OSM   H17F15792   4.573   7.268   4.776  1.9603  0.3357 -0.1666
  143OSM   H17G15793   4.520   7.107   4.724  0.0549  2.2274 -1.3618
  143OSM   C18F15794   4.718   7.152   4.664  0.4734  0.1542 -0.0847
  143OSM   H18F15795   4.759   7.049   4.660  0.0776 -0.0108  0.0474
  143OSM   H18G15796   4.799   7.226   4.684  0.3348  0.3995 -0.4156
  143OSM   H18H15797   4.692   7.183   4.560  2.5072  1.6547 -0.2112
  144OSM      N15798   3.549   5.907   6.968 -0.3560  0.5994 -0.4274
  144OSM    C1515799   3.569   5.792   6.871  0.3175 -0.0095 -0.1742
  144OSM   H15A15800   3.481   5.730   6.859 -0.2567  0.7133  0.2531
  144OSM   H15B15801   3.649   5.724   6.897  1.1736  0.8844 -0.4366
  144OSM   H15C15802   3.583   5.833   6.773 -2.0752 -0.7283 -0.9056
  144OSM    C1415803   3.440   6.001   6.918 -0.4203 -0.8831 -0.2313
  144OSM   H14A15804   3.343   5.954   6.912 -1.4926  1.3508 -1.2603
  144OSM   H14B15805   3.466   6.030   6.817 -0.4395 -1.3607 -0.3794
  144OSM   H14C15806   3.452   6.096   6.967  1.8998  0.6571 -3.4125
  144OSM    C1315807   3.506   5.842   7.094 -0.3918 -0.1606 -0.4748
  144OSM   H13A15808   3.586   5.796   7.150 -1.5587 -1.5598  0.1201
  144OSM   H13B15809   3.433   5.764   7.078 -0.4721 -1.1519  3.6361
  144OSM   H13C15810   3.457   5.910   7.163  1.2845 -0.6883  1.3158
  144OSM    C1215811   3.678   5.987   6.981  0.2836 -0.1973  0.0732
  144OSM   H12A15812   3.700   6.028   6.884  3.1155 -0.9054  0.3173
  144OSM   H12B15813   3.763   5.921   6.993 -0.1679 -0.8567 -0.3095
  144OSM    C1115814   3.681   6.094   7.093 -0.7343 -0.3248 -0.7865
  144OSM   H11A15815   3.785   6.131   7.108 -0.7843 -0.3824 -0.2722
  144OSM   H11B15816   3.640   6.062   7.191  2.1577  0.5583  0.8427
  144OSM      P15817   3.627   6.296   6.943  0.1937 -0.1817 -0.0772
  144OSM    O1315818   3.698   6.417   6.992 -0.3291  0.1229  0.3578
  144OSM    O1415819   3.699   6.226   6.833  0.6029  0.1584  0.7407
  144OSM    O1115820   3.479   6.344   6.894  0.2960  0.0755  0.1538
  144OSM    O1215821   3.597   6.202   7.057  0.1474 -0.4900  0.1290
  144OSM    C1S15822   3.480   6.419   6.775 -0.4361  0.8248  0.0044
  144OSM    H1S15823   3.575   6.412   6.718 -0.2146 -0.8597  0.5343
  144OSM    H1T15824   3.471   6.524   6.812 -2.4008  0.5894  0.3042
  144OSM     NF15825   3.371   6.467   6.555 -0.4459  0.0616  0.2758
  144OSM    HNF15826   3.319   6.550   6.540 -0.2010  0.1501 -0.0949
  144OSM    C2S15827   3.356   6.394   6.680  0.1699  0.3984  0.1344
  144OSM    H2S15828   3.352   6.285   6.657 -0.3189  0.5360 -0.4552
  144OSM    C3S15829   3.221   6.432   6.752 -0.3597 -0.2458 -0.4085
  144OSM    H3S15830   3.229   6.533   6.798  2.5443 -0.5078 -0.1599
  144OSM     O315831   3.189   6.352   6.864 -0.4069  0.0294 -0.8012
  144OSM    HO315832   3.276   6.320   6.887 -0.2578 -1.1600 -2.7674
  144OSM    C4S15833   3.109   6.431   6.663  0.0853  0.1822  0.3818
  144OSM    H4S15834   3.074   6.329   6.643 -1.4146  0.6137  0.6512
  144OSM    C5S15835   3.046   6.543   6.622 -0.2696 -0.0275  0.5525
  144OSM    H5S15836   3.092   6.641   6.642  0.0183  0.5885 -2.6373
  144OSM    C6S15837   2.925   6.535   6.533 -0.5920  0.4428 -0.1468
  144OSM    H6S15838   2.828   6.566   6.578 -1.3411 -1.9039  0.0261
  144OSM    H6T15839   2.916   6.430   6.496  1.0870  0.4767 -0.7057
  144OSM    C7S15840   2.946   6.615   6.398  0.2303  0.4575 -0.8099
  144OSM    H7S15841   2.973   6.716   6.434  1.2984 -0.3443  0.7057
  144OSM    H7T15842   2.843   6.622   6.355 -0.4590  0.7827  0.8211
  144OSM    C8S15843   3.039   6.548   6.298 -0.4330  0.1168 -0.4815
  144OSM    H8S15844   3.015   6.439   6.300  2.5759 -0.6311  1.6169
  144OSM    H8T15845   3.146   6.549   6.326 -0.5913  0.6176  0.1190
  144OSM    C9S15846   3.023   6.586   6.148  0.4405 -0.0879  0.3211
  144OSM    H9S15847   2.918   6.608   6.117 -0.6315 -2.5630  1.8024
  144OSM    H9T15848   3.067   6.500   6.094  0.2029 -0.4249  0.6575
  144OSM   C10S15849   3.113   6.709   6.101  0.4985 -0.8678 -0.2835
  144OSM   H10S15850   3.220   6.683   6.110  0.7493 -0.6233 -2.0429
  144OSM   H10T15851   3.087   6.799   6.161 -0.8182 -0.6101 -1.1860
  144OSM   C11S15852   3.093   6.738   5.950  0.1026 -0.6987 -0.5935
  144OSM   H11S15853   2.985   6.748   5.926 -0.1414 -0.4076  0.5462
  144OSM   H11T15854   3.130   6.649   5.895  2.9289 -0.1437  0.2350
  144OSM   C12S15855   3.171   6.860   5.892  0.3150  0.2867 -0.5828
  144OSM   H12S15856   3.272   6.857   5.939  0.3181 -0.6325 -0.6370
  144OSM   H12T15857   3.123   6.956   5.923 -2.2901 -0.7881 -0.9955
  144OSM   C13S15858   3.190   6.865   5.741  0.0065 -0.8139  0.2114
  144OSM   H13S15859   3.264   6.792   5.701  0.5354 -0.5753  0.7524
  144OSM   H13T15860   3.235   6.957   5.700  0.1482 -1.5591 -1.3763
  144OSM   C14S15861   3.060   6.845   5.659 -0.4162  0.0650  0.0887
  144OSM   H14S15862   2.995   6.917   5.714  0.4027 -1.2126  2.9090
  144OSM   H14T15863   3.013   6.747   5.681  0.3477 -0.2272  0.4686
  144OSM   C15S15864   3.069   6.879   5.516 -0.5232 -0.1425 -0.5437
  144OSM   H15S15865   3.127   6.973   5.508 -0.3247 -0.3198 -1.3043
  144OSM   H15T15866   2.964   6.893   5.485 -0.0633 -0.5824 -2.4273
  144OSM   C16S15867   3.139   6.772   5.423 -0.4969 -0.5994  0.2561
  144OSM   H16S15868   3.111   6.670   5.456 -1.0642  0.3266  2.8487
  144OSM   H16T15869   3.250   6.771   5.435 -0.4057 -0.6351 -0.5396
  144OSM   C17S15870   3.102   6.787   5.278  0.3267  0.3376  0.2896
  144OSM   H17S15871   2.995   6.761   5.262  0.6970 -2.0205  1.2888
  144OSM   H17T15872   3.167   6.712   5.228  0.8216  0.9197  0.0337
  144OSM   C18S15873   3.139   6.925   5.214 -0.1473 -0.1248  0.3834
  144OSM   H18S15874   3.070   7.002   5.254  1.7266  1.8646 -0.0144
  144OSM   H18T15875   3.123   6.924   5.104 -1.1534  1.5614  0.4754
  144OSM   H18U15876   3.243   6.961   5.229  0.4512 -0.6103 -2.0967
  144OSM    C1F15877   3.442   6.408   6.453  0.6622  0.5197 -0.3661
  144OSM     OF15878   3.508   6.309   6.475 -0.2219  0.6957 -0.7290
  144OSM    C2F15879   3.440   6.472   6.317  0.2108 -0.7281 -1.0318
  144OSM    H2F15880   3.542   6.497   6.282  1.5592 -4.0718  0.1776
  144OSM    H2G15881   3.399   6.575   6.321  0.4322 -0.6815  0.5305
  144OSM    C3F15882   3.381   6.390   6.209 -0.2928  0.6375  0.0452
  144OSM    H3F15883   3.273   6.374   6.229  0.0982  1.3160  3.0845
  144OSM    H3G15884   3.421   6.287   6.197 -0.8050  0.3754  0.5044
  144OSM    C4F15885   3.386   6.463   6.068  0.1077 -0.0256  0.3271
  144OSM    H4F15886   3.398   6.572   6.082 -0.1700 -0.1254  1.4626
  144OSM    H4G15887   3.284   6.443   6.029 -0.2478  3.4329 -0.8585
  144OSM    C5F15888   3.488   6.393   5.975  0.3787  0.5317 -0.4989
  144OSM    H5F15889   3.475   6.283   5.959  1.2737  0.5574 -1.5070
  144OSM    H5G15890   3.586   6.417   6.020  1.6425 -0.8387 -2.3626
  144OSM    C6F15891   3.485   6.449   5.834  0.2004  0.1914  0.4524
  144OSM    H6F15892   3.574   6.404   5.785  0.6223  0.8890  0.5501
  144OSM    H6G15893   3.502   6.559   5.836  0.2324  0.1800  1.7913
  144OSM    C7F15894   3.372   6.389   5.748  0.3242  1.2353  0.2450
  144OSM    H7F15895   3.280   6.445   5.777 -1.0185  0.6501 -2.5745
  144OSM    H7G15896   3.361   6.284   5.782 -0.5105  0.4513 -2.2391
  144OSM    C8F15897   3.395   6.375   5.596  0.2621 -0.1884 -0.0168
  144OSM    H8F15898   3.310   6.332   5.538 -0.5140  1.4940 -0.1801
  144OSM    H8G15899   3.483   6.308   5.585  0.8390  0.4006  0.9595
  144OSM    C9F15900   3.415   6.511   5.532 -0.4500  0.1046  0.1611
  144OSM    H9F15901   3.375   6.595   5.590  1.1582  1.4752 -0.6209
  144OSM   C10F15902   3.500   6.545   5.434  0.5897 -0.0823  0.1452
  144OSM   H10F15903   3.510   6.649   5.401  1.5771 -0.4948 -0.9219
  144OSM   C11F15904   3.568   6.443   5.344  0.2586 -0.4285  0.7031
  144OSM   H11F15905   3.544   6.336   5.365  2.0100 -0.3974  3.2849
  144OSM   H11G15906   3.678   6.449   5.354  0.1173  0.1327  2.3155
  144OSM   C12F15907   3.537   6.469   5.189  0.7479  0.2279  0.0931
  144OSM   H12F15908   3.623   6.424   5.134 -0.3169 -0.5570 -0.9919
  144OSM   H12G15909   3.538   6.577   5.163  1.3465  0.4814  1.1296
  144OSM   C13F15910   3.406   6.407   5.140  0.2907  0.1102  0.7130
  144OSM   H13F15911   3.334   6.490   5.149 -0.8555 -0.8154  0.3380
  144OSM   H13G15912   3.368   6.321   5.200  0.4122  0.1618  0.8650
  144OSM   C14F15913   3.414   6.370   4.990 -0.4358  0.1430 -0.2819
  144OSM   H14F15914   3.308   6.361   4.958  0.0146  0.6277 -2.0023
  144OSM   H14G15915   3.464   6.271   4.981 -0.2947  0.1438  0.4471
  144OSM   C15F15916   3.471   6.483   4.897  0.5356 -0.3860 -0.0712
  144OSM   H15F15917   3.493   6.434   4.800 -0.2225 -0.8796 -0.0061
  144OSM   H15G15918   3.560   6.534   4.939  0.1027 -1.9865  3.0762
  144OSM   C16F15919   3.371   6.596   4.886 -0.1770  0.0476 -1.1460
  144OSM   H16F15920   3.352   6.633   4.989  1.1625 -3.6954  0.6302
  144OSM   H16G15921   3.271   6.561   4.852 -1.8142  1.9321  1.4113
  144OSM   C17F15922   3.409   6.708   4.786  0.2049 -0.0007 -0.1912
  144OSM   H17F15923   3.441   6.649   4.697  3.7231  0.0396  0.9026
  144OSM   H17G15924   3.503   6.764   4.809  0.7976 -0.9597 -0.2246
  144OSM   C18F15925   3.295   6.801   4.757  0.5251 -1.0956  0.1982
  144OSM   H18F15926   3.322   6.906   4.737 -2.0422 -0.4486 -0.2367
  144OSM   H18G15927   3.236   6.814   4.850  2.0252 -0.0618  1.0470
  144OSM   H18H15928   3.231   6.757   4.677  1.3639 -0.8289 -0.6330
  145OSM      N15929   6.125   4.331   7.410 -0.7272  0.9475 -0.6251
  145OSM    C1515930   6.141   4.183   7.423  0.1859 -0.7102  0.3085
  145OSM   H15A15931   6.209   4.164   7.504  0.3684  0.3208  0.4099
  145OSM   H15B15932   6.185   4.139   7.334 -1.1706 -0.2108 -0.6435
  145OSM   H15C15933   6.053   4.133   7.459  1.0683 -1.1293  1.9686
  145OSM    C1415934   6.077   4.388   7.538  0.2929  0.6737 -0.2410
  145OSM   H14A15935   5.981   4.343   7.560 -0.2837  1.5935 -0.7979
  145OSM   H14B15936   6.063   4.494   7.521  2.4143  0.7205 -2.1733
  145OSM   H14C15937   6.140   4.373   7.624 -0.1315  0.5829  0.0617
  145OSM    C1315938   6.271   4.375   7.398  0.7582 -0.1535  0.0391
  145OSM   H13A15939   6.301   4.367   7.295  1.0636 -0.8449  0.1788
  145OSM   H13B15940   6.334   4.306   7.452 -0.6294 -0.4282  1.3812
  145OSM   H13C15941   6.274   4.474   7.441 -1.0239  0.0018 -0.1179
  145OSM    C1215942   6.035   4.373   7.299 -0.2924 -0.3511 -0.0037
  145OSM   H12A15943   6.040   4.480   7.284  0.8795 -0.2008  1.3405
  145OSM   H12B15944   5.937   4.335   7.324  0.0196 -1.3510 -0.2265
  145OSM    C1115945   6.072   4.317   7.162 -0.0851 -0.0377  0.5252
  145OSM   H11A15946   5.981   4.310   7.098  0.4392  0.5184 -0.3104
  145OSM   H11B15947   6.106   4.213   7.176  0.1652 -0.1513 -0.7913
  145OSM      P15948   6.153   4.545   7.048  0.2117  0.0777 -0.4812
  145OSM    O1315949   6.045   4.612   7.127  0.3122 -0.3299 -0.5447
  145OSM    O1415950   6.289   4.605   7.051  0.0322  0.6673  0.8949
  145OSM    O1115951   6.112   4.513   6.901 -0.0361 -0.2182 -0.3543
  145OSM    O1215952   6.178   4.394   7.102 -0.7186 -0.0183 -0.1961
  145OSM    C1S15953   6.161   4.412   6.827  0.4203 -0.1289 -0.5345
  145OSM    H1S15954   6.154   4.316   6.883  1.4216  0.4138  0.5773
  145OSM    H1T15955   6.269   4.431   6.811  0.2192  0.8213 -0.8612
  145OSM     NF15956   6.159   4.283   6.620 -0.1231  0.4133  0.0041
  145OSM    HNF15957   6.249   4.297   6.579  1.0753  0.9853  2.6748
  145OSM    C2S15958   6.102   4.400   6.686  0.0726  0.1675  0.3365
  145OSM    H2S15959   5.991   4.389   6.692 -0.0469 -0.9940 -2.5302
  145OSM    C3S15960   6.131   4.533   6.607  0.2945 -0.1276  0.4615
  145OSM    H3S15961   6.241   4.547   6.608  0.0694  1.9381  0.0580
  145OSM     O315962   6.089   4.651   6.682 -0.0347  0.3884  0.3423
  145OSM    HO315963   6.081   4.621   6.773  0.7066 -1.1747 -0.0647
  145OSM    C4S15964   6.087   4.523   6.459 -0.5725  0.3555 -0.1688
  145OSM    H4S15965   6.167   4.471   6.404 -1.3428 -2.7821  1.4323
  145OSM    C5S15966   5.975   4.553   6.391 -0.2712 -0.2248 -0.2090
  145OSM    H5S15967   5.892   4.612   6.433  0.2300  0.1695  0.2561
  145OSM    C6S15968   5.950   4.535   6.243 -0.1209  0.0167  0.4620
  145OSM    H6S15969   5.981   4.634   6.202  1.6662 -1.4274 -1.9244
  145OSM    H6T15970   5.840   4.530   6.236 -0.2192  1.4375  0.6777
  145OSM    C7S15971   6.032   4.430   6.171  0.2165 -0.2917 -0.1416
  145OSM    H7S15972   5.999   4.333   6.213  1.5297  0.5201  3.0944
  145OSM    H7T15973   6.141   4.444   6.191 -0.0679  0.0821  1.2681
  145OSM    C8S15974   6.006   4.432   6.018 -0.3621  0.0294 -0.3015
  145OSM    H8S15975   5.897   4.441   6.001 -0.7368 -0.8585  1.4039
  145OSM    H8T15976   6.039   4.334   5.977 -1.1761 -1.4809  2.4277
  145OSM    C9S15977   6.067   4.547   5.933 -1.0089  0.8105 -0.3248
  145OSM    H9S15978   6.176   4.559   5.948 -0.7126 -0.2846 -1.4241
  145OSM    H9T15979   6.016   4.646   5.939 -1.1836  0.8576 -2.1189
  145OSM   C10S15980   6.056   4.527   5.776 -0.1780  0.1371 -0.4649
  145OSM   H10S15981   6.085   4.422   5.755 -2.8623 -0.4811 -1.4096
  145OSM   H10T15982   6.116   4.595   5.711 -1.3823  1.3430 -0.3525
  145OSM   C11S15983   5.913   4.540   5.726  0.6165  0.0733 -0.2159
  145OSM   H11S15984   5.845   4.476   5.786 -0.3954  0.9858 -0.3684
  145OSM   H11T15985   5.910   4.498   5.624  0.4105 -1.6184  0.4609
  145OSM   C12S15986   5.859   4.687   5.735 -0.1021  0.4535  0.1244
  145OSM   H12S15987   5.934   4.740   5.672 -0.6877 -0.6252 -1.5475
  145OSM   H12T15988   5.860   4.730   5.838 -2.4913  1.2909 -0.1420
  145OSM   C13S15989   5.719   4.712   5.684  0.0198  0.1426 -0.3725
  145OSM   H13S15990   5.705   4.822   5.676  2.0513  0.5491  0.8774
  145OSM   H13T15991   5.647   4.674   5.760  0.3047 -0.7201 -0.5258
  145OSM   C14S15992   5.685   4.656   5.542  0.0953  0.4013  0.5037
  145OSM   H14S15993   5.579   4.690   5.532 -0.1983 -0.7785 -0.7212
  145OSM   H14T15994   5.679   4.546   5.533 -1.3884  0.3687  1.5706
  145OSM   C15S15995   5.769   4.714   5.426  0.6428  0.0587 -0.3986
  145OSM   H15S15996   5.876   4.693   5.443  0.5247  0.3937  0.8547
  145OSM   H15T15997   5.754   4.824   5.419  1.8387  0.1243 -3.7301
  145OSM   C16S15998   5.728   4.674   5.285 -0.1946 -0.1094 -0.2057
  145OSM   H16S15999   5.716   4.564   5.288 -1.7063  0.0495  0.7425
  145OSM   H16T16000   5.803   4.704   5.209  1.0833  0.2061  1.1090
  145OSM   C17S16001   5.593   4.727   5.246  0.1845  0.4084  0.8254
  145OSM   H17S16002   5.603   4.833   5.216 -3.5160  0.3010 -1.2985
  145OSM   H17T16003   5.512   4.709   5.319 -1.7327  1.2430 -0.9930
  145OSM   C18S16004   5.549   4.659   5.111  0.4556  0.3046  0.5447
  145OSM   H18S16005   5.632   4.663   5.038 -0.4388 -2.9818 -0.8490
  145OSM   H18T16006   5.461   4.712   5.068  1.0105  1.4877  0.8361
  145OSM   H18U16007   5.539   4.548   5.115  2.0630  0.0719 -0.6681
  145OSM    C1F16008   6.116   4.160   6.663  0.4014  0.7960  1.2792
  145OSM     OF16009   6.001   4.138   6.708 -0.1232  0.0160  0.7145
  145OSM    C2F16010   6.223   4.061   6.667  0.1449 -0.0687 -0.5444
  145OSM    H2F16011   6.224   4.022   6.771  0.9426  1.1815 -0.0587
  145OSM    H2G16012   6.320   4.107   6.640 -0.5135  0.8144 -1.5015
  145OSM    C3F16013   6.208   3.939   6.577 -0.1098  0.4236 -0.1047
  145OSM    H3F16014   6.108   3.895   6.601 -0.9610  1.4919 -1.5034
  145OSM    H3G16015   6.289   3.866   6.595  0.1697  1.0450  1.2926
  145OSM    C4F16016   6.195   3.958   6.427 -0.0397 -0.8535  0.1415
  145OSM    H4F16017   6.295   3.959   6.379 -0.2761 -0.4857 -0.3668
  145OSM    H4G16018   6.154   4.058   6.403  0.9197 -0.2286  1.0661
  145OSM    C5F16019   6.110   3.849   6.352 -0.3627 -0.4262  0.7196
  145OSM    H5F16020   6.006   3.831   6.387 -0.2058  0.4418  1.6580
  145OSM    H5G16021   6.172   3.759   6.370  0.0885 -0.1914  0.3441
  145OSM    C6F16022   6.112   3.866   6.204  0.0473  0.1845 -0.6583
  145OSM    H6F16023   6.077   3.768   6.163 -2.4948  0.7511 -0.0468
  145OSM    H6G16024   6.215   3.891   6.174  0.8861 -0.9173  1.0918
  145OSM    C7F16025   6.005   3.960   6.150  0.0938 -0.9995  0.3002
  145OSM    H7F16026   6.016   4.063   6.191  1.0911  0.4276 -3.1276
  145OSM    H7G16027   5.909   3.912   6.178 -0.1090 -1.3570 -0.9590
  145OSM    C8F16028   6.008   3.975   6.001  0.2740 -0.2585  0.5425
  145OSM    H8F16029   6.098   4.027   5.961  0.6998  0.7561  2.6684
  145OSM    H8G16030   5.926   4.049   5.987  1.1566  2.2111  5.8652
  145OSM    C9F16031   5.983   3.847   5.932 -0.5026 -1.0746  0.3610
  145OSM    H9F16032   5.923   3.775   5.990 -1.4155  0.0627  0.8606
  145OSM   C10F16033   6.039   3.809   5.810  0.2777 -0.1654 -0.1435
  145OSM   H10F16034   6.014   3.712   5.764 -1.4856  0.6386 -0.9642
  145OSM   C11F16035   6.128   3.886   5.718  0.4894  0.1730  0.7178
  145OSM   H11F16036   6.233   3.850   5.714 -0.5412 -3.0552 -1.6698
  145OSM   H11G16037   6.121   3.993   5.747  1.5448  0.6258 -0.6150
  145OSM   C12F16038   6.095   3.856   5.567  0.0797  0.7795 -0.0417
  145OSM   H12F16039   5.994   3.893   5.537 -0.5886 -1.1002 -0.2235
  145OSM   H12G16040   6.091   3.746   5.561  2.4293  0.7181 -1.7735
  145OSM   C13F16041   6.195   3.905   5.461  0.0989 -0.3449  0.2247
  145OSM   H13F16042   6.178   3.841   5.372  1.1877 -0.0645 -0.1960
  145OSM   H13G16043   6.302   3.886   5.484  1.6459  3.9825 -2.2755
  145OSM   C14F16044   6.180   4.058   5.432 -0.2714 -1.2332  0.1402
  145OSM   H14F16045   6.278   4.096   5.394 -0.2630 -2.4601 -1.1531
  145OSM   H14G16046   6.161   4.107   5.530  1.6106  2.0268 -0.9338
  145OSM   C15F16047   6.067   4.089   5.338  0.2347 -0.4113 -0.2030
  145OSM   H15F16048   5.969   4.075   5.388  0.4896 -3.1031 -0.3403
  145OSM   H15G16049   6.068   4.022   5.250 -0.8353 -0.1821 -0.4029
  145OSM   C16F16050   6.073   4.237   5.280 -0.5085  0.0487  0.1748
  145OSM   H16F16051   6.004   4.245   5.194 -1.1946 -0.1339  0.6976
  145OSM   H16G16052   6.178   4.251   5.245  0.1305  0.8705  2.2378
  145OSM   C17F16053   6.044   4.344   5.385  0.1535  0.3481  0.5539
  145OSM   H17F16054   6.127   4.333   5.457  0.8629 -0.1311 -0.3172
  145OSM   H17G16055   5.946   4.327   5.434  0.4022 -0.3247  0.8291
  145OSM   C18F16056   6.060   4.483   5.334 -0.0270  0.3888 -0.8222
  145OSM   H18F16057   6.156   4.513   5.288  0.1152  1.4916  0.1443
  145OSM   H18G16058   6.046   4.555   5.418  0.4495  0.0509 -0.4485
  145OSM   H18H16059   5.975   4.500   5.264 -2.0621 -1.5730  0.9891
  146OSM      N16060   6.211   5.001   6.926 -0.2778 -1.1310  0.0226
  146OSM    C1516061   6.335   5.036   6.843  0.4237 -0.1331  0.7200
  146OSM   H15A16062   6.377   4.957   6.783  1.6231  1.8945 -1.2386
  146OSM   H15B16063   6.408   5.071   6.913  1.3364 -2.2984  0.9446
  146OSM   H15C16064   6.315   5.122   6.781  2.9158 -0.4017 -0.5666
  146OSM    C1416065   6.251   4.921   7.051  0.2076 -0.6699  0.0928
  146OSM   H14A16066   6.334   4.973   7.096  1.2875 -0.1545 -2.3547
  146OSM   H14B16067   6.271   4.820   7.021 -1.8585 -1.5131  1.2737
  146OSM   H14C16068   6.174   4.909   7.126  0.9267 -0.5618  0.8569
  146OSM    C1316069   6.159   5.132   6.978  0.0601  0.2024 -0.1488
  146OSM   H13A16070   6.228   5.184   7.043 -1.4378  0.1430  1.5602
  146OSM   H13B16071   6.066   5.103   7.023 -1.8532  1.9561 -2.6858
  146OSM   H13C16072   6.120   5.199   6.903 -2.9227 -1.4082 -0.1651
  146OSM    C1216073   6.106   4.929   6.837  0.2134  0.3315  0.4804
  146OSM   H12A16074   6.144   4.833   6.806  0.0028  0.5423 -0.4579
  146OSM   H12B16075   6.085   4.980   6.744  0.7768  0.0710  0.2068
  146OSM    C1116076   5.971   4.902   6.906  0.1465  0.1065 -0.2662
  146OSM   H11A16077   5.982   4.844   7.000 -2.6283  0.6775  0.4911
  146OSM   H11B16078   5.913   4.841   6.834 -0.1630  0.3910 -0.2628
  146OSM      P16079   5.776   5.029   7.025  0.2123 -0.2665  0.2694
  146OSM    O1316080   5.802   4.973   7.160  0.2376 -0.5890  0.0211
  146OSM    O1416081   5.711   5.160   7.024  0.2973 -0.1679 -0.3441
  146OSM    O1116082   5.679   4.936   6.942  0.0690  0.4787  0.4440
  146OSM    O1216083   5.904   5.023   6.932  0.8033  0.0802 -0.8488
  146OSM    C1S16084   5.660   4.960   6.803 -0.4806 -0.2157 -0.6739
  146OSM    H1S16085   5.741   5.020   6.755 -1.1523  1.2762 -0.0127
  146OSM    H1T16086   5.570   5.024   6.794  0.6786  1.3636 -1.4997
  146OSM     NF16087   5.629   4.870   6.570 -0.1396  0.4652  0.1047
  146OSM    HNF16088   5.534   4.867   6.539 -0.0559  0.3079 -0.1351
  146OSM    C2S16089   5.637   4.835   6.711 -0.4465 -0.3390 -0.0807
  146OSM    H2S16090   5.724   4.767   6.717 -0.0488  0.2215  0.5541
  146OSM    C3S16091   5.527   4.737   6.753  0.0030  1.1391 -0.3071
  146OSM    H3S16092   5.429   4.791   6.744 -0.8232  0.1271  1.9917
  146OSM     O316093   5.531   4.701   6.897  0.4190 -0.5257  0.3598
  146OSM    HO316094   5.605   4.754   6.929 -1.6898  2.0514  1.3252
  146OSM    C4S16095   5.530   4.615   6.671 -0.4014  0.1621 -0.0999
  146OSM    H4S16096   5.462   4.615   6.585 -0.0846 -0.1467 -0.3513
  146OSM    C5S16097   5.611   4.507   6.684 -0.3681 -0.0224  0.0124
  146OSM    H5S16098   5.676   4.497   6.772  1.6789 -0.6829 -1.5040
  146OSM    C6S16099   5.624   4.385   6.595 -0.1323  0.2147 -0.0220
  146OSM    H6S16100   5.566   4.297   6.630 -0.4226  0.3068 -0.2680
  146OSM    H6T16101   5.728   4.346   6.604 -0.5466 -1.0205 -0.3890
  146OSM    C7S16102   5.576   4.404   6.447 -0.0134 -0.5050  0.4513
  146OSM    H7S16103   5.612   4.499   6.402 -1.2250 -0.7410 -1.0859
  146OSM    H7T16104   5.466   4.418   6.447  0.0248 -0.1945  0.8873
  146OSM    C8S16105   5.604   4.293   6.352  0.7366 -0.7031 -0.5318
  146OSM    H8S16106   5.594   4.201   6.414 -1.8910  0.1874  0.5012
  146OSM    H8T16107   5.714   4.294   6.335  0.5422 -1.5547 -1.9446
  146OSM    C9S16108   5.529   4.278   6.224  0.2740 -0.4783 -0.6346
  146OSM    H9S16109   5.522   4.376   6.171 -0.4822  0.3799  0.9841
  146OSM    H9T16110   5.423   4.254   6.246  0.0667 -1.1494 -2.1866
  146OSM   C10S16111   5.584   4.174   6.128  0.2730 -0.1745  0.5448
  146OSM   H10S16112   5.583   4.080   6.187 -1.3378  0.5433  1.7107
  146OSM   H10T16113   5.688   4.184   6.090  0.6325 -0.8855  1.3038
  146OSM   C11S16114   5.503   4.167   5.995 -0.0854  0.2171 -0.7134
  146OSM   H11S16115   5.400   4.135   6.020  0.8930 -2.2977  0.4264
  146OSM   H11T16116   5.548   4.090   5.929  1.1221  0.1969  0.0873
  146OSM   C12S16117   5.491   4.294   5.907 -0.1355  0.1993  0.0616
  146OSM   H12S16118   5.449   4.379   5.965  3.2593  0.4778  2.3460
  146OSM   H12T16119   5.415   4.268   5.830 -2.0978  0.8566  1.6724
  146OSM   C13S16120   5.613   4.344   5.840 -0.4599 -0.5739  0.4768
  146OSM   H13S16121   5.691   4.330   5.918 -3.1652  2.0395  4.0018
  146OSM   H13T16122   5.610   4.453   5.816  0.7994 -0.7859 -0.8056
  146OSM   C14S16123   5.654   4.259   5.722 -0.2277 -0.6823  0.1784
  146OSM   H14S16124   5.647   4.150   5.741 -2.6696 -0.7541 -0.8285
  146OSM   H14T16125   5.760   4.285   5.699 -0.6660  1.0662 -0.0401
  146OSM   C15S16126   5.570   4.278   5.595  0.7212  0.3040  0.1961
  146OSM   H15S16127   5.540   4.384   5.586 -0.2843  0.3854  3.3998
  146OSM   H15T16128   5.477   4.217   5.592  1.5581 -0.9904 -0.6753
  146OSM   C16S16129   5.646   4.238   5.472  0.2133  0.4075 -0.6645
  146OSM   H16S16130   5.693   4.138   5.472  0.5773  0.5081 -3.1843
  146OSM   H16T16131   5.737   4.302   5.466  0.6307 -0.1669 -0.5776
  146OSM   C17S16132   5.573   4.245   5.341  0.2124 -0.1525 -0.2895
  146OSM   H17S16133   5.566   4.353   5.313  0.5641 -0.0815 -0.1147
  146OSM   H17T16134   5.470   4.205   5.350  0.9217 -2.0525 -0.2966
  146OSM   C18S16135   5.658   4.175   5.240 -0.0087 -0.2250  0.2413
  146OSM   H18S16136   5.639   4.066   5.244 -0.8587 -0.0425  1.9039
  146OSM   H18T16137   5.767   4.188   5.259  0.2849 -1.1291 -0.7508
  146OSM   H18U16138   5.640   4.219   5.140  2.6080 -0.1007 -0.2593
  146OSM    C1F16139   5.724   4.930   6.502  0.0163  0.2694  0.7320
  146OSM     OF16140   5.842   4.919   6.538  0.1882 -0.2410 -0.0098
  146OSM    C2F16141   5.685   4.995   6.373 -0.0360  0.0016  0.0862
  146OSM    H2F16142   5.691   5.104   6.389  1.2320  0.1835 -1.4905
  146OSM    H2G16143   5.581   4.965   6.346 -0.4935  0.5303  1.1794
  146OSM    C3F16144   5.784   4.970   6.256 -0.6381  0.2980  0.6825
  146OSM    H3F16145   5.779   4.866   6.218 -1.2627  0.3245  0.6857
  146OSM    H3G16146   5.887   4.991   6.291 -0.0706  0.9598 -1.2495
  146OSM    C4F16147   5.761   5.049   6.122 -0.3187  0.1962 -0.0771
  146OSM    H4F16148   5.749   5.159   6.135 -1.1245 -0.0776  1.7467
  146OSM    H4G16149   5.666   5.009   6.081 -0.3711  0.1588  0.0818
  146OSM    C5F16150   5.868   4.998   6.015  1.0905 -0.4938  0.2937
  146OSM    H5F16151   5.854   4.891   5.986  0.9803 -1.3750  3.2465
  146OSM    H5G16152   5.966   5.007   6.067  2.4458  1.6044 -2.4022
  146OSM    C6F16153   5.875   5.098   5.890  0.2676  0.5067 -0.7498
  146OSM    H6F16154   5.880   5.197   5.940 -1.7275 -0.2889  1.1421
  146OSM    H6G16155   5.772   5.099   5.849 -0.5177  2.6859  1.1276
  146OSM    C7F16156   5.988   5.076   5.792  0.2306  0.0523 -0.1196
  146OSM    H7F16157   5.965   4.989   5.727  0.3523  0.0488 -0.1570
  146OSM    H7G16158   6.088   5.060   5.838  0.3262 -1.0849 -0.6960
  146OSM    C8F16159   6.014   5.200   5.706 -0.1537  0.2306  0.1211
  146OSM    H8F16160   6.032   5.292   5.765 -2.5454  2.8988 -2.8935
  146OSM    H8G16161   5.924   5.232   5.648 -0.3264  0.6692  0.6211
  146OSM    C9F16162   6.131   5.185   5.620  0.3004 -0.1477  0.5449
  146OSM    H9F16163   6.227   5.187   5.672  1.0396 -1.0111 -0.7255
  146OSM   C10F16164   6.132   5.158   5.482 -0.5622 -0.0338 -0.1212
  146OSM   H10F16165   6.224   5.157   5.420 -0.7706 -0.5600 -0.4328
  146OSM   C11F16166   6.018   5.138   5.392  0.2465 -0.1079 -0.3416
  146OSM   H11F16167   6.012   5.229   5.329 -0.5966  0.8090  0.9951
  146OSM   H11G16168   5.921   5.127   5.446 -0.5228  1.4154 -1.3558
  146OSM   C12F16169   6.030   5.014   5.309  0.3246 -0.1422  0.0605
  146OSM   H12F16170   5.933   4.991   5.261  0.0379 -0.1740  0.6463
  146OSM   H12G16171   6.046   4.931   5.381 -1.5663 -1.1408 -0.6181
  146OSM   C13F16172   6.143   5.024   5.210  0.2574  0.4211 -0.3959
  146OSM   H13F16173   6.244   5.025   5.257 -0.5482 -0.4578  1.4038
  146OSM   H13G16174   6.134   5.126   5.166  3.6117  0.8344 -0.3758
  146OSM   C14F16175   6.132   4.921   5.098 -0.0993  0.9066  0.1366
  146OSM   H14F16176   6.027   4.908   5.064 -0.1293 -0.2484  0.6373
  146OSM   H14G16177   6.199   4.962   5.019  0.3192 -1.3110 -0.7379
  146OSM   C15F16178   6.182   4.785   5.148 -0.7675 -0.2220  0.1576
  146OSM   H15F16179   6.125   4.752   5.238  0.6986  1.9400  1.9746
  146OSM   H15G16180   6.289   4.795   5.176 -0.8732  3.3490 -0.2442
  146OSM   C16F16181   6.178   4.677   5.039  0.2649  0.0264 -0.4853
  146OSM   H16F16182   6.074   4.671   5.000  0.1209  0.4898 -0.1849
  146OSM   H16G16183   6.200   4.579   5.087  1.8946  0.9850  0.8317
  146OSM   C17F16184   6.276   4.690   4.922 -0.0237 -0.1094  0.0853
  146OSM   H17F16185   6.260   4.790   4.876  1.1035 -0.7290 -1.8093
  146OSM   H17G16186   6.255   4.615   4.842 -0.6730  0.2935 -0.1289
  146OSM   C18F16187   6.424   4.668   4.952  0.5115 -0.2398  0.4516
  146OSM   H18F16188   6.473   4.747   5.012  0.9907 -0.7644  0.7654
  146OSM   H18G16189   6.479   4.660   4.856 -0.3474 -0.4352 -0.0400
  146OSM   H18H16190   6.426   4.571   5.006 -2.2971 -0.5923  0.0514
  147OSM      N16191   6.134   5.912   2.262 -0.3388  0.5826  0.1922
  147OSM    C1516192   6.247   5.973   2.342  0.5640 -0.2562 -0.0898
  147OSM   H15A16193   6.217   6.073   2.368  3.0099  0.5740 -0.2830
  147OSM   H15B16194   6.337   5.978   2.283  0.7896  0.7874  0.3222
  147OSM   H15C16195   6.268   5.928   2.438  0.2633  2.9879  1.6256
  147OSM    C1416196   6.139   5.975   2.128  0.8380  0.5126  0.4053
  147OSM   H14A16197   6.104   6.077   2.127 -1.4566 -0.2326 -0.2451
  147OSM   H14B16198   6.078   5.921   2.058  2.3168  0.2472 -0.7247
  147OSM   H14C16199   6.241   5.972   2.092  0.2173  0.0717 -1.4157
  147OSM    C1316200   6.173   5.764   2.239  0.5790  0.2994 -0.6168
  147OSM   H13A16201   6.118   5.731   2.152  1.2051  0.3096 -1.0210
  147OSM   H13B16202   6.153   5.706   2.328  0.9422 -1.0148 -1.3626
  147OSM   H13C16203   6.279   5.754   2.221  0.6365  0.4054 -0.3302
  147OSM    C1216204   6.002   5.928   2.324  0.4998  0.4168 -0.5871
  147OSM   H12A16205   5.996   5.874   2.418 -0.1307  1.9123  0.2663
  147OSM   H12B16206   5.926   5.890   2.257  2.0824 -2.1445 -1.0628
  147OSM    C1116207   5.949   6.072   2.358  0.0756  0.0191 -0.0116
  147OSM   H11A16208   5.840   6.070   2.376 -0.0213  1.2598 -0.2995
  147OSM   H11B16209   5.955   6.124   2.260  0.6663 -1.1472 -0.6125
  147OSM      P16210   5.991   6.131   2.609  0.1394 -0.0944  0.3270
  147OSM    O1316211   6.116   6.130   2.684 -0.3924 -0.0602  0.3745
  147OSM    O1416212   5.894   6.236   2.648 -0.1774 -0.0091 -1.0824
  147OSM    O1116213   5.907   5.995   2.613 -0.4871 -0.5180  0.2217
  147OSM    O1216214   6.028   6.148   2.456  0.6081 -0.0077 -0.1706
  147OSM    C1S16215   5.965   5.885   2.683 -0.2354  0.4560  0.1999
  147OSM    H1S16216   6.074   5.872   2.670 -0.4116 -0.7694 -0.2270
  147OSM    H1T16217   5.920   5.795   2.635 -0.3261  0.2730  0.6255
  147OSM     NF16218   5.992   5.765   2.906  0.4632  0.2789 -0.0944
  147OSM    HNF16219   5.921   5.704   2.939 -0.8206  1.3159 -0.8605
  147OSM    C2S16220   5.928   5.884   2.836 -0.8490 -0.1972 -0.5886
  147OSM    H2S16221   5.982   5.975   2.870  1.1748 -1.4054 -0.4066
  147OSM    C3S16222   5.780   5.916   2.868 -0.7172  0.0505 -0.6912
  147OSM    H3S16223   5.711   5.835   2.836  1.9544 -2.6481 -0.1424
  147OSM     O316224   5.734   6.033   2.805 -0.0124 -0.0847  0.4342
  147OSM    HO316225   5.793   6.040   2.730 -1.5673  1.5359 -0.7288
  147OSM    C4S16226   5.761   5.925   3.019 -0.5990  0.6861 -0.3442
  147OSM    H4S16227   5.711   5.843   3.073  0.1132  0.5214  0.0839
  147OSM    C5S16228   5.785   6.035   3.091  0.8174 -0.2970  0.2582
  147OSM    H5S16229   5.811   6.126   3.034  2.3206  0.0269  1.4093
  147OSM    C6S16230   5.761   6.064   3.242  0.6531 -0.1293  0.8423
  147OSM    H6S16231   5.683   6.143   3.256 -0.9054 -1.5400  0.4815
  147OSM    H6T16232   5.857   6.108   3.274  0.3607  1.8805 -0.8359
  147OSM    C7S16233   5.735   5.949   3.348  0.4658 -0.2145  0.2208
  147OSM    H7S16234   5.832   5.897   3.362 -0.3808 -2.0669 -0.3400
  147OSM    H7T16235   5.658   5.879   3.308  2.0753 -1.2749 -1.1958
  147OSM    C8S16236   5.682   6.009   3.481  0.1549 -0.0431  0.2967
  147OSM    H8S16237   5.595   6.076   3.466 -0.3595 -0.7428  0.1430
  147OSM    H8T16238   5.766   6.075   3.513 -0.4259 -0.1817  2.2666
  147OSM    C9S16239   5.667   5.905   3.601  0.2459  0.4711 -0.1981
  147OSM    H9S16240   5.754   5.836   3.597  1.1850  1.6510 -0.9237
  147OSM    H9T16241   5.579   5.840   3.582  0.1746  0.9662 -1.7786
  147OSM   C10S16242   5.666   5.979   3.728  0.3406 -0.5861 -0.0952
  147OSM   H10S16243   5.590   6.060   3.728  3.9987  3.1466  0.0999
  147OSM   H10T16244   5.761   6.031   3.752 -0.0082  0.2330 -0.4718
  147OSM   C11S16245   5.638   5.880   3.846  0.5899 -0.0465 -0.3313
  147OSM   H11S16246   5.721   5.807   3.845 -1.9509 -3.1690 -2.2180
  147OSM   H11T16247   5.542   5.825   3.836 -0.5595  1.1720  2.7829
  147OSM   C12S16248   5.613   5.953   3.979  0.2142  0.2990 -0.5011
  147OSM   H12S16249   5.518   6.007   3.957  0.6284  0.7910 -1.1299
  147OSM   H12T16250   5.697   6.022   4.002  1.1638  0.1548 -3.1388
  147OSM   C13S16251   5.570   5.860   4.100  0.6253  0.5952  0.2736
  147OSM   H13S16252   5.507   5.778   4.060 -0.2881  0.5977  1.6724
  147OSM   H13T16253   5.515   5.920   4.176 -1.1529 -0.9267  0.2435
  147OSM   C14S16254   5.694   5.801   4.180  0.5023  0.3831  0.7067
  147OSM   H14S16255   5.756   5.892   4.200 -0.3796  0.9377  0.9792
  147OSM   H14T16256   5.754   5.731   4.119  2.3739  0.9141  1.8455
  147OSM   C15S16257   5.657   5.744   4.314  0.2598  0.0923  0.1714
  147OSM   H15S16258   5.604   5.826   4.368  1.3171  2.0846 -1.6415
  147OSM   H15T16259   5.748   5.720   4.373 -0.2240 -0.0688  0.8746
  147OSM   C16S16260   5.562   5.627   4.317 -0.0414 -0.5517  0.6386
  147OSM   H16S16261   5.608   5.543   4.262  2.7067  1.8511 -1.0450
  147OSM   H16T16262   5.470   5.646   4.257  1.5231 -0.7682 -1.9676
  147OSM   C17S16263   5.530   5.589   4.458  0.9740  0.1884  0.0630
  147OSM   H17S16264   5.457   5.664   4.493  2.1641  1.4494 -0.0939
  147OSM   H17T16265   5.628   5.597   4.510  0.4332  1.7765  0.8823
  147OSM   C18S16266   5.468   5.445   4.466 -0.1540 -0.6704  0.1388
  147OSM   H18S16267   5.362   5.455   4.435 -0.4385 -0.6097  1.0972
  147OSM   H18T16268   5.461   5.410   4.571  3.0585 -1.2560  0.2844
  147OSM   H18U16269   5.522   5.370   4.403  0.5628 -0.1999  0.1817
  147OSM    C1F16270   6.117   5.731   2.913  0.6697  0.0926  0.1115
  147OSM     OF16271   6.206   5.786   2.852  0.1141 -0.5851  0.7428
  147OSM    C2F16272   6.150   5.604   2.998  0.3362 -0.0328 -0.9616
  147OSM    H2F16273   6.246   5.565   2.957  0.7234 -0.3568  0.2004
  147OSM    H2G16274   6.068   5.530   2.994 -0.5943  0.8018  1.1408
  147OSM    C3F16275   6.167   5.651   3.148  0.6391  1.1222  0.1103
  147OSM    H3F16276   6.073   5.700   3.182 -0.0497  0.0168 -0.1432
  147OSM    H3G16277   6.252   5.722   3.157  0.9643  0.5616  1.8719
  147OSM    C4F16278   6.198   5.536   3.253  0.6118  0.0245  0.4382
  147OSM    H4F16279   6.296   5.503   3.213  0.2321  1.2648 -1.7252
  147OSM    H4G16280   6.120   5.457   3.252 -1.1925  1.6973  1.4838
  147OSM    C5F16281   6.217   5.575   3.399 -0.2901 -0.2384 -0.0400
  147OSM    H5F16282   6.112   5.599   3.429 -1.1722  1.2932 -3.7828
  147OSM    H5G16283   6.279   5.666   3.406 -2.4322  1.3260 -0.2192
  147OSM    C6F16284   6.283   5.465   3.484 -0.5766  0.4034  0.3784
  147OSM    H6F16285   6.388   5.452   3.449 -0.4319  2.0792  0.0719
  147OSM    H6G16286   6.223   5.372   3.485 -2.8530  1.7270 -2.0989
  147OSM    C7F16287   6.291   5.502   3.630  0.7256 -0.2789 -0.2776
  147OSM    H7F16288   6.191   5.511   3.678  0.9867 -0.8512  0.3880
  147OSM    H7G16289   6.329   5.606   3.636 -2.3090  1.0491 -1.8479
  147OSM    C8F16290   6.390   5.417   3.706  0.7305  0.0390  1.0697
  147OSM    H8F16291   6.488   5.445   3.663 -0.7148 -0.2425 -2.7819
  147OSM    H8G16292   6.363   5.313   3.680  2.3169 -0.4386  1.2354
  147OSM    C9F16293   6.373   5.442   3.852  0.6846  0.1765 -0.0260
  147OSM    H9F16294   6.277   5.488   3.882 -1.2816 -3.6917  0.1765
  147OSM   C10F16295   6.464   5.410   3.942 -0.2590 -0.2590  0.0725
  147OSM   H10F16296   6.442   5.428   4.048 -2.3359 -0.9997 -0.1853
  147OSM   C11F16297   6.601   5.347   3.923  0.6202 -0.6304  0.7793
  147OSM   H11F16298   6.660   5.402   3.999  0.5785  0.0040  0.3594
  147OSM   H11G16299   6.644   5.374   3.824 -0.5799 -0.4350  0.2977
  147OSM   C12F16300   6.625   5.199   3.945 -0.4963 -0.2917 -0.3721
  147OSM   H12F16301   6.628   5.159   3.841 -2.3349  3.1897 -1.9224
  147OSM   H12G16302   6.533   5.157   3.990  0.1677 -2.0855 -0.5924
  147OSM   C13F16303   6.756   5.174   4.019 -0.4914  1.1077  0.4191
  147OSM   H13F16304   6.758   5.215   4.122  2.3449  2.6961 -0.1657
  147OSM   H13G16305   6.842   5.216   3.963 -0.5906 -0.6715 -1.1821
  147OSM   C14F16306   6.786   5.023   4.030 -0.6253  0.3295 -0.1516
  147OSM   H14F16307   6.817   5.001   3.925  0.7603  2.5972 -0.2911
  147OSM   H14G16308   6.696   4.962   4.051 -0.6555  0.8657  1.3686
  147OSM   C15F16309   6.906   4.989   4.122  0.1758  0.0215 -0.3371
  147OSM   H15F16310   6.998   5.039   4.086 -0.0563  1.0471  0.4711
  147OSM   H15G16311   6.930   4.881   4.106  1.7075 -0.3873  3.6308
  147OSM   C16F16312   6.885   5.026   4.269  0.3775 -0.1114  0.2942
  147OSM   H16F16313   6.781   4.999   4.297 -0.4139  0.7001 -1.6969
  147OSM   H16G16314   6.879   5.137   4.269  0.3004 -0.1108 -0.5845
  147OSM   C17F16315   6.999   4.974   4.363  0.0030  0.5993 -0.0023
  147OSM   H17F16316   7.094   5.017   4.324  2.3475  0.3177  4.6275
  147OSM   H17G16317   7.013   4.864   4.354 -1.1889  0.4406 -0.0472
  147OSM   C18F16318   6.980   5.023   4.503 -0.4832 -0.4880 -0.5688
  147OSM   H18F16319   6.972   5.133   4.495  1.5700 -0.2396  0.0613
  147OSM   H18G16320   7.058   4.982   4.571  0.4750 -0.3425 -1.5529
  147OSM   H18H16321   6.886   4.984   4.547 -1.0053  1.4854  0.1514
  148OSM      N16322   4.748   6.095   2.137  0.4206  0.5911  0.8380
  148OSM    C1516323   4.684   6.229   2.117  0.2796  0.3222  0.3019
  148OSM   H15A16324   4.583   6.237   2.154 -0.1981  2.0805 -1.2614
  148OSM   H15B16325   4.674   6.237   2.010 -2.9069 -0.5069  0.4367
  148OSM   H15C16326   4.746   6.313   2.144  2.2125 -0.6894 -0.7896
  148OSM    C1416327   4.647   5.990   2.097  0.3344  0.5012  0.0081
  148OSM   H14A16328   4.550   6.006   2.143 -0.4142 -1.8505 -0.6033
  148OSM   H14B16329   4.687   5.892   2.122 -1.8368 -0.4342  0.0417
  148OSM   H14C16330   4.625   5.997   1.992 -1.2138 -1.0149  0.1948
  148OSM    C1316331   4.858   6.084   2.045 -0.2415  0.2288  0.2442
  148OSM   H13A16332   4.826   6.108   1.944  0.6524 -0.9025 -0.3322
  148OSM   H13B16333   4.904   5.987   2.049  1.2064  0.9073  0.7225
  148OSM   H13C16334   4.940   6.154   2.058 -0.5641  0.9771 -1.5193
  148OSM    C1216335   4.795   6.067   2.280 -0.1875  0.4332 -0.2746
  148OSM   H12A16336   4.725   6.106   2.353 -0.4173  1.6744 -1.1284
  148OSM   H12B16337   4.876   6.137   2.295 -0.9432  1.2053  0.3410
  148OSM    C1116338   4.871   5.939   2.325  0.2819 -0.2117 -0.0624
  148OSM   H11A16339   4.921   5.958   2.423 -0.2308  2.3732 -0.2176
  148OSM   H11B16340   4.948   5.926   2.246 -0.4199  0.4349 -0.8748
  148OSM      P16341   4.669   5.813   2.415  0.3788  0.2227 -0.0991
  148OSM    O1316342   4.540   5.838   2.347  0.2389 -0.0699  0.2382
  148OSM    O1416343   4.683   5.680   2.481  0.3446 -0.0100  0.3429
  148OSM    O1116344   4.692   5.918   2.535  0.0778  0.2086  0.2915
  148OSM    O1216345   4.788   5.826   2.316  0.4504  0.6247  0.2071
  148OSM    C1S16346   4.633   5.878   2.662  0.5055  0.0262  0.6478
  148OSM    H1S16347   4.615   5.770   2.678 -1.2675  0.2056  0.0529
  148OSM    H1T16348   4.540   5.937   2.680  0.5540 -0.2575  1.9185
  148OSM     NF16349   4.671   5.868   2.906 -0.0107 -0.8291 -0.0901
  148OSM    HNF16350   4.647   5.936   2.975 -1.3484 -1.5591  0.2200
  148OSM    C2S16351   4.722   5.916   2.781  0.4478  0.1586  0.4355
  148OSM    H2S16352   4.820   5.870   2.755  0.9759  1.5662 -0.1687
  148OSM    C3S16353   4.746   6.072   2.769 -0.6314 -0.2206  0.6626
  148OSM    H3S16354   4.651   6.128   2.755  0.1743  0.9793 -0.1885
  148OSM     O316355   4.819   6.115   2.654 -0.2623 -0.1143  0.0759
  148OSM    HO316356   4.799   6.044   2.593 -1.0554  0.2382 -0.0913
  148OSM    C4S16357   4.806   6.133   2.900  0.1588  0.3911  0.3472
  148OSM    H4S16358   4.738   6.200   2.955 -1.9162 -0.7327 -0.6954
  148OSM    C5S16359   4.932   6.132   2.942  0.5749  0.1951  0.5345
  148OSM    H5S16360   5.008   6.080   2.881  0.0673  0.8147 -0.6733
  148OSM    C6S16361   4.982   6.202   3.069 -0.5281  0.5813 -0.2632
  148OSM    H6S16362   5.031   6.294   3.034 -1.1127 -0.0315 -2.8860
  148OSM    H6T16363   5.061   6.138   3.115  1.0981  2.0898 -0.8588
  148OSM    C7S16364   4.868   6.244   3.167 -0.6019  0.5041 -0.0450
  148OSM    H7S16365   4.788   6.169   3.186 -0.9273  1.0824  0.9631
  148OSM    H7T16366   4.812   6.321   3.109  0.2105  1.1947  0.0625
  148OSM    C8S16367   4.938   6.294   3.293 -0.0965 -0.4177  0.3723
  148OSM    H8S16368   4.905   6.399   3.311  0.4139  0.4636 -3.1044
  148OSM    H8T16369   5.046   6.305   3.267 -0.2230 -2.0580 -0.9974
  148OSM    C9S16370   4.923   6.209   3.422 -0.7940 -0.0321  0.3601
  148OSM    H9S16371   4.943   6.106   3.386 -0.7632  0.4899 -1.2206
  148OSM    H9T16372   4.821   6.207   3.465 -1.9384  0.2368 -2.1341
  148OSM   C10S16373   5.020   6.258   3.530  0.4007  0.8043 -0.0071
  148OSM   H10S16374   4.982   6.219   3.627 -0.9086  0.4758 -0.6275
  148OSM   H10T16375   5.027   6.368   3.528  0.8188  0.7671 -0.7457
  148OSM   C11S16376   5.161   6.191   3.519  0.5480 -0.0747  0.1304
  148OSM   H11S16377   5.213   6.227   3.428 -0.4973 -0.8892 -0.8319
  148OSM   H11T16378   5.150   6.080   3.517  1.4108 -0.1534 -0.9293
  148OSM   C12S16379   5.248   6.212   3.648 -0.3449 -0.2701  0.1249
  148OSM   H12S16380   5.234   6.319   3.674  2.3374  0.7376 -2.1106
  148OSM   H12T16381   5.356   6.201   3.624 -0.4511 -0.4988 -0.2480
  148OSM   C13S16382   5.223   6.127   3.772 -0.1879 -0.0606  0.5085
  148OSM   H13S16383   5.303   6.057   3.801  0.0908 -0.5568 -1.3413
  148OSM   H13T16384   5.137   6.062   3.745 -0.8996  0.1866  2.0172
  148OSM   C14S16385   5.177   6.203   3.901  0.0736  0.1509  0.1672
  148OSM   H14S16386   5.104   6.282   3.873  0.9546  1.5878  1.7759
  148OSM   H14T16387   5.255   6.263   3.952  0.5757 -0.3574  0.0030
  148OSM   C15S16388   5.120   6.103   4.011  0.1318  0.3070 -0.0980
  148OSM   H15S16389   5.194   6.023   4.033 -0.8013 -0.3608  0.6953
  148OSM   H15T16390   5.037   6.054   3.955  1.3029 -1.3781 -0.4240
  148OSM   C16S16391   5.069   6.165   4.148 -0.0787 -0.3339  0.0136
  148OSM   H16S16392   5.021   6.086   4.209  0.3913  1.0267  2.2388
  148OSM   H16T16393   4.991   6.241   4.128 -1.1981 -1.2900  0.6831
  148OSM   C17S16394   5.173   6.230   4.237 -0.1036 -0.2800  0.2721
  148OSM   H17S16395   5.224   6.315   4.187 -2.2226  0.6888 -0.3659
  148OSM   H17T16396   5.255   6.157   4.254 -1.5104 -1.5738  1.8812
  148OSM   C18S16397   5.124   6.288   4.370  0.0083  1.2056  0.3346
  148OSM   H18S16398   5.067   6.382   4.355  0.2534  1.1710 -0.8995
  148OSM   H18T16399   5.211   6.325   4.430 -0.9293  0.7584  2.0486
  148OSM   H18U16400   5.053   6.222   4.425  0.1794  0.4669 -0.3221
  148OSM    C1F16401   4.666   5.737   2.930  0.8409  0.0092  0.9650
  148OSM     OF16402   4.726   5.666   2.852 -0.1792  0.6466  0.1276
  148OSM    C2F16403   4.590   5.684   3.049  0.0057  0.0084  0.1040
  148OSM    H2F16404   4.549   5.585   3.019  0.5719 -0.5226  1.0335
  148OSM    H2G16405   4.510   5.752   3.088 -0.8989 -0.7318 -0.4135
  148OSM    C3F16406   4.683   5.653   3.173  0.4831 -0.0570  0.7033
  148OSM    H3F16407   4.732   5.746   3.209 -0.1835  0.3355  0.6177
  148OSM    H3G16408   4.750   5.575   3.132 -1.9833 -1.2386 -1.3119
  148OSM    C4F16409   4.593   5.602   3.293 -0.0036  0.6727  0.0816
  148OSM    H4F16410   4.536   5.523   3.240  0.1112 -1.6238  3.1126
  148OSM    H4G16411   4.529   5.688   3.321 -1.0667  0.2439 -0.9522
  148OSM    C5F16412   4.668   5.534   3.408  0.3370 -0.6774  0.2425
  148OSM    H5F16413   4.732   5.604   3.465  0.4335 -1.5557  1.2499
  148OSM    H5G16414   4.732   5.455   3.364 -0.2471 -1.5278  0.8910
  148OSM    C6F16415   4.572   5.470   3.507 -0.9298  0.3850 -0.0079
  148OSM    H6F16416   4.496   5.406   3.457 -0.8469  0.5687 -0.3769
  148OSM    H6G16417   4.507   5.523   3.580 -0.2360 -0.3565  1.1624
  148OSM    C7F16418   4.652   5.372   3.593 -0.7446 -0.3527  0.0672
  148OSM    H7F16419   4.749   5.418   3.622 -0.3216 -0.3347 -1.3166
  148OSM    H7G16420   4.694   5.289   3.533  0.3756  1.5873 -1.9482
  148OSM    C8F16421   4.575   5.320   3.712 -0.4699  0.0218  0.1461
  148OSM    H8F16422   4.489   5.260   3.675  0.7086 -1.3149 -0.5234
  148OSM    H8G16423   4.540   5.414   3.761  0.7233  0.5355  0.0376
  148OSM    C9F16424   4.649   5.223   3.796  0.5164  1.0006  0.2433
  148OSM    H9F16425   4.755   5.219   3.768  0.6056  2.0954  0.3863
  148OSM   C10F16426   4.594   5.138   3.889 -0.3778  0.3666  0.1322
  148OSM   H10F16427   4.661   5.083   3.958 -1.3545  3.1875  3.6441
  148OSM   C11F16428   4.447   5.128   3.924 -0.3508  0.5061  0.3988
  148OSM   H11F16429   4.411   5.025   3.949 -2.9074  1.1806 -0.1557
  148OSM   H11G16430   4.393   5.153   3.830 -1.4251  0.3086  0.9422
  148OSM   C12F16431   4.409   5.233   4.034 -0.2372 -0.4874  0.5642
  148OSM   H12F16432   4.300   5.250   4.020 -0.2103 -0.4950  0.3268
  148OSM   H12G16433   4.469   5.323   4.008 -1.5843  0.1832 -0.3914
  148OSM   C13F16434   4.430   5.186   4.175 -0.1077  0.7520  0.4108
  148OSM   H13F16435   4.539   5.173   4.190 -0.0469  0.5198 -0.2133
  148OSM   H13G16436   4.396   5.081   4.190  0.5643  0.2903 -1.1642
  148OSM   C14F16437   4.365   5.277   4.274  0.2102  0.7391  0.5072
  148OSM   H14F16438   4.302   5.221   4.346 -1.6518  2.3223  0.2050
  148OSM   H14G16439   4.293   5.351   4.232 -0.6091 -0.1179  0.3815
  148OSM   C15F16440   4.461   5.352   4.369  0.7421 -0.0740  0.2380
  148OSM   H15F16441   4.515   5.429   4.309  0.6484 -0.8111 -0.8094
  148OSM   H15G16442   4.542   5.282   4.398 -0.7395 -1.9775 -0.0739
  148OSM   C16F16443   4.391   5.418   4.483 -0.0475 -0.4065 -0.7587
  148OSM   H16F16444   4.321   5.358   4.545 -0.9356  1.0494 -0.3081
  148OSM   H16G16445   4.329   5.505   4.452  1.7386  1.2302  0.0732
  148OSM   C17F16446   4.489   5.491   4.575 -0.9136 -0.6436 -0.2163
  148OSM   H17F16447   4.548   5.559   4.509 -1.7356  0.3656  0.0636
  148OSM   H17G16448   4.566   5.423   4.616 -0.0933  0.2133 -0.2920
  148OSM   C18F16449   4.416   5.581   4.678 -0.0348  0.0041 -0.0938
  148OSM   H18F16450   4.489   5.643   4.734  0.3492 -2.5697  2.4378
  148OSM   H18G16451   4.360   5.518   4.750 -0.6309  0.8186  0.1611
  148OSM   H18H16452   4.354   5.649   4.615  0.8899 -0.4539 -1.5576
  149OSM      N16453   5.783   5.237   2.224 -0.6155  0.0873 -0.8109
  149OSM    C1516454   5.867   5.157   2.132 -0.3702 -0.6876 -0.2347
  149OSM   H15A16455   5.877   5.055   2.166  0.9831 -0.4772  0.0747
  149OSM   H15B16456   5.968   5.195   2.137 -0.3799 -0.6788 -0.1107
  149OSM   H15C16457   5.837   5.167   2.029 -0.5371  1.0686 -0.0448
  149OSM    C1416458   5.781   5.373   2.167  0.3431  0.2488 -0.2555
  149OSM   H14A16459   5.764   5.370   2.060  1.2044  2.0286 -0.4747
  149OSM   H14B16460   5.874   5.420   2.196  1.1393  0.1650 -2.4879
  149OSM   H14C16461   5.695   5.428   2.201 -0.2776  0.4079 -1.9724
  149OSM    C1316462   5.641   5.178   2.225 -0.1052  0.3265  0.1867
  149OSM   H13A16463   5.622   5.135   2.127  0.9365  2.3424 -0.9650
  149OSM   H13B16464   5.566   5.250   2.252  0.2115 -0.2030  2.7295
  149OSM   H13C16465   5.633   5.105   2.305 -2.4000  0.1309 -0.1474
  149OSM    C1216466   5.838   5.243   2.365 -0.3626  0.2790 -0.1579
  149OSM   H12A16467   5.844   5.146   2.411 -0.5111  1.1905  1.8821
  149OSM   H12B16468   5.773   5.299   2.431 -0.7694  1.1334 -1.2412
  149OSM    C1116469   5.976   5.304   2.389  0.2053 -0.4350  0.3163
  149OSM   H11A16470   6.040   5.264   2.308 -1.4599  0.5706 -1.6043
  149OSM   H11B16471   6.012   5.259   2.484 -0.4862 -1.7255 -0.0087
  149OSM      P16472   5.928   5.537   2.492 -0.1204 -0.1247 -0.4251
  149OSM    O1316473   6.045   5.578   2.575  0.9246 -0.1991  0.3099
  149OSM    O1416474   5.851   5.652   2.434  0.5985  0.3531  0.2212
  149OSM    O1116475   5.837   5.452   2.579  0.4603  0.2336  0.3849
  149OSM    O1216476   5.977   5.442   2.378  0.1367  0.2530  0.4219
  149OSM    C1S16477   5.850   5.428   2.716 -0.7316  0.7714  0.2889
  149OSM    H1S16478   5.886   5.524   2.760 -0.4935  1.6766 -1.7774
  149OSM    H1T16479   5.933   5.360   2.742 -0.0279  1.8374  0.9398
  149OSM     NF16480   5.740   5.360   2.926 -0.0395  0.3830 -0.3243
  149OSM    HNF16481   5.736   5.264   2.953 -1.4030  0.1865 -1.1398
  149OSM    C2S16482   5.713   5.397   2.793 -0.2645  0.1589  0.3162
  149OSM    H2S16483   5.656   5.492   2.787  0.0385  0.2928 -0.8501
  149OSM    C3S16484   5.627   5.300   2.703 -0.4027  0.2394 -0.2944
  149OSM    H3S16485   5.675   5.202   2.684  0.0795  0.0624  1.6721
  149OSM     O316486   5.605   5.350   2.568  0.1168 -0.0538 -0.2736
  149OSM    HO316487   5.680   5.405   2.544 -0.1842  0.5710  0.1859
  149OSM    C4S16488   5.499   5.274   2.780 -0.2007 -0.0668 -0.0942
  149OSM    H4S16489   5.503   5.188   2.848 -2.0967  0.1780  0.3582
  149OSM    C5S16490   5.385   5.342   2.777 -0.1124  0.4653  0.6232
  149OSM    H5S16491   5.372   5.420   2.701 -0.4512 -1.6942 -1.6529
  149OSM    C6S16492   5.263   5.298   2.858 -0.2175  0.0390  0.6593
  149OSM    H6S16493   5.191   5.247   2.791  1.9928 -1.2430 -0.8714
  149OSM    H6T16494   5.198   5.383   2.890 -2.7916 -0.9140 -1.6196
  149OSM    C7S16495   5.284   5.201   2.965 -0.4052 -0.7792 -0.2403
  149OSM    H7S16496   5.345   5.109   2.945 -0.2073 -0.6638 -0.1683
  149OSM    H7T16497   5.187   5.169   3.008 -0.7513  0.6366  0.0637
  149OSM    C8S16498   5.344   5.266   3.093  0.5570  0.1307  0.5042
  149OSM    H8S16499   5.281   5.356   3.109  1.3151  0.7232  0.2337
  149OSM    H8T16500   5.449   5.290   3.064 -0.4503  1.6273 -2.2945
  149OSM    C9S16501   5.347   5.168   3.212 -0.1013 -0.0189  0.3319
  149OSM    H9S16502   5.404   5.079   3.178 -0.2277  0.1535 -0.3368
  149OSM    H9T16503   5.243   5.132   3.231 -0.1297 -1.0023 -1.4731
  149OSM   C10S16504   5.420   5.225   3.339 -0.4569 -0.2112  0.1771
  149OSM   H10S16505   5.358   5.304   3.388  0.9712  1.1317 -0.1224
  149OSM   H10T16506   5.509   5.276   3.298 -0.7574 -1.2979 -1.9863
  149OSM   C11S16507   5.461   5.131   3.455  0.3805  0.6755 -0.0139
  149OSM   H11S16508   5.537   5.060   3.418  0.0180  0.0934  0.3390
  149OSM   H11T16509   5.371   5.081   3.497  0.3489  1.1138  0.4539
  149OSM   C12S16510   5.526   5.194   3.581  0.0150  0.6976 -0.6104
  149OSM   H12S16511   5.456   5.268   3.627 -0.0682  0.8259 -0.9408
  149OSM   H12T16512   5.614   5.250   3.543 -0.2300  0.4176 -1.6121
  149OSM   C13S16513   5.562   5.086   3.688  0.8234  0.6991 -0.8073
  149OSM   H13S16514   5.639   5.015   3.650 -0.7892 -2.4741  1.3603
  149OSM   H13T16515   5.478   5.016   3.711  2.2101 -0.8321 -0.2675
  149OSM   C14S16516   5.595   5.147   3.830  1.0642 -0.3834  0.1707
  149OSM   H14S16517   5.513   5.216   3.859 -0.1010 -1.9811  0.8956
  149OSM   H14T16518   5.682   5.213   3.810 -0.0592  1.1525  0.1556
  149OSM   C15S16519   5.601   5.046   3.944  0.1901  0.1277 -0.0529
  149OSM   H15S16520   5.625   4.946   3.901  1.8874 -0.5837  2.3412
  149OSM   H15T16521   5.504   5.035   3.996  0.6968 -2.5098  0.4831
  149OSM   C16S16522   5.717   5.067   4.050  0.4449  0.0001  0.0300
  149OSM   H16S16523   5.714   5.175   4.075 -1.9025 -0.5076  2.4181
  149OSM   H16T16524   5.810   5.039   3.998  0.2286 -0.5583 -0.0593
  149OSM   C17S16525   5.702   4.977   4.178 -0.3625 -0.0851  1.0718
  149OSM   H17S16526   5.708   4.868   4.160 -0.2518  0.3349 -2.0630
  149OSM   H17T16527   5.598   4.996   4.211 -1.4384 -1.3828 -1.3379
  149OSM   C18S16528   5.807   5.014   4.277  0.2893  0.0982  0.4479
  149OSM   H18S16529   5.909   4.998   4.238 -0.0870  1.0501 -0.9667
  149OSM   H18T16530   5.779   4.968   4.375  0.4202  1.0344  0.9430
  149OSM   H18U16531   5.798   5.124   4.290  0.2492  0.1576 -0.0917
  149OSM    C1F16532   5.786   5.460   3.009 -0.9748  0.1441  0.3365
  149OSM     OF16533   5.792   5.580   2.978 -0.3695 -0.2319 -0.3176
  149OSM    C2F16534   5.835   5.417   3.143  0.3651  0.1302 -0.6215
  149OSM    H2F16535   5.940   5.385   3.130  0.6764  1.1857 -0.8390
  149OSM    H2G16536   5.769   5.330   3.164 -0.0209  0.0591 -1.9707
  149OSM    C3F16537   5.819   5.523   3.248  0.0827 -0.2033  0.3900
  149OSM    H3F16538   5.724   5.580   3.242  1.0159  1.4334  0.2412
  149OSM    H3G16539   5.899   5.598   3.229  0.6887 -0.7975  0.5574
  149OSM    C4F16540   5.841   5.459   3.389 -0.2268 -0.8283  0.3511
  149OSM    H4F16541   5.948   5.433   3.405 -0.2853 -0.9499  0.5541
  149OSM    H4G16542   5.780   5.366   3.392  1.6067 -2.1562 -1.2280
  149OSM    C5F16543   5.801   5.548   3.503 -0.4255  0.6208 -0.3472
  149OSM    H5F16544   5.692   5.567   3.492 -0.7899  0.2111  2.1104
  149OSM    H5G16545   5.860   5.643   3.496  3.8290 -1.7832 -0.6247
  149OSM    C6F16546   5.822   5.478   3.636 -0.5022  0.4393 -0.3162
  149OSM    H6F16547   5.928   5.449   3.654  0.0147  1.3304 -1.7636
  149OSM    H6G16548   5.754   5.391   3.646 -3.1628  2.6124  1.9390
  149OSM    C7F16549   5.784   5.571   3.755  0.4315  0.1535  0.2619
  149OSM    H7F16550   5.686   5.612   3.722  0.2313 -1.0540 -0.7395
  149OSM    H7G16551   5.856   5.655   3.748  1.0799 -0.3412  0.9696
  149OSM    C8F16552   5.784   5.498   3.887 -0.0841 -0.5607 -0.3559
  149OSM    H8F16553   5.713   5.413   3.877 -1.5468  0.6999 -1.3005
  149OSM    H8G16554   5.735   5.569   3.958 -0.0601  0.7579 -1.6080
  149OSM    C9F16555   5.917   5.450   3.930 -0.6155  0.2751 -0.1978
  149OSM    H9F16556   5.989   5.471   3.850 -2.1169  1.3017 -1.3544
  149OSM   C10F16557   5.952   5.415   4.053 -0.0090  0.2778  0.3197
  149OSM   H10F16558   6.060   5.404   4.068 -0.0871  1.7939  2.4734
  149OSM   C11F16559   5.872   5.395   4.178 -0.0738 -0.3018  0.0724
  149OSM   H11F16560   5.883   5.290   4.213  2.1166 -0.2077 -0.2008
  149OSM   H11G16561   5.765   5.412   4.155  0.5793  1.2254 -2.1686
  149OSM   C12F16562   5.910   5.485   4.301  0.8971 -0.4512 -0.0506
  149OSM   H12F16563   5.842   5.460   4.385  0.4355  0.6080 -0.0842
  149OSM   H12G16564   5.891   5.594   4.285  1.8398  0.3534  3.3868
  149OSM   C13F16565   6.052   5.476   4.354 -0.1264  0.1055 -1.2674
  149OSM   H13F16566   6.068   5.539   4.444 -0.3972 -2.2696  0.5213
  149OSM   H13G16567   6.125   5.518   4.281 -0.1756 -2.6484 -3.0208
  149OSM   C14F16568   6.102   5.330   4.387  0.5510 -0.7469 -0.8290
  149OSM   H14F16569   6.092   5.285   4.286  1.7360 -2.1183 -0.3728
  149OSM   H14G16570   6.024   5.289   4.456 -0.7949  0.0426 -1.8357
  149OSM   C15F16571   6.242   5.331   4.449  0.3168 -0.0582 -0.2267
  149OSM   H15F16572   6.252   5.253   4.528 -1.4476  0.2245  0.3073
  149OSM   H15G16573   6.255   5.425   4.507 -2.0188 -1.1291  2.2559
  149OSM   C16F16574   6.355   5.309   4.350 -0.6321 -0.4566 -0.2291
  149OSM   H16F16575   6.349   5.380   4.265  1.3003  2.3877  1.8421
  149OSM   H16G16576   6.364   5.202   4.321  1.5614 -0.7299  1.1923
  149OSM   C17F16577   6.488   5.347   4.412 -0.0092 -0.0146 -0.2210
  149OSM   H17F16578   6.568   5.311   4.344 -1.1589 -3.5849  0.0991
  149OSM   H17G16579   6.507   5.278   4.497 -0.6819  0.9140  0.7075
  149OSM   C18F16580   6.508   5.491   4.454 -0.1718 -0.4598  0.3462
  149OSM   H18F16581   6.611   5.524   4.429 -0.2476 -0.5159 -0.0380
  149OSM   H18G16582   6.481   5.510   4.560  1.2959  0.0277  0.6568
  149OSM   H18H16583   6.445   5.562   4.398 -0.6320 -1.0960  0.0458
  150OSM      N16584   1.278   4.993   2.498  0.2287 -0.3190 -0.3138
  150OSM    C1516585   1.227   5.032   2.639 -0.2267  0.2224  0.5285
  150OSM   H15A16586   1.183   4.941   2.677 -0.6697 -0.7158 -1.9757
  150OSM   H15B16587   1.145   5.101   2.628  0.3019  0.7335 -0.2960
  150OSM   H15C16588   1.309   5.072   2.697  0.5421  0.7592 -0.8613
  150OSM    C1416589   1.380   4.886   2.520  1.1585  0.0095 -1.1098
  150OSM   H14A16590   1.448   4.928   2.593 -0.6678 -0.2754  0.8466
  150OSM   H14B16591   1.424   4.860   2.425 -0.5914 -0.5573 -1.8110
  150OSM   H14C16592   1.329   4.799   2.557  0.6191  1.2773  1.3193
  150OSM    C1316593   1.171   4.922   2.429  0.8337 -0.0470  0.2434
  150OSM   H13A16594   1.092   4.987   2.395  0.6915 -1.4537 -2.3296
  150OSM   H13B16595   1.116   4.860   2.498 -3.1931  0.8749 -1.8464
  150OSM   H13C16596   1.195   4.856   2.347  0.3747  1.0196 -0.7761
  150OSM    C1216597   1.332   5.103   2.412 -0.1431  0.3978  0.0374
  150OSM   H12A16598   1.344   5.069   2.310 -0.0421  3.7187 -1.1974
  150OSM   H12B16599   1.428   5.136   2.448  0.2172  0.1013 -0.6408
  150OSM    C1116600   1.241   5.231   2.394  0.3212 -0.2449  0.2831
  150OSM   H11A16601   1.294   5.300   2.325  1.3214 -0.8034  0.4763
  150OSM   H11B16602   1.227   5.283   2.492  0.9549  0.6185 -0.0709
  150OSM      P16603   0.971   5.212   2.391  0.1074  0.3565  0.3240
  150OSM    O1316604   0.892   5.258   2.270 -0.7599  0.7693 -0.0450
  150OSM    O1416605   0.917   5.098   2.463  0.0120  0.4542  0.3239
  150OSM    O1116606   0.994   5.338   2.487  0.0247 -0.1633  0.2902
  150OSM    O1216607   1.114   5.186   2.333 -0.3721 -0.0615  0.5380
  150OSM    C1S16608   0.963   5.314   2.630  0.1245 -0.1683  0.7560
  150OSM    H1S16609   1.034   5.246   2.682  0.7156 -0.8522 -0.8730
  150OSM    H1T16610   0.861   5.270   2.640 -0.1184 -0.0228 -0.7744
  150OSM     NF16611   0.940   5.430   2.853 -0.4210  0.7512 -0.1724
  150OSM    HNF16612   0.856   5.447   2.904  1.2820 -0.0609  3.2661
  150OSM    C2S16613   0.956   5.444   2.712 -0.7113  0.3610  0.2112
  150OSM    H2S16614   1.050   5.499   2.689  0.4975 -1.6820 -0.0260
  150OSM    C3S16615   0.845   5.539   2.657 -0.6480 -0.7782 -0.0471
  150OSM    H3S16616   0.749   5.483   2.652 -1.1522  0.1552 -1.0775
  150OSM     O316617   0.874   5.577   2.523  0.3468  0.8632 -0.6370
  150OSM    HO316618   0.933   5.506   2.494  0.8975  0.9558  0.2184
  150OSM    C4S16619   0.823   5.657   2.750  0.9072 -0.8515  0.0845
  150OSM    H4S16620   0.740   5.646   2.821  0.4184  0.6543 -0.2283
  150OSM    C5S16621   0.888   5.779   2.749  0.2669 -0.0475 -0.1276
  150OSM    H5S16622   0.954   5.807   2.666  0.0860  0.5351 -0.0783
  150OSM    C6S16623   0.862   5.891   2.851 -0.1198 -0.2746 -0.3615
  150OSM    H6S16624   0.812   5.977   2.800  1.1225 -0.1098 -1.3636
  150OSM    H6T16625   0.956   5.944   2.877 -0.5539  0.1908  0.2857
  150OSM    C7S16626   0.782   5.869   2.985 -0.3038  0.3486 -0.1861
  150OSM    H7S16627   0.677   5.836   2.965  0.9939 -4.2313 -0.4770
  150OSM    H7T16628   0.783   5.967   3.038  0.0771  0.3424 -0.1831
  150OSM    C8S16629   0.844   5.763   3.079 -0.0808  0.7488  0.4477
  150OSM    H8S16630   0.951   5.793   3.077 -0.8905  4.0814 -1.6104
  150OSM    H8T16631   0.832   5.672   3.017 -1.6732  2.2096 -1.5694
  150OSM    C9S16632   0.776   5.750   3.223 -0.4109  0.7747  0.2843
  150OSM    H9S16633   0.670   5.716   3.211 -0.1080 -0.2526  0.4406
  150OSM    H9T16634   0.783   5.847   3.276 -0.2860  0.9139  0.0142
  150OSM   C10S16635   0.833   5.641   3.314 -0.3485 -0.0075 -0.0676
  150OSM   H10S16636   0.944   5.652   3.315 -0.3790  0.4334  1.4437
  150OSM   H10T16637   0.808   5.545   3.264  3.1242 -1.1823  0.2210
  150OSM   C11S16638   0.787   5.650   3.458  0.0343  0.5911  0.1162
  150OSM   H11S16639   0.677   5.635   3.454  0.1099 -0.3414  1.2151
  150OSM   H11T16640   0.808   5.752   3.495 -1.2704  1.1236 -0.5516
  150OSM   C12S16641   0.829   5.546   3.558  0.0849 -0.2658  0.3357
  150OSM   H12S16642   0.929   5.571   3.601  0.0551 -1.6010  1.2576
  150OSM   H12T16643   0.828   5.445   3.511  2.8914  0.0660 -0.6175
  150OSM   C13S16644   0.752   5.568   3.685 -0.5140 -0.7094  0.2177
  150OSM   H13S16645   0.641   5.569   3.674 -0.4635  0.5792 -0.4555
  150OSM   H13T16646   0.770   5.672   3.720 -0.8484 -0.5740 -0.0016
  150OSM   C14S16647   0.775   5.460   3.781 -0.7375 -0.4302 -0.5928
  150OSM   H14S16648   0.884   5.440   3.790 -0.3036  0.7598 -2.6420
  150OSM   H14T16649   0.748   5.355   3.755 -1.1412 -0.8638  1.3582
  150OSM   C15S16650   0.710   5.486   3.921  0.4812  0.5273  0.2779
  150OSM   H15S16651   0.725   5.399   3.989  1.2551  0.4816  0.0673
  150OSM   H15T16652   0.602   5.508   3.914  0.6783  1.6480  0.5311
  150OSM   C16S16653   0.762   5.609   4.001 -0.5367 -0.3630  0.4226
  150OSM   H16S16654   0.748   5.704   3.946  2.3965 -0.1465 -0.0704
  150OSM   H16T16655   0.871   5.592   4.004 -0.7422 -2.5516 -1.5901
  150OSM   C17S16656   0.691   5.634   4.134 -0.1313  0.5808  0.3245
  150OSM   H17S16657   0.748   5.718   4.178  0.7904  0.7733 -1.1813
  150OSM   H17T16658   0.712   5.542   4.193  0.8341  2.1160  2.5363
  150OSM   C18S16659   0.543   5.659   4.139 -0.4758 -0.4014  0.3008
  150OSM   H18S16660   0.519   5.736   4.062 -2.4722 -1.5939 -0.3294
  150OSM   H18T16661   0.519   5.697   4.240 -1.8846  1.3708 -0.6408
  150OSM   H18U16662   0.499   5.560   4.116  1.5649 -1.5603  1.1421
  150OSM    C1F16663   1.033   5.388   2.945  0.8726  0.1086  0.4721
  150OSM     OF16664   1.146   5.353   2.919 -0.4728 -0.1566  0.2291
  150OSM    C2F16665   0.987   5.387   3.090  0.1969 -0.5839  0.6834
  150OSM    H2F16666   0.898   5.452   3.104  0.8483  0.7239 -0.9013
  150OSM    H2G16667   1.064   5.436   3.153  1.2588  1.8680 -2.2677
  150OSM    C3F16668   0.962   5.245   3.132  0.1447  0.2997 -0.5504
  150OSM    H3F16669   1.046   5.178   3.102  1.7609  1.7808  0.4501
  150OSM    H3G16670   0.868   5.201   3.093  0.2704 -0.3403 -0.1416
  150OSM    C4F16671   0.959   5.233   3.287 -0.1351 -0.4457  0.3923
  150OSM    H4F16672   0.919   5.133   3.315 -0.9763 -0.2107  0.0690
  150OSM    H4G16673   0.889   5.314   3.319  0.8611  0.7867 -0.4278
  150OSM    C5F16674   1.100   5.256   3.347  0.3977  0.2276  0.2528
  150OSM    H5F16675   1.134   5.358   3.319 -1.8678  1.6814  2.3968
  150OSM    H5G16676   1.174   5.184   3.304 -1.0522 -0.7478 -0.7039
  150OSM    C6F16677   1.097   5.240   3.503  0.6348  0.2557  0.3327
  150OSM    H6F16678   1.024   5.312   3.546  1.1553  1.1025 -0.1725
  150OSM    H6G16679   1.198   5.276   3.532 -0.1065  1.4276  1.5503
  150OSM    C7F16680   1.078   5.099   3.548  0.0612  0.7930  0.4982
  150OSM    H7F16681   1.147   5.022   3.508 -0.2788  1.2542 -1.0783
  150OSM    H7G16682   0.983   5.053   3.514  0.1419  0.5579  0.5912
  150OSM    C8F16683   1.082   5.090   3.702 -0.7232  0.2539 -0.4479
  150OSM    H8F16684   1.188   5.114   3.728 -1.2895  0.4984  1.8466
  150OSM    H8G16685   1.061   4.983   3.725 -0.2164 -0.2304 -2.0888
  150OSM    C9F16686   0.980   5.155   3.780 -0.5607 -0.0680  0.0944
  150OSM    H9F16687   0.878   5.164   3.741 -1.6567  0.3420  2.7842
  150OSM   C10F16688   1.001   5.197   3.906 -0.7127  0.2114 -0.2677
  150OSM   H10F16689   0.907   5.235   3.949 -0.3304  1.7553 -0.7382
  150OSM   C11F16690   1.126   5.181   3.997  0.8148 -0.0462  0.0484
  150OSM   H11F16691   1.207   5.252   3.968 -0.1426  1.3769  0.6937
  150OSM   H11G16692   1.178   5.084   3.985  0.4919 -0.1404 -0.5978
  150OSM   C12F16693   1.097   5.211   4.147 -0.2726  0.2012 -0.1342
  150OSM   H12F16694   1.196   5.197   4.196  1.3032 -1.1029 -3.4286
  150OSM   H12G16695   1.011   5.155   4.190 -0.5733  2.8183  3.0954
  150OSM   C13F16696   1.073   5.358   4.179  0.5898 -0.2766  0.0935
  150OSM   H13F16697   0.992   5.402   4.117 -0.8571 -1.6357  0.9265
  150OSM   H13G16698   1.166   5.415   4.159  0.1706 -0.3937 -2.4173
  150OSM   C14F16699   1.031   5.377   4.327  0.4369 -0.1748  0.1933
  150OSM   H14F16700   1.103   5.323   4.392 -1.5956 -1.0763  1.8289
  150OSM   H14G16701   0.932   5.329   4.345  0.6031 -1.9504 -2.9611
  150OSM   C15F16702   1.022   5.522   4.372  0.5223  0.1662  0.5298
  150OSM   H15F16703   0.950   5.568   4.302  1.0461 -1.7587 -1.3796
  150OSM   H15G16704   1.120   5.571   4.355  1.1296 -1.4389 -0.8524
  150OSM   C16F16705   0.967   5.529   4.516  0.3479  0.6547 -0.1378
  150OSM   H16F16706   1.033   5.460   4.575 -1.4387 -0.1582  1.0061
  150OSM   H16G16707   0.861   5.500   4.526 -0.0432  2.1719  0.3120
  150OSM   C17F16708   0.978   5.666   4.577  0.0990 -0.3329  0.3194
  150OSM   H17F16709   0.929   5.741   4.512 -1.7765 -0.7205  1.2335
  150OSM   H17G16710   1.087   5.691   4.575  0.4293 -1.5940 -2.7868
  150OSM   C18F16711   0.924   5.672   4.716  0.1626 -0.3620 -0.5065
  150OSM   H18F16712   0.926   5.769   4.771  0.2131  0.0287 -1.1820
  150OSM   H18G16713   0.978   5.594   4.774 -0.1880 -1.0164 -1.0466
  150OSM   H18H16714   0.814   5.658   4.721  0.0733  0.4102 -0.0263
  151OSM      N16715   1.961   5.294   2.229  0.2667  0.2314  0.0976
  151OSM    C1516716   1.999   5.274   2.086  0.1688  0.2198 -0.6263
  151OSM   H15A16717   1.918   5.240   2.024 -1.6322  0.7160  1.3365
  151OSM   H15B16718   2.086   5.210   2.086 -0.5573 -1.0321  3.3224
  151OSM   H15C16719   2.027   5.368   2.042 -0.4034  0.9003  0.4317
  151OSM    C1416720   1.841   5.378   2.234 -0.5281  0.1953  0.3191
  151OSM   H14A16721   1.864   5.453   2.160 -1.1662 -1.3092 -1.4916
  151OSM   H14B16722   1.830   5.415   2.335 -0.3575 -2.1500  1.2615
  151OSM   H14C16723   1.753   5.320   2.211 -0.3851 -1.1972  2.9026
  151OSM    C1316724   1.932   5.163   2.287 -0.1497 -0.0543 -0.5037
  151OSM   H13A16725   1.872   5.104   2.220  0.1601 -0.1788 -0.6712
  151OSM   H13B16726   1.877   5.172   2.379  1.2992  1.7735  0.2546
  151OSM   H13C16727   2.021   5.115   2.324  0.3414  0.6627 -0.7261
  151OSM    C1216728   2.080   5.370   2.295 -0.2224  0.1257 -0.0962
  151OSM   H12A16729   2.096   5.462   2.242 -2.1502  0.8891  0.5715
  151OSM   H12B16730   2.174   5.316   2.284  0.2282  1.1007 -1.3761
  151OSM    C1116731   2.060   5.401   2.448 -0.3141 -0.1832  0.4203
  151OSM   H11A16732   1.963   5.455   2.452  0.0725  0.6117 -0.4822
  151OSM   H11B16733   2.124   5.476   2.499 -0.7708 -1.2711  2.7201
  151OSM      P16734   2.189   5.205   2.553  0.2246 -0.3862  0.3521
  151OSM    O1316735   2.156   5.083   2.626 -0.1505 -0.0075 -0.1723
  151OSM    O1416736   2.261   5.189   2.425  0.1936 -0.0021 -0.4488
  151OSM    O1116737   2.271   5.311   2.641 -0.3172 -0.0979 -0.2823
  151OSM    O1216738   2.052   5.282   2.529  0.3020 -0.0539 -0.5516
  151OSM    C1S16739   2.207   5.352   2.764  0.4632 -0.3947  0.6546
  151OSM    H1S16740   2.123   5.284   2.793  1.1782 -0.2266  3.4076
  151OSM    H1T16741   2.162   5.452   2.748 -1.0178 -0.8440  1.7099
  151OSM     NF16742   2.229   5.402   2.998  0.7412 -0.2726 -0.2723
  151OSM    HNF16743   2.258   5.481   3.051 -0.1460 -1.6513  2.4251
  151OSM    C2S16744   2.302   5.362   2.876 -0.1518 -1.5305 -0.0217
  151OSM    H2S16745   2.335   5.258   2.894 -0.4254 -1.2678  2.3584
  151OSM    C3S16746   2.425   5.458   2.844  0.5366  1.2178 -0.3635
  151OSM    H3S16747   2.384   5.559   2.825 -1.0654  0.6198 -0.2286
  151OSM     O316748   2.496   5.444   2.723 -0.5966 -0.3565  0.1770
  151OSM    HO316749   2.434   5.403   2.661 -0.7199 -2.6169  1.6673
  151OSM    C4S16750   2.524   5.468   2.958 -0.7250  0.0656  0.3300
  151OSM    H4S16751   2.518   5.561   3.018 -2.1719 -0.5342  1.1682
  151OSM    C5S16752   2.614   5.373   2.993 -0.3788 -0.4355 -0.1675
  151OSM    H5S16753   2.607   5.277   2.939 -0.6634  0.1753 -1.2439
  151OSM    C6S16754   2.711   5.377   3.107 -0.2142  0.6836 -0.7816
  151OSM    H6S16755   2.734   5.485   3.121 -1.0036  0.9216 -1.2359
  151OSM    H6T16756   2.805   5.329   3.072 -0.6425 -0.3532 -0.5234
  151OSM    C7S16757   2.658   5.308   3.236 -0.1147 -0.3725  0.2895
  151OSM    H7S16758   2.661   5.200   3.213  1.8579 -0.7017  1.8557
  151OSM    H7T16759   2.550   5.333   3.249 -0.2558 -1.0875  0.5139
  151OSM    C8S16760   2.740   5.333   3.362  0.3038  0.1896  0.1395
  151OSM    H8S16761   2.846   5.355   3.335  0.1347 -1.0927 -1.8219
  151OSM    H8T16762   2.749   5.238   3.419  1.6252  0.4370  0.3879
  151OSM    C9S16763   2.690   5.431   3.463  0.4603 -0.2743 -0.3070
  151OSM    H9S16764   2.589   5.401   3.499  0.6277 -0.1157  0.3192
  151OSM    H9T16765   2.683   5.526   3.406  0.0043 -1.4083 -2.2164
  151OSM   C10S16766   2.785   5.449   3.583  0.5095  0.4019  0.3038
  151OSM   H10S16767   2.885   5.482   3.549  1.3197 -0.6407  1.5518
  151OSM   H10T16768   2.799   5.349   3.630 -3.0246 -0.1256  0.5311
  151OSM   C11S16769   2.737   5.546   3.695  0.0900  0.2605  1.0025
  151OSM   H11S16770   2.644   5.494   3.725 -0.3040  1.5645  2.1140
  151OSM   H11T16771   2.718   5.644   3.647  1.0092  0.3588  0.8114
  151OSM   C12S16772   2.830   5.556   3.816  0.0257  0.0244 -0.6278
  151OSM   H12S16773   2.917   5.614   3.777 -1.1876  2.4207  0.0023
  151OSM   H12T16774   2.854   5.454   3.852  1.6652  0.7296  0.4440
  151OSM   C13S16775   2.768   5.643   3.937  0.1152  0.0203  0.2102
  151OSM   H13S16776   2.693   5.568   3.970 -0.5731 -0.4926 -2.2951
  151OSM   H13T16777   2.708   5.729   3.900 -1.2321 -1.3789 -0.9910
  151OSM   C14S16778   2.861   5.678   4.047  0.2062  0.3856  0.1446
  151OSM   H14S16779   2.940   5.744   4.004  0.2718  0.8643  0.9623
  151OSM   H14T16780   2.910   5.588   4.091  0.2909  1.3201  2.1124
  151OSM   C15S16781   2.801   5.766   4.157  0.6482  0.0931  0.0426
  151OSM   H15S16782   2.706   5.715   4.185 -1.1058  3.2186  0.2628
  151OSM   H15T16783   2.768   5.864   4.117 -1.8454 -1.0329 -0.9181
  151OSM   C16S16784   2.887   5.785   4.287 -0.0326  0.2491  0.1011
  151OSM   H16S16785   2.988   5.826   4.270 -0.4075  0.7842 -0.9210
  151OSM   H16T16786   2.918   5.687   4.329  1.0558  0.2538 -0.6685
  151OSM   C17S16787   2.823   5.859   4.409 -0.3804  0.1597  0.8367
  151OSM   H17S16788   2.734   5.802   4.444 -0.0019 -1.4350 -0.6818
  151OSM   H17T16789   2.793   5.953   4.359  1.1471 -0.5640 -1.6452
  151OSM   C18S16790   2.923   5.889   4.525  0.1624  0.1822  0.1599
  151OSM   H18S16791   2.874   5.939   4.611  0.8129  0.4776  0.3585
  151OSM   H18T16792   3.003   5.957   4.489  0.6339 -0.1439  0.5783
  151OSM   H18U16793   2.980   5.797   4.548 -0.1187 -0.2253 -0.7121
  151OSM    C1F16794   2.117   5.338   3.040  0.3001  0.0070  0.5177
  151OSM     OF16795   2.094   5.217   3.015  0.3242 -0.4381 -0.0687
  151OSM    C2F16796   2.026   5.418   3.130  0.4190 -0.2026  0.0183
  151OSM    H2F16797   2.012   5.517   3.081 -0.9217  0.5396  1.7886
  151OSM    H2G16798   2.079   5.440   3.225  0.2393 -1.7209  0.4965
  151OSM    C3F16799   1.891   5.353   3.156  0.3216 -1.0579 -0.5470
  151OSM    H3F16800   1.868   5.271   3.086  0.9372 -0.3532 -1.6014
  151OSM    H3G16801   1.813   5.431   3.141 -0.4005 -1.5474  0.5296
  151OSM    C4F16802   1.884   5.305   3.303  0.5887 -0.1877  0.3017
  151OSM    H4F16803   1.988   5.279   3.331  2.1338  3.6089 -1.2657
  151OSM    H4G16804   1.821   5.213   3.298 -0.0839  0.3193 -2.2673
  151OSM    C5F16805   1.828   5.421   3.394  0.6882  0.3133  0.2910
  151OSM    H5F16806   1.723   5.431   3.358  0.8234  1.4045  0.1836
  151OSM    H5G16807   1.876   5.519   3.375 -0.8873  1.4614  1.8991
  151OSM    C6F16808   1.840   5.405   3.548 -0.8520 -0.2945  0.0157
  151OSM    H6F16809   1.948   5.422   3.569 -0.5369 -1.7750 -0.3347
  151OSM    H6G16810   1.820   5.299   3.572 -3.0166 -0.3935 -1.8767
  151OSM    C7F16811   1.757   5.502   3.618  0.6701 -0.8406  0.0711
  151OSM    H7F16812   1.649   5.498   3.591  0.9315  1.6390 -1.6229
  151OSM    H7G16813   1.801   5.599   3.587  1.0398 -0.4871  1.6067
  151OSM    C8F16814   1.761   5.486   3.775  0.3145  0.6485  0.5357
  151OSM    H8F16815   1.730   5.382   3.800 -0.8338  0.3380 -1.9186
  151OSM    H8G16816   1.687   5.556   3.820 -0.8468  0.4075 -0.9315
  151OSM    C9F16817   1.900   5.517   3.821  0.6048 -0.4331  0.6515
  151OSM    H9F16818   1.934   5.615   3.785  0.5521 -0.1452  1.3629
  151OSM   C10F16819   1.987   5.431   3.873  0.6750 -0.2609 -0.7009
  151OSM   H10F16820   2.085   5.474   3.895  1.4133 -1.8644 -0.6788
  151OSM   C11F16821   1.957   5.297   3.926  0.1084  0.0374 -0.0692
  151OSM   H11F16822   1.969   5.221   3.846 -1.0555  0.9800 -1.1604
  151OSM   H11G16823   1.857   5.303   3.974  0.2767 -0.7433  0.4172
  151OSM   C12F16824   2.032   5.256   4.053  0.3028 -1.0758 -0.1158
  151OSM   H12F16825   2.135   5.291   4.032  0.3359 -0.1576  1.3861
  151OSM   H12G16826   2.040   5.145   4.054  1.2649 -1.0071  0.4009
  151OSM   C13F16827   1.989   5.323   4.183  0.1335 -0.3929 -0.9384
  151OSM   H13F16828   1.898   5.276   4.226  0.2331  1.8909  2.1415
  151OSM   H13G16829   1.959   5.429   4.168 -2.0952 -0.7853  0.3529
  151OSM   C14F16830   2.099   5.304   4.293 -0.5498 -0.4196 -0.2161
  151OSM   H14F16831   2.193   5.355   4.266  0.9873 -2.9495  0.0206
  151OSM   H14G16832   2.119   5.195   4.296 -1.1822 -0.5475 -0.3857
  151OSM   C15F16833   2.069   5.361   4.435  0.1054 -0.3277 -0.1018
  151OSM   H15F16834   2.020   5.460   4.428 -0.6628 -0.6701  0.3060
  151OSM   H15G16835   2.168   5.377   4.482 -0.1143  0.9782 -0.0362
  151OSM   C16F16836   1.976   5.263   4.515  0.3116  0.1310 -0.4267
  151OSM   H16F16837   2.027   5.165   4.508  1.6397  0.5634  2.1558
  151OSM   H16G16838   1.874   5.261   4.471 -0.0390  3.0252  0.0497
  151OSM   C17F16839   1.955   5.315   4.663 -0.3526 -0.8599  0.1944
  151OSM   H17F16840   2.056   5.335   4.704 -0.9447 -0.3066  1.4473
  151OSM   H17G16841   1.908   5.242   4.731 -0.5591 -0.0225  0.9725
  151OSM   C18F16842   1.851   5.433   4.660 -0.1005 -0.1954  0.4974
  151OSM   H18F16843   1.900   5.532   4.652  0.9619 -0.5438  2.3071
  151OSM   H18G16844   1.784   5.438   4.749 -0.9436 -1.1424 -0.0569
  151OSM   H18H16845   1.788   5.426   4.568  0.4816  0.1472  0.0677
  152OSM      N16846   6.322   0.376   2.434 -0.2189  0.0198  0.0334
  152OSM    C1516847   6.244   0.475   2.360  0.0789 -0.3309 -0.1608
  152OSM   H15A16848   6.214   0.561   2.418  0.6017  0.5234 -1.1220
  152OSM   H15B16849   6.162   0.433   2.304  0.1364  1.5188 -1.7109
  152OSM   H15C16850   6.304   0.525   2.285 -0.2893 -0.4481 -0.5360
  152OSM    C1416851   6.463   0.424   2.481  0.3431 -0.5540 -0.0040
  152OSM   H14A16852   6.528   0.435   2.394  0.2303  0.3682  0.0185
  152OSM   H14B16853   6.510   0.339   2.529  0.5558 -1.6343 -2.0009
  152OSM   H14C16854   6.454   0.509   2.546  0.1654  0.0322 -0.7797
  152OSM    C1316855   6.259   0.335   2.568 -0.1617 -0.0792 -0.2741
  152OSM   H13A16856   6.302   0.244   2.607  1.8707  0.3267 -1.4353
  152OSM   H13B16857   6.154   0.316   2.552 -0.6371  2.3241 -0.4043
  152OSM   H13C16858   6.268   0.419   2.637  0.8875  0.8534 -1.5076
  152OSM    C1216859   6.343   0.253   2.346 -0.0389  0.1489  0.4943
  152OSM   H12A16860   6.388   0.286   2.253  2.4862  0.2924  1.6816
  152OSM   H12B16861   6.246   0.211   2.320  0.8418 -2.3145  0.9073
  152OSM    C1116862   6.415   0.129   2.416  0.2495  0.5824  0.4864
  152OSM   H11A16863   6.410   0.047   2.342 -2.1131 -0.5733  1.8157
  152OSM   H11B16864   6.350   0.097   2.500 -1.2733  0.3221 -0.7523
  152OSM      P16865   6.613   0.056   2.547  0.1947 -0.1878 -0.4681
  152OSM    O1316866   6.534  -0.069   2.541 -0.0326  0.3628 -0.2386
  152OSM    O1416867   6.757   0.047   2.520 -0.3758 -0.1612  0.0477
  152OSM    O1116868   6.593   0.131   2.685  0.0428 -0.6057  0.2761
  152OSM    O1216869   6.544   0.157   2.449  0.0610 -0.1325 -0.5558
  152OSM    C1S16870   6.617   0.067   2.813  0.3317 -0.3513  0.6040
  152OSM    H1S16871   6.723   0.083   2.843 -0.3088  2.0774  1.7530
  152OSM    H1T16872   6.605  -0.043   2.802  2.5149 -0.5156 -0.8283
  152OSM     NF16873   6.566   0.051   3.058 -0.2440 -0.2502  0.3888
  152OSM    HNF16874   6.499  -0.011   3.098 -0.5263  1.0267  1.9939
  152OSM    C2S16875   6.530   0.123   2.931  0.5749 -0.4797 -0.4977
  152OSM    H2S16876   6.549   0.232   2.939 -0.4636 -0.2891 -0.5752
  152OSM    C3S16877   6.383   0.100   2.895 -1.3908 -0.4360 -0.9165
  152OSM    H3S16878   6.362  -0.008   2.908 -5.1935  0.2385 -0.2422
  152OSM     O316879   6.349   0.128   2.762 -0.1725  0.4541  0.5951
  152OSM    HO316880   6.430   0.161   2.724  0.5738  0.1706  1.8644
  152OSM    C4S16881   6.296   0.167   2.991 -0.0023  0.7564 -0.1155
  152OSM    H4S16882   6.261   0.100   3.071  0.9112 -0.5742 -0.7843
  152OSM    C5S16883   6.252   0.291   2.983 -0.0086 -0.6263 -0.9508
  152OSM    H5S16884   6.299   0.360   2.911 -1.3837  2.7492  1.1411
  152OSM    C6S16885   6.154   0.354   3.082  0.3208  0.6126  0.2050
  152OSM    H6S16886   6.058   0.342   3.028  1.1671  1.4560 -1.5811
  152OSM    H6T16887   6.170   0.464   3.089 -0.7881  0.9063 -1.4207
  152OSM    C7S16888   6.136   0.288   3.223 -1.1916  0.3311 -0.7803
  152OSM    H7S16889   6.242   0.265   3.248 -1.0656  1.7808  0.1258
  152OSM    H7T16890   6.085   0.189   3.223 -0.6184  0.0051  0.9310
  152OSM    C8S16891   6.070   0.379   3.320  0.4411 -0.3555 -0.0663
  152OSM    H8S16892   5.988   0.430   3.265 -0.0239  1.9349  2.5251
  152OSM    H8T16893   6.139   0.463   3.344 -1.1916  1.1055 -0.2616
  152OSM    C9S16894   6.042   0.312   3.455  0.8945  0.3682  0.6680
  152OSM    H9S16895   6.137   0.268   3.490  0.1273 -3.2762 -1.2882
  152OSM    H9T16896   5.979   0.223   3.434 -0.8600  1.4547  1.1166
  152OSM   C10S16897   5.980   0.392   3.571  0.2501  0.9709  0.1347
  152OSM   H10S16898   5.877   0.425   3.545  0.3762  1.9109  0.7818
  152OSM   H10T16899   6.050   0.478   3.580  0.4896  0.5972  2.6854
  152OSM   C11S16900   5.967   0.311   3.698  0.7010  0.0357 -0.2188
  152OSM   H11S16901   6.065   0.264   3.722 -0.1513 -1.2877  0.8359
  152OSM   H11T16902   5.899   0.226   3.673 -0.2393  1.2683 -1.9913
  152OSM   C12S16903   5.929   0.387   3.828 -0.4713  0.0332 -0.1217
  152OSM   H12S16904   5.836   0.442   3.801 -0.2734 -0.0165 -0.9259
  152OSM   H12T16905   6.004   0.465   3.854 -0.4335  0.5865 -1.7542
  152OSM   C13S16906   5.907   0.293   3.945  0.7108  0.0250  0.2529
  152OSM   H13S16907   6.006   0.244   3.951  0.2821 -1.2074 -1.8301
  152OSM   H13T16908   5.831   0.214   3.929  0.7488  0.2988 -1.5710
  152OSM   C14S16909   5.861   0.377   4.065 -0.3147  0.2347  0.8860
  152OSM   H14S16910   5.768   0.434   4.042 -0.8887  0.2180  2.9259
  152OSM   H14T16911   5.934   0.447   4.109 -1.3795 -0.8199  4.7625
  152OSM   C15S16912   5.817   0.297   4.191 -0.2061  0.4660  0.7450
  152OSM   H15S16913   5.738   0.224   4.161  0.7170  0.1164 -0.9757
  152OSM   H15T16914   5.754   0.357   4.260 -1.3958  0.4053 -0.2514
  152OSM   C16S16915   5.937   0.242   4.264  0.0714 -0.0856 -0.0158
  152OSM   H16S16916   6.008   0.320   4.298  2.3050 -2.6014  1.4647
  152OSM   H16T16917   6.000   0.178   4.199 -0.9454  0.7152 -1.8681
  152OSM   C17S16918   5.911   0.157   4.391  0.9292  0.8639 -0.3482
  152OSM   H17S16919   6.012   0.121   4.419  0.9571  0.5267 -0.8706
  152OSM   H17T16920   5.850   0.068   4.364  2.5127 -0.0315 -1.0888
  152OSM   C18S16921   5.848   0.235   4.505 -0.7051  0.3034  0.2294
  152OSM   H18S16922   5.743   0.267   4.490 -0.6443  1.4620  1.9847
  152OSM   H18T16923   5.914   0.317   4.541  1.5919 -1.1813 -0.3274
  152OSM   H18U16924   5.843   0.154   4.582 -0.8039 -1.0001 -1.0893
  152OSM    C1F16925   6.682   0.070   3.120 -0.3065  0.1875  0.0151
  152OSM     OF16926   6.775   0.130   3.067  0.3508  0.0563 -0.2761
  152OSM    C2F16927   6.698   0.017   3.258 -0.2045 -0.4324 -1.2346
  152OSM    H2F16928   6.611  -0.042   3.295 -0.4306  0.8022  0.3127
  152OSM    H2G16929   6.714   0.100   3.329  2.8171 -1.0740 -1.0490
  152OSM    C3F16930   6.823  -0.074   3.285  0.0087  0.2940  0.1391
  152OSM    H3F16931   6.913  -0.008   3.279 -0.6706  1.1201 -1.5596
  152OSM    H3G16932   6.832  -0.154   3.209  1.3324  0.6011 -0.0527
  152OSM    C4F16933   6.827  -0.142   3.427  0.0115  0.0514  0.3915
  152OSM    H4F16934   6.929  -0.183   3.437  0.5742  1.0175 -0.9611
  152OSM    H4G16935   6.752  -0.224   3.421  0.4594 -0.3800  0.6637
  152OSM    C5F16936   6.799  -0.047   3.541  0.1116 -0.2424  0.2225
  152OSM    H5F16937   6.688  -0.042   3.544  0.0458 -1.5721  0.4012
  152OSM    H5G16938   6.842   0.055   3.536 -0.4698  0.0756  1.3153
  152OSM    C6F16939   6.839  -0.107   3.674  0.1905  0.5695 -0.0742
  152OSM    H6F16940   6.923  -0.179   3.666  1.4789  1.6107  2.7696
  152OSM    H6G16941   6.760  -0.178   3.706  1.6129 -0.3507  1.5805
  152OSM    C7F16942   6.882  -0.007   3.791 -0.4906 -0.0807 -0.4208
  152OSM    H7F16943   6.948   0.058   3.730 -0.9632  0.6000 -0.2166
  152OSM    H7G16944   6.947  -0.057   3.865 -1.4812  0.3496  0.7726
  152OSM    C8F16945   6.779   0.093   3.846 -0.4244  0.0991 -0.7262
  152OSM    H8F16946   6.762   0.176   3.774  1.2829 -0.3314 -1.6691
  152OSM    H8G16947   6.828   0.142   3.933 -0.5144 -0.5621 -0.2950
  152OSM    C9F16948   6.659   0.026   3.902 -0.2280  0.3338  1.0332
  152OSM    H9F16949   6.666  -0.084   3.900 -0.6686  0.3110 -0.2244
  152OSM   C10F16950   6.535   0.082   3.910 -0.3796  0.4380 -0.2569
  152OSM   H10F16951   6.456   0.019   3.955  0.1598  0.7716  1.2321
  152OSM   C11F16952   6.506   0.227   3.891  0.0049  0.3858  0.3109
  152OSM   H11F16953   6.402   0.241   3.855 -0.7018 -1.8346  1.2710
  152OSM   H11G16954   6.572   0.275   3.816  0.6866  1.6217  1.6537
  152OSM   C12F16955   6.513   0.311   4.021 -0.1704  0.0344  0.3256
  152OSM   H12F16956   6.460   0.408   4.006 -4.3413 -2.3555 -2.7628
  152OSM   H12G16957   6.614   0.336   4.060 -1.2395  0.5241  3.0443
  152OSM   C13F16958   6.428   0.252   4.138 -0.6844 -0.4956 -0.7320
  152OSM   H13F16959   6.460   0.147   4.150 -3.7385 -1.2564  2.1055
  152OSM   H13G16960   6.319   0.253   4.114 -0.7782 -0.2154 -0.3115
  152OSM   C14F16961   6.450   0.325   4.265  0.2785 -0.0117 -0.1886
  152OSM   H14F16962   6.445   0.433   4.242  1.9498  0.5483  1.7765
  152OSM   H14G16963   6.553   0.305   4.303  1.2157  1.4086 -1.8506
  152OSM   C15F16964   6.339   0.294   4.371  0.2352  0.6268 -0.2714
  152OSM   H15F16965   6.273   0.213   4.334  2.5093 -1.3777 -0.2114
  152OSM   H15G16966   6.278   0.381   4.401  1.0190  1.1132 -0.0607
  152OSM   C16F16967   6.392   0.222   4.497  0.1656 -0.6603 -0.3569
  152OSM   H16F16968   6.465   0.290   4.546 -2.8309  2.0417  0.7400
  152OSM   H16G16969   6.447   0.134   4.459 -1.9668 -3.6339  2.8805
  152OSM   C17F16970   6.287   0.169   4.597  0.0469 -0.6302 -0.0586
  152OSM   H17F16971   6.205   0.120   4.540 -0.9576  0.0985  0.7264
  152OSM   H17G16972   6.238   0.256   4.646  2.3435  1.0224 -0.4920
  152OSM   C18F16973   6.349   0.080   4.705 -0.2185 -0.0745  0.5115
  152OSM   H18F16974   6.427   0.130   4.767 -0.4878  0.0714  0.7402
  152OSM   H18G16975   6.392  -0.013   4.662  2.4259  1.5888 -0.7750
  152OSM   H18H16976   6.266   0.061   4.776 -0.1114  0.2124  0.7146
  153OSM      N16977   3.190   0.547   2.167  0.2704  0.3070  0.4689
  153OSM    C1516978   3.284   0.625   2.080 -0.5608 -0.0297  0.3923
  153OSM   H15A16979   3.322   0.553   2.010 -1.7552 -1.2845  0.9782
  153OSM   H15B16980   3.375   0.654   2.129 -0.8895  0.1300  0.9168
  153OSM   H15C16981   3.243   0.717   2.041  0.5686  0.6684  0.8119
  153OSM    C1416982   3.050   0.534   2.108  1.0808 -0.5997  0.4943
  153OSM   H14A16983   2.996   0.457   2.161  1.4047 -1.3468 -0.2489
  153OSM   H14B16984   3.059   0.503   2.005  1.1976 -1.2082  0.6817
  153OSM   H14C16985   2.996   0.627   2.104 -1.0340 -1.7858  0.3150
  153OSM    C1316986   3.251   0.404   2.163  0.0792 -0.1875 -0.4336
  153OSM   H13A16987   3.174   0.343   2.209 -0.0287 -0.4938 -1.0175
  153OSM   H13B16988   3.342   0.388   2.218 -0.3121  0.3512  0.3939
  153OSM   H13C16989   3.277   0.384   2.060 -3.5847  0.3180 -1.6057
  153OSM    C1216990   3.176   0.598   2.307 -0.0869  0.6755 -0.1319
  153OSM   H12A16991   3.247   0.543   2.368 -0.7270 -0.4737 -0.3846
  153OSM   H12B16992   3.078   0.570   2.344  0.6913  0.6524  2.0851
  153OSM    C1116993   3.181   0.754   2.335  0.3107 -0.3186  0.1174
  153OSM   H11A16994   3.278   0.790   2.297  1.1300 -1.7056  0.8071
  153OSM   H11B16995   3.186   0.759   2.446  1.2506  0.4277  0.0479
  153OSM      P16996   2.912   0.766   2.344  0.0064 -0.3549  0.1794
  153OSM    O1316997   2.853   0.887   2.409 -0.0684  0.2468 -0.1151
  153OSM    O1416998   2.824   0.694   2.246  0.5864  0.6365 -1.1443
  153OSM    O1116999   2.949   0.673   2.463 -0.0915 -0.0166 -0.1512
  153OSM    O1217000   3.048   0.807   2.285 -0.2772 -0.0649 -0.1464
  153OSM    C1S17001   2.852   0.614   2.548  0.2678  0.1931  0.8052
  153OSM    H1S17002   2.801   0.541   2.483  2.2053 -0.4342 -0.0876
  153OSM    H1T17003   2.774   0.689   2.572  1.3653  1.5733  0.2376
  153OSM     NF17004   2.799   0.485   2.741 -0.6532  0.5786 -0.3430
  153OSM    HNF17005   2.755   0.529   2.819 -1.2328  0.8696 -0.8240
  153OSM    C2S17006   2.905   0.554   2.675 -0.4539  0.0710  0.4893
  153OSM    H2S17007   2.996   0.493   2.655 -0.2196  0.3074  0.8291
  153OSM    C3S17008   2.975   0.670   2.759 -0.0086  0.2186 -0.2873
  153OSM    H3S17009   2.904   0.753   2.778  1.1519  1.1436  0.1566
  153OSM     O317010   3.078   0.741   2.685  0.5947 -0.0603 -0.3596
  153OSM    HO317011   3.039   0.758   2.599 -3.2518  0.8353  1.3429
  153OSM    C4S17012   3.029   0.616   2.894 -0.4012 -0.0742  0.4080
  153OSM    H4S17013   3.138   0.600   2.897 -0.6012 -1.5124  1.1980
  153OSM    C5S17014   2.963   0.619   3.012  0.5005 -0.1680  0.5494
  153OSM    H5S17015   2.864   0.667   3.013  1.5728  2.2119 -0.2631
  153OSM    C6S17016   3.020   0.583   3.146  0.7555  0.2087 -0.3268
  153OSM    H6S17017   3.100   0.506   3.142 -1.1496 -1.8744 -0.3643
  153OSM    H6T17018   2.933   0.544   3.204 -1.1936  3.5088 -0.8003
  153OSM    C7S17019   3.057   0.710   3.226  0.1524  0.1200  0.9220
  153OSM    H7S17020   3.017   0.801   3.176  2.0303 -0.9589 -2.8522
  153OSM    H7T17021   3.163   0.736   3.208 -0.2827  0.6000 -1.2354
  153OSM    C8S17022   2.996   0.707   3.365 -0.2942  0.4517 -0.5020
  153OSM    H8S17023   3.015   0.602   3.398 -0.6428  0.2625 -0.9013
  153OSM    H8T17024   2.886   0.720   3.366 -0.3998  0.0448 -2.4053
  153OSM    C9S17025   3.075   0.797   3.462 -0.4875  0.1742  0.1854
  153OSM    H9S17026   3.094   0.892   3.408  0.4384 -0.4863 -0.6858
  153OSM    H9T17027   3.174   0.755   3.488 -0.6187 -0.1472  0.1696
  153OSM   C10S17028   3.002   0.821   3.588 -0.2426 -0.2395 -0.3091
  153OSM   H10S17029   2.972   0.720   3.624  0.4208 -0.4101 -0.2300
  153OSM   H10T17030   2.913   0.887   3.589 -0.0675  0.0937  2.7239
  153OSM   C11S17031   3.088   0.885   3.698  0.3155 -0.4379 -0.2979
  153OSM   H11S17032   3.101   0.994   3.678  1.2128 -0.2147  1.3528
  153OSM   H11T17033   3.189   0.841   3.707 -0.0811 -1.5359 -1.0002
  153OSM   C12S17034   3.015   0.863   3.838  0.7311 -0.3455 -0.2369
  153OSM   H12S17035   3.000   0.755   3.858 -1.2258 -0.0319  0.1173
  153OSM   H12T17036   2.911   0.901   3.845  0.8092 -0.0174 -0.7767
  153OSM   C13S17037   3.096   0.943   3.936 -0.0863  0.7016 -0.0442
  153OSM   H13S17038   3.117   1.044   3.893  0.1050  1.0786  0.9052
  153OSM   H13T17039   3.194   0.893   3.951 -2.0694 -3.5345  0.1031
  153OSM   C14S17040   3.038   0.961   4.074 -0.7093 -0.4830  0.8132
  153OSM   H14S17041   3.019   0.856   4.107  0.8081 -1.2090 -0.4751
  153OSM   H14T17042   2.943   1.012   4.050 -2.3695 -2.7298  2.1706
  153OSM   C15S17043   3.119   1.044   4.182  0.4107  0.2851 -0.2686
  153OSM   H15S17044   3.184   1.113   4.123 -1.6182  2.5053 -0.0825
  153OSM   H15T17045   3.187   0.983   4.245 -1.7816 -2.9152 -0.7671
  153OSM   C16S17046   3.031   1.134   4.272 -0.6198 -0.9887 -0.3471
  153OSM   H16S17047   2.989   1.057   4.340  0.1554 -0.8817  0.2581
  153OSM   H16T17048   2.953   1.195   4.222 -0.6482 -0.1133  0.7457
  153OSM   C17S17049   3.112   1.240   4.350  0.0662 -1.1357 -0.5323
  153OSM   H17S17050   3.144   1.316   4.275  0.8586 -1.4013 -0.4765
  153OSM   H17T17051   3.202   1.190   4.393  1.8959  3.8597  2.2896
  153OSM   C18S17052   3.043   1.315   4.468  0.4456 -0.7615 -0.3247
  153OSM   H18S17053   2.973   1.390   4.426  1.8800 -0.2162 -1.8731
  153OSM   H18T17054   3.128   1.376   4.506  1.3086 -0.5409 -2.4614
  153OSM   H18U17055   3.005   1.252   4.551  1.7762  1.1985  1.9029
  153OSM    C1F17056   2.754   0.370   2.698  0.9721 -0.4169  0.9107
  153OSM     OF17057   2.810   0.316   2.603 -0.1521 -0.8116 -0.8283
  153OSM    C2F17058   2.626   0.322   2.756 -0.1649  0.7200 -0.2681
  153OSM    H2F17059   2.557   0.294   2.673  1.3268 -1.5410 -0.8558
  153OSM    H2G17060   2.569   0.397   2.815  1.2257  1.2469  0.4458
  153OSM    C3F17061   2.635   0.194   2.848 -0.4216 -0.5765 -0.0491
  153OSM    H3F17062   2.667   0.106   2.788  0.8474  0.5898 -1.1495
  153OSM    H3G17063   2.529   0.184   2.881 -0.9904  4.0106  0.1779
  153OSM    C4F17064   2.725   0.212   2.972  0.5365  0.1057 -0.4678
  153OSM    H4F17065   2.828   0.245   2.945 -0.0688  1.9115 -0.7258
  153OSM    H4G17066   2.740   0.117   3.028 -0.1789  1.3544  2.0086
  153OSM    C5F17067   2.659   0.297   3.080 -0.0165  0.0607  0.1059
  153OSM    H5F17068   2.551   0.272   3.092 -0.7410  2.3938 -0.8912
  153OSM    H5G17069   2.654   0.400   3.039 -0.8391 -0.1904 -0.4522
  153OSM    C6F17070   2.737   0.302   3.213 -0.3286  0.5705  0.3994
  153OSM    H6F17071   2.840   0.338   3.192 -0.4388  1.0850  0.7251
  153OSM    H6G17072   2.745   0.203   3.264  1.3375  0.0594 -0.7460
  153OSM    C7F17073   2.683   0.404   3.310  0.2752 -0.4616  0.7725
  153OSM    H7F17074   2.576   0.418   3.282  0.5724  1.8896  0.5349
  153OSM    H7G17075   2.726   0.502   3.279  2.3247 -2.0672 -1.9272
  153OSM    C8F17076   2.693   0.378   3.460 -0.6416 -0.7552 -0.2312
  153OSM    H8F17077   2.674   0.468   3.522  2.4796  0.6036 -1.0163
  153OSM    H8G17078   2.801   0.363   3.481  0.1167  1.9337 -1.6986
  153OSM    C9F17079   2.620   0.249   3.497  0.1525  0.4253 -0.2379
  153OSM    H9F17080   2.642   0.160   3.437 -1.3973  0.5735 -1.0748
  153OSM   C10F17081   2.533   0.231   3.602 -0.1131 -0.5257  0.1330
  153OSM   H10F17082   2.493   0.130   3.621  1.7929 -1.7087 -1.6223
  153OSM   C11F17083   2.495   0.344   3.696 -0.2178 -0.2356  0.1134
  153OSM   H11F17084   2.402   0.393   3.663 -0.6853 -1.1538  0.0400
  153OSM   H11G17085   2.580   0.416   3.697 -0.3194 -0.1076 -0.2974
  153OSM   C12F17086   2.468   0.278   3.831  0.0715 -0.2650  0.2250
  153OSM   H12F17087   2.544   0.205   3.867  1.0799  1.2003  1.1644
  153OSM   H12G17088   2.370   0.226   3.830  0.0488 -0.2152 -0.4902
  153OSM   C13F17089   2.458   0.380   3.946  0.0885 -0.4058  0.3344
  153OSM   H13F17090   2.377   0.453   3.925 -0.8867 -1.8498 -1.1894
  153OSM   H13G17091   2.548   0.445   3.947  2.3538 -2.8198 -5.1924
  153OSM   C14F17092   2.441   0.309   4.082  0.0810  0.0817 -0.2899
  153OSM   H14F17093   2.536   0.265   4.119 -0.1764  1.4250  2.1405
  153OSM   H14G17094   2.374   0.221   4.072 -1.0340  0.6740  1.6510
  153OSM   C15F17095   2.371   0.402   4.182  0.8461  0.0835 -0.3414
  153OSM   H15F17096   2.292   0.356   4.245  0.4662  1.7039  0.4263
  153OSM   H15G17097   2.310   0.477   4.126 -2.0140 -0.5546  1.6640
  153OSM   C16F17098   2.469   0.463   4.277 -0.2163 -0.1509  0.0548
  153OSM   H16F17099   2.555   0.508   4.222 -1.8870  0.8309 -1.8809
  153OSM   H16G17100   2.514   0.382   4.339 -0.9900 -0.9316 -0.3938
  153OSM   C17F17101   2.414   0.578   4.360 -0.4160 -0.0515 -0.2437
  153OSM   H17F17102   2.319   0.540   4.403 -0.7669 -0.2891 -1.2004
  153OSM   H17G17103   2.393   0.657   4.285  1.0978  0.0724 -0.5626
  153OSM   C18F17104   2.511   0.632   4.469 -0.1685 -0.0280 -0.2956
  153OSM   H18F17105   2.469   0.721   4.521 -2.6196 -0.8554 -0.7039
  153OSM   H18G17106   2.609   0.649   4.420 -0.1446  0.9122  0.0593
  153OSM   H18H17107   2.526   0.554   4.546  1.2638  0.4568 -0.0564
  154OSM      N17108   1.030   5.494   2.055 -0.6148 -0.1858 -0.0865
  154OSM    C1517109   1.117   5.384   2.112  0.2999 -0.0558 -0.1175
  154OSM   H15A17110   1.065   5.327   2.187  0.7812 -0.1624  0.1434
  154OSM   H15B17111   1.203   5.432   2.157 -0.3568  1.1914 -0.1573
  154OSM   H15C17112   1.154   5.316   2.036  1.1031  0.9547 -0.6620
  154OSM    C1417113   1.127   5.568   1.959  0.2410 -0.1609 -0.0276
  154OSM   H14A17114   1.193   5.505   1.901  1.5147  0.8958  0.2228
  154OSM   H14B17115   1.204   5.626   2.007  0.4770  0.0306 -0.6206
  154OSM   H14C17116   1.070   5.630   1.891 -2.1174 -2.4002 -0.2379
  154OSM    C1317117   0.920   5.427   1.975  0.2277  0.0864  0.0896
  154OSM   H13A17118   0.975   5.361   1.909  0.4802  1.2984 -0.9656
  154OSM   H13B17119   0.852   5.483   1.911  0.9985 -0.3084 -1.1188
  154OSM   H13C17120   0.862   5.367   2.043 -0.9775  1.8235  0.6498
  154OSM    C1217121   0.978   5.579   2.167  0.2730  0.0137  0.2484
  154OSM   H12A17122   0.896   5.522   2.208  1.3224 -1.1230  0.8504
  154OSM   H12B17123   0.927   5.662   2.122  1.3627 -0.6045 -2.3181
  154OSM    C1117124   1.068   5.631   2.277 -0.6889  0.1741  0.0731
  154OSM   H11A17125   1.104   5.542   2.333  2.1714  0.4183 -1.2477
  154OSM   H11B17126   0.999   5.681   2.349 -1.0132 -0.5511  0.2749
  154OSM      P17127   1.308   5.709   2.272  0.0581  0.4532  0.1452
  154OSM    O1317128   1.345   5.576   2.219  0.4951 -0.4331  0.4965
  154OSM    O1417129   1.388   5.821   2.220  0.1525  0.2640 -0.4638
  154OSM    O1117130   1.324   5.724   2.426 -0.0392  0.1985 -0.1261
  154OSM    O1217131   1.159   5.728   2.234 -0.3929 -0.0906 -0.1158
  154OSM    C1S17132   1.323   5.607   2.516  0.3122  0.1284 -0.6607
  154OSM    H1S17133   1.407   5.539   2.490  2.9696  2.0102  2.2814
  154OSM    H1T17134   1.225   5.554   2.520  1.1189 -1.3396  1.1560
  154OSM     NF17135   1.355   5.528   2.751 -0.3650 -0.2235  0.4297
  154OSM    HNF17136   1.275   5.485   2.793  0.2924 -1.4388  0.4880
  154OSM    C2S17137   1.342   5.652   2.669  0.1441 -0.1604  0.4532
  154OSM    H2S17138   1.441   5.699   2.688  1.0511 -1.9392  0.3842
  154OSM    C3S17139   1.226   5.743   2.709  0.7417 -1.0563  0.3456
  154OSM    H3S17140   1.129   5.692   2.690 -0.9015  2.0539 -0.2263
  154OSM     O317141   1.204   5.853   2.622 -0.2816 -0.3851  0.5313
  154OSM    HO317142   1.272   5.837   2.556 -0.4597  1.6542 -0.2315
  154OSM    C4S17143   1.237   5.793   2.850 -0.4064  0.1323  0.7407
  154OSM    H4S17144   1.167   5.746   2.920  0.0674 -0.9133  0.5297
  154OSM    C5S17145   1.333   5.888   2.881  0.7260 -0.5365 -0.1235
  154OSM    H5S17146   1.408   5.902   2.802  0.7408 -2.7161 -0.5727
  154OSM    C6S17147   1.361   5.947   3.016  1.0053  0.1237 -1.0181
  154OSM    H6S17148   1.386   6.052   2.990  1.1420  0.1308 -0.8658
  154OSM    H6T17149   1.452   5.900   3.060  0.9308 -0.6168 -1.6339
  154OSM    C7S17150   1.253   5.918   3.118  0.0279 -0.5235  0.5564
  154OSM    H7S17151   1.237   5.808   3.127  0.2734 -0.5315  0.9038
  154OSM    H7T17152   1.155   5.954   3.081 -0.7670 -1.5494  1.5596
  154OSM    C8S17153   1.279   5.977   3.263  0.5520  0.5180  0.5825
  154OSM    H8S17154   1.310   6.082   3.245  0.3737  0.1684 -2.3855
  154OSM    H8T17155   1.371   5.925   3.297 -0.0470 -0.3020  0.9861
  154OSM    C9S17156   1.167   5.938   3.362 -0.6156  0.2867 -0.1698
  154OSM    H9S17157   1.157   5.827   3.362  0.3545  0.1897  0.3348
  154OSM    H9T17158   1.072   5.986   3.330 -0.0068 -0.2265 -3.0327
  154OSM   C10S17159   1.202   5.974   3.512  0.1235 -0.0473  0.5357
  154OSM   H10S17160   1.302   5.934   3.541  1.6609  2.7536 -0.5213
  154OSM   H10T17161   1.123   5.937   3.581 -1.6829  1.6640 -0.5381
  154OSM   C11S17162   1.215   6.128   3.526 -0.7427  0.5096  0.0802
  154OSM   H11S17163   1.110   6.163   3.524 -0.0363  2.7671 -1.9298
  154OSM   H11T17164   1.260   6.170   3.433  0.0439 -1.8334 -0.6705
  154OSM   C12S17165   1.267   6.171   3.665 -0.4564  0.1200  0.5565
  154OSM   H12S17166   1.363   6.117   3.680 -0.8695 -0.4830  1.0917
  154OSM   H12T17167   1.200   6.134   3.746  1.0350  2.3025  2.9568
  154OSM   C13S17168   1.280   6.328   3.678 -0.2285 -0.2546  0.3454
  154OSM   H13S17169   1.186   6.381   3.652 -1.6283 -1.8710  1.8328
  154OSM   H13T17170   1.356   6.371   3.609 -1.0257 -1.8974 -1.6367
  154OSM   C14S17171   1.303   6.377   3.829 -0.7111 -0.2801 -0.6408
  154OSM   H14S17172   1.332   6.484   3.833 -0.4631 -0.3752  1.8044
  154OSM   H14T17173   1.389   6.315   3.863 -0.2906  1.3682  1.5154
  154OSM   C15S17174   1.193   6.362   3.937 -0.1867 -0.1652  0.2699
  154OSM   H15S17175   1.172   6.253   3.941 -0.1687 -0.1866 -0.1541
  154OSM   H15T17176   1.097   6.406   3.903  1.9442  2.2489 -3.4640
  154OSM   C16S17177   1.243   6.422   4.069 -1.1480  0.3804  0.2357
  154OSM   H16S17178   1.290   6.517   4.037  1.5638 -0.6792  0.7656
  154OSM   H16T17179   1.322   6.369   4.127 -0.7026 -0.2382 -0.9168
  154OSM   C17S17180   1.135   6.440   4.170 -0.1282 -0.0430  0.2765
  154OSM   H17S17181   1.089   6.346   4.206 -2.4383  0.8477 -0.1387
  154OSM   H17T17182   1.045   6.489   4.128 -1.2929 -1.4120  1.0803
  154OSM   C18S17183   1.183   6.520   4.292 -0.0576 -0.4463  0.5175
  154OSM   H18S17184   1.232   6.620   4.285 -0.3360 -0.2876  0.7906
  154OSM   H18T17185   1.256   6.451   4.339 -0.9082 -1.9552 -0.3198
  154OSM   H18U17186   1.103   6.525   4.368  0.9962 -2.1693  1.8015
  154OSM    C1F17187   1.477   5.458   2.749 -0.6235 -0.0977  0.0099
  154OSM     OF17188   1.567   5.500   2.680 -0.5035  0.2029 -0.0354
  154OSM    C2F17189   1.500   5.350   2.841 -0.1205  0.2877  0.2387
  154OSM    H2F17190   1.574   5.280   2.798  1.7596  1.7573  0.9468
  154OSM    H2G17191   1.404   5.296   2.858 -0.6853  1.0113 -0.5232
  154OSM    C3F17192   1.543   5.388   2.983 -0.0903  0.4837  0.1198
  154OSM    H3F17193   1.614   5.472   2.967 -1.2868  1.5684  0.3623
  154OSM    H3G17194   1.598   5.305   3.032 -0.4283  0.3178  0.2226
  154OSM    C4F17195   1.430   5.451   3.073  0.0662  1.0270  0.1792
  154OSM    H4F17196   1.355   5.372   3.098 -1.4972  1.7445 -1.9653
  154OSM    H4G17197   1.369   5.525   3.017 -0.2653  1.2489  0.8215
  154OSM    C5F17198   1.485   5.516   3.200  0.2001 -0.4484 -0.0895
  154OSM    H5F17199   1.564   5.586   3.164 -0.7713  1.5788  1.5036
  154OSM    H5G17200   1.528   5.432   3.258  0.4206 -1.9038 -2.2251
  154OSM    C6F17201   1.381   5.590   3.278 -0.2049 -0.1455 -0.7325
  154OSM    H6F17202   1.277   5.582   3.239 -1.3336 -1.1872  2.1537
  154OSM    H6G17203   1.405   5.698   3.284 -1.7345  0.1421  2.0924
  154OSM    C7F17204   1.377   5.534   3.421  0.0597  0.2666  0.2444
  154OSM    H7F17205   1.481   5.538   3.460  0.8096 -0.0087 -1.6365
  154OSM    H7G17206   1.346   5.427   3.415 -1.9725  0.9217 -3.4767
  154OSM    C8F17207   1.282   5.605   3.518 -0.1539 -0.1244  0.5590
  154OSM    H8F17208   1.185   5.607   3.464  1.0383 -2.1210 -1.8614
  154OSM    H8G17209   1.310   5.711   3.536  0.2598 -0.1796  0.2589
  154OSM    C9F17210   1.262   5.540   3.647 -1.0254  0.1857 -0.2922
  154OSM    H9F17211   1.210   5.443   3.642  2.2403 -1.7066 -0.6721
  154OSM   C10F17212   1.311   5.573   3.765  0.6408  0.0115  0.3408
  154OSM   H10F17213   1.272   5.509   3.845 -2.2785  0.7246 -0.3936
  154OSM   C11F17214   1.397   5.690   3.791 -0.1354  0.4710 -0.1300
  154OSM   H11F17215   1.395   5.757   3.702  0.6145 -0.6730 -1.0455
  154OSM   H11G17216   1.502   5.674   3.822 -0.2517  1.2376  0.6951
  154OSM   C12F17217   1.326   5.763   3.901  0.7407 -0.5843 -0.1574
  154OSM   H12F17218   1.217   5.774   3.880  0.7409  0.7859  0.4762
  154OSM   H12G17219   1.369   5.864   3.889  1.2700 -0.7710  0.1615
  154OSM   C13F17220   1.351   5.706   4.041 -0.1134 -0.1946 -0.3608
  154OSM   H13F17221   1.453   5.722   4.080 -0.4994 -0.5955  0.8538
  154OSM   H13G17222   1.345   5.595   4.031  2.9436 -0.4937  0.2680
  154OSM   C14F17223   1.248   5.746   4.150  0.0905 -0.5888 -0.5376
  154OSM   H14F17224   1.274   5.696   4.245  4.2975  0.3284 -1.0100
  154OSM   H14G17225   1.151   5.708   4.112 -0.5343  0.4158 -0.0143
  154OSM   C15F17226   1.256   5.899   4.166 -0.1230 -0.2277 -0.4716
  154OSM   H15F17227   1.228   5.939   4.066  1.5824  1.4504 -0.3200
  154OSM   H15G17228   1.357   5.939   4.188  0.0599 -0.3301 -1.1222
  154OSM   C16F17229   1.152   5.946   4.279 -0.2896 -0.9069  0.4670
  154OSM   H16F17230   1.063   5.882   4.265  1.0563 -2.2667 -2.8223
  154OSM   H16G17231   1.139   6.056   4.265  4.4013 -0.3507 -1.4646
  154OSM   C17F17232   1.205   5.913   4.421 -0.2332  0.2314 -0.0277
  154OSM   H17F17233   1.316   5.920   4.420 -0.0580 -2.0180 -0.6632
  154OSM   H17G17234   1.184   5.807   4.446 -0.4048  0.6702  1.8671
  154OSM   C18F17235   1.134   5.994   4.531  0.0385  0.2882  0.2503
  154OSM   H18F17236   1.158   6.102   4.542 -2.0042  0.8200 -0.0712
  154OSM   H18G17237   1.146   5.952   4.633  0.8314  1.4917  0.6776
  154OSM   H18H17238   1.026   6.001   4.504  1.0153 -0.0711 -4.7157
  155OSM      N17239   3.843   2.494   2.677 -0.1269  0.1440  0.1966
  155OSM    C1517240   3.729   2.492   2.578 -0.7151 -0.3479  0.1405
  155OSM   H15A17241   3.641   2.438   2.608 -0.2157 -0.1704  2.0049
  155OSM   H15B17242   3.758   2.434   2.491 -0.8388  0.5229 -0.4929
  155OSM   H15C17243   3.690   2.589   2.553  1.4896  0.3446 -0.8963
  155OSM    C1417244   3.938   2.599   2.628  0.1418 -0.0658 -0.3667
  155OSM   H14A17245   3.960   2.592   2.522 -0.7918  1.1226 -0.6642
  155OSM   H14B17246   4.025   2.593   2.692  2.2428 -1.4992 -3.0998
  155OSM   H14C17247   3.893   2.697   2.634 -0.5417 -0.2920 -1.4337
  155OSM    C1317248   3.782   2.542   2.801  0.4541 -0.2048 -0.0348
  155OSM   H13A17249   3.707   2.470   2.829  2.3390 -2.0157  0.6385
  155OSM   H13B17250   3.740   2.640   2.786  0.0600 -0.2373  0.7978
  155OSM   H13C17251   3.856   2.552   2.880 -2.2346  0.2559  2.6073
  155OSM    C1217252   3.913   2.366   2.685 -0.6840 -0.6382  0.6920
  155OSM   H12A17253   3.976   2.353   2.598  2.2733  2.3622  2.1523
  155OSM   H12B17254   3.847   2.281   2.689 -1.7244  0.1895  1.6337
  155OSM    C1117255   4.005   2.364   2.805 -0.1986 -0.2409 -0.5082
  155OSM   H11A17256   3.950   2.335   2.897 -0.3557  2.1017  0.2186
  155OSM   H11B17257   4.061   2.458   2.824 -0.8807 -0.0935  0.9565
  155OSM      P17258   4.232   2.251   2.877 -0.4402 -0.1630  0.4962
  155OSM    O1317259   4.278   2.109   2.848 -0.1523 -0.3606  0.6095
  155OSM    O1417260   4.323   2.358   2.842 -0.1785  0.0869  0.5334
  155OSM    O1117261   4.181   2.248   3.021 -0.1594  0.2931 -0.2359
  155OSM    O1217262   4.102   2.262   2.791  0.7747 -0.9431 -0.6403
  155OSM    C1S17263   4.147   2.359   3.105 -0.9186 -0.0904  0.7356
  155OSM    H1S17264   4.042   2.383   3.081 -0.0468  2.0287 -1.3174
  155OSM    H1T17265   4.203   2.454   3.091 -1.2784  0.1679  1.0295
  155OSM     NF17266   4.130   2.438   3.345  0.3142 -0.7071 -0.1451
  155OSM    HNF17267   4.205   2.499   3.368 -1.9868  1.0072  3.9443
  155OSM    C2S17268   4.165   2.323   3.260  0.4935  0.2990  1.1597
  155OSM    H2S17269   4.091   2.242   3.278  0.9215 -0.1724  0.8138
  155OSM    C3S17270   4.305   2.270   3.284  0.3618 -0.5509  0.2303
  155OSM    H3S17271   4.374   2.352   3.254 -2.9393  1.9911 -1.0897
  155OSM     O317272   4.352   2.163   3.205 -0.3794 -0.5786  0.3378
  155OSM    HO317273   4.297   2.168   3.127  0.9347  1.2268 -0.5553
  155OSM    C4S17274   4.323   2.234   3.431 -0.7071  0.6558  0.1079
  155OSM    H4S17275   4.373   2.310   3.492  0.8252 -0.7120  0.6147
  155OSM    C5S17276   4.295   2.112   3.493 -0.3461  0.0435  0.7770
  155OSM    H5S17277   4.258   2.029   3.430  1.7363  2.0820 -3.6388
  155OSM    C6S17278   4.313   2.088   3.638 -0.3166  0.5478  0.0262
  155OSM    H6S17279   4.399   2.019   3.649 -2.0702 -1.5496  1.5166
  155OSM    H6T17280   4.235   2.023   3.683  2.1647 -2.2263  0.6355
  155OSM    C7S17281   4.315   2.205   3.732  0.0380 -1.1782 -0.4492
  155OSM    H7S17282   4.226   2.270   3.715  0.6843  0.2357  1.2813
  155OSM    H7T17283   4.407   2.265   3.716  0.7499 -2.0039  0.4532
  155OSM    C8S17284   4.323   2.165   3.882  0.1867  0.2664 -0.2426
  155OSM    H8S17285   4.416   2.105   3.888  0.3014  0.4771  0.1409
  155OSM    H8T17286   4.238   2.101   3.914  1.2674 -1.4454 -0.6797
  155OSM    C9S17287   4.333   2.293   3.966 -0.3782 -0.7580  0.7412
  155OSM    H9S17288   4.244   2.357   3.950  1.4369  1.9972  0.8595
  155OSM    H9T17289   4.416   2.351   3.921 -2.0357  1.2213  0.0921
  155OSM   C10S17290   4.354   2.260   4.109  1.3183 -0.3960 -0.1343
  155OSM   H10S17291   4.440   2.192   4.126  0.2465 -1.7521  0.1340
  155OSM   H10T17292   4.256   2.220   4.143  0.1750  0.7413 -1.8907
  155OSM   C11S17293   4.372   2.383   4.202 -0.4312 -0.3110 -0.0730
  155OSM   H11S17294   4.293   2.457   4.178  0.4614  0.6101 -0.2257
  155OSM   H11T17295   4.471   2.430   4.180 -0.8440  0.5602 -0.0983
  155OSM   C12S17296   4.342   2.342   4.342 -0.0001 -0.3480  0.1764
  155OSM   H12S17297   4.414   2.260   4.361 -0.0297  0.1908  3.0889
  155OSM   H12T17298   4.244   2.300   4.375  0.0453 -1.0950 -0.6177
  155OSM   C13S17299   4.382   2.451   4.441 -0.1038 -0.1713 -0.6419
  155OSM   H13S17300   4.327   2.538   4.398  0.2569  0.1995 -0.3561
  155OSM   H13T17301   4.490   2.474   4.431 -0.1532  0.3813  0.0240
  155OSM   C14S17302   4.348   2.415   4.583  0.5710 -0.2958  0.8805
  155OSM   H14S17303   4.409   2.322   4.594  1.0879 -0.1198 -0.3635
  155OSM   H14T17304   4.245   2.387   4.612  0.3896 -0.0571  0.4793
  155OSM   C15S17305   4.410   2.519   4.672  0.6685 -0.7144 -0.2389
  155OSM   H15S17306   4.358   2.616   4.660  1.0515 -0.1355  2.3249
  155OSM   H15T17307   4.519   2.528   4.655  0.7783 -0.4833  0.5625
  155OSM   C16S17308   4.396   2.489   4.823  0.0321  0.0166 -0.2873
  155OSM   H16S17309   4.456   2.409   4.870 -1.6275  0.7170  3.4097
  155OSM   H16T17310   4.292   2.453   4.843  0.1071 -1.1613 -1.8011
  155OSM   C17S17311   4.428   2.606   4.911  1.0358 -0.7921  1.5364
  155OSM   H17S17312   4.342   2.671   4.883  0.9032 -1.0648  1.2957
  155OSM   H17T17313   4.514   2.664   4.872 -0.8418  1.2544  0.1793
  155OSM   C18S17314   4.432   2.579   5.064  0.2455 -0.1895 -0.8193
  155OSM   H18S17315   4.523   2.520   5.088  0.5525  0.8263  0.7095
  155OSM   H18T17316   4.340   2.525   5.093  0.4407 -1.2053 -2.0293
  155OSM   H18U17317   4.435   2.677   5.117  1.9014 -0.5903 -0.1025
  155OSM    C1F17318   4.001   2.471   3.355 -0.1693 -0.2556  0.0179
  155OSM     OF17319   3.914   2.413   3.297 -0.0315 -0.0862  0.6193
  155OSM    C2F17320   3.966   2.588   3.444 -0.5174 -0.3984 -0.5106
  155OSM    H2F17321   3.984   2.687   3.398  0.5593 -0.6050 -0.5509
  155OSM    H2G17322   4.032   2.582   3.533 -0.7337 -0.2395 -0.3365
  155OSM    C3F17323   3.819   2.576   3.491 -0.2892  0.0682 -0.2281
  155OSM    H3F17324   3.802   2.469   3.515  0.0297  0.3688  1.4646
  155OSM    H3G17325   3.749   2.609   3.412  2.6302  1.4348 -2.4351
  155OSM    C4F17326   3.800   2.652   3.625  0.1976  0.1501 -0.7281
  155OSM    H4F17327   3.700   2.619   3.659  1.6288 -1.3715  2.4525
  155OSM    H4G17328   3.807   2.763   3.617  0.8854  0.0522 -1.7644
  155OSM    C5F17329   3.875   2.597   3.753  0.2541 -0.2846 -0.2945
  155OSM    H5F17330   3.977   2.636   3.734  0.1956  0.5600  1.0158
  155OSM    H5G17331   3.870   2.486   3.753 -0.1638 -0.3039 -2.4317
  155OSM    C6F17332   3.829   2.664   3.891  0.7316  0.2751 -0.3519
  155OSM    H6F17333   3.830   2.774   3.875  0.3118  0.4686  0.8639
  155OSM    H6G17334   3.901   2.637   3.971  0.6795  2.5439  0.5319
  155OSM    C7F17335   3.699   2.626   3.953  0.2366  0.2260 -0.4132
  155OSM    H7F17336   3.691   2.520   3.984 -1.0643  0.8607  1.6177
  155OSM    H7G17337   3.614   2.634   3.882 -0.2156 -2.0982 -0.1997
  155OSM    C8F17338   3.671   2.707   4.085 -0.0956 -0.7170  0.1000
  155OSM    H8F17339   3.671   2.813   4.052 -1.2539 -0.9544 -0.7382
  155OSM    H8G17340   3.744   2.679   4.164 -0.6121 -1.2668  0.3938
  155OSM    C9F17341   3.530   2.673   4.138  0.6266  0.4593 -0.4799
  155OSM    H9F17342   3.473   2.593   4.088 -0.9684  1.2931 -0.0670
  155OSM   C10F17343   3.460   2.737   4.231  0.1445  0.4613 -0.7978
  155OSM   H10F17344   3.360   2.697   4.251  1.1706 -0.6456  2.7285
  155OSM   C11F17345   3.505   2.852   4.319 -0.1921  0.2236 -0.4458
  155OSM   H11F17346   3.448   2.947   4.309 -0.3752  0.1755  0.1301
  155OSM   H11G17347   3.613   2.872   4.303 -0.0188  1.8356  2.1040
  155OSM   C12F17348   3.498   2.820   4.472  0.3102  0.2452  0.0114
  155OSM   H12F17349   3.391   2.805   4.496  0.2331 -1.0271 -0.9958
  155OSM   H12G17350   3.539   2.906   4.528  1.7197 -0.6548  0.4202
  155OSM   C13F17351   3.574   2.690   4.511  0.0875  0.0008  0.5145
  155OSM   H13F17352   3.683   2.693   4.488  0.1887  1.2370  1.0384
  155OSM   H13G17353   3.527   2.609   4.451 -2.5109  2.4768 -1.0489
  155OSM   C14F17354   3.547   2.656   4.656  0.1519  0.4152 -0.9513
  155OSM   H14F17355   3.438   2.643   4.670  0.1023  1.5725 -0.1510
  155OSM   H14G17356   3.586   2.739   4.719  2.3049 -2.1938  1.4511
  155OSM   C15F17357   3.606   2.519   4.702  0.0941 -0.2006 -0.2544
  155OSM   H15F17358   3.717   2.523   4.707  0.0909 -0.4763  0.0873
  155OSM   H15G17359   3.579   2.435   4.635  0.1434 -0.5439  0.1550
  155OSM   C16F17360   3.545   2.477   4.837  0.1916  0.2026 -0.2015
  155OSM   H16F17361   3.551   2.368   4.856  0.8785  0.1258 -0.8084
  155OSM   H16G17362   3.437   2.500   4.827 -0.2043 -0.9981  1.0096
  155OSM   C17F17363   3.597   2.552   4.964 -0.6746 -0.4514 -0.2063
  155OSM   H17F17364   3.533   2.545   5.054 -0.7119  0.4949 -0.1536
  155OSM   H17G17365   3.597   2.659   4.934 -1.1060 -1.2311 -3.3493
  155OSM   C18F17366   3.740   2.512   5.003  0.8950 -0.0847  0.0727
  155OSM   H18F17367   3.772   2.551   5.102 -1.2852  1.5948  0.1829
  155OSM   H18G17368   3.803   2.551   4.920  1.7405 -0.0633  0.7105
  155OSM   H18H17369   3.754   2.402   5.012  0.3110 -0.1923 -0.2691
  156OSM      N17370   2.430   1.037   2.682 -0.4597  0.4351  0.1986
  156OSM    C1517371   2.317   0.976   2.606  0.0565  0.0641 -0.3598
  156OSM   H15A17372   2.304   1.015   2.506  0.5093 -1.5831 -1.0888
  156OSM   H15B17373   2.224   1.004   2.653 -0.7705 -0.7333 -1.4734
  156OSM   H15C17374   2.321   0.869   2.600 -3.6647 -0.1922 -0.5113
  156OSM    C1417375   2.447   0.957   2.807 -0.5598  0.2572  0.7526
  156OSM   H14A17376   2.356   0.969   2.864 -1.8476 -0.0372 -1.1437
  156OSM   H14B17377   2.540   0.985   2.853 -0.4136  0.3563  0.3998
  156OSM   H14C17378   2.439   0.853   2.778  0.6666  0.4778 -0.4617
  156OSM    C1317379   2.555   1.027   2.602  0.1011  0.3040 -0.6980
  156OSM   H13A17380   2.534   1.078   2.509 -1.1180 -0.0398 -0.6287
  156OSM   H13B17381   2.586   0.924   2.590  2.3120  0.5509  1.9531
  156OSM   H13C17382   2.637   1.084   2.642  1.1992 -0.1909 -2.1192
  156OSM    C1217383   2.400   1.187   2.721 -0.7998  0.0919 -0.3009
  156OSM   H12A17384   2.381   1.248   2.634  2.1054  1.9953  0.2718
  156OSM   H12B17385   2.491   1.230   2.758 -0.3238 -1.1480  0.0124
  156OSM    C1117386   2.302   1.233   2.824  0.5056  0.1151 -0.9222
  156OSM   H11A17387   2.327   1.331   2.870 -3.2592  0.3510  0.9749
  156OSM   H11B17388   2.301   1.164   2.911  0.5190  2.5807  1.1397
  156OSM      P17389   2.087   1.367   2.753 -0.2798 -0.2828 -0.7482
  156OSM    O1317390   2.124   1.452   2.638 -0.0470  0.3011 -0.5453
  156OSM    O1417391   1.946   1.331   2.755 -0.5466 -0.7031  0.0036
  156OSM    O1117392   2.117   1.453   2.883  0.2048  0.1611  0.0979
  156OSM    O1217393   2.174   1.231   2.766  0.1864 -0.5988 -0.0397
  156OSM    C1S17394   2.042   1.580   2.887 -0.0745 -0.0467 -0.3152
  156OSM    H1S17395   1.940   1.577   2.843 -0.7051  0.8265  1.0393
  156OSM    H1T17396   2.088   1.665   2.833 -1.6610  1.0297 -0.0281
  156OSM     NF17397   1.909   1.736   3.025  0.4379  0.3441  0.3553
  156OSM    HNF17398   1.948   1.827   3.030  1.7441 -0.2496  1.4638
  156OSM    C2S17399   2.005   1.628   3.029  0.1538  0.1351  0.5281
  156OSM    H2S17400   1.965   1.543   3.087 -1.6204  1.1559  0.8776
  156OSM    C3S17401   2.141   1.654   3.100  0.7407  0.6192 -0.1932
  156OSM    H3S17402   2.188   1.744   3.056  0.6467  0.7656  0.0026
  156OSM     O317403   2.242   1.553   3.083  0.0764  0.1612  0.2333
  156OSM    HO317404   2.204   1.500   3.013  0.3298 -0.5704  0.6492
  156OSM    C4S17405   2.121   1.677   3.247 -0.4464 -0.4903  0.3281
  156OSM    H4S17406   2.067   1.597   3.300 -1.4872 -1.3851 -1.9176
  156OSM    C5S17407   2.168   1.795   3.304  0.4707 -0.2960 -0.4225
  156OSM    H5S17408   2.204   1.872   3.235  1.5658 -0.8641 -0.5177
  156OSM    C6S17409   2.144   1.836   3.447  0.3172 -0.0227  0.1617
  156OSM    H6S17410   2.083   1.929   3.439 -1.9537 -1.5586 -1.8579
  156OSM    H6T17411   2.238   1.852   3.503 -1.0089 -1.1061  2.8823
  156OSM    C7S17412   2.040   1.748   3.519  0.1855  0.7480  0.1949
  156OSM    H7S17413   2.064   1.640   3.532 -3.5146 -0.5215 -2.2170
  156OSM    H7T17414   1.942   1.740   3.468  0.6599 -0.3324 -0.5706
  156OSM    C8S17415   2.007   1.803   3.659  0.3086 -0.0317  0.0835
  156OSM    H8S17416   1.951   1.896   3.634  1.9656  0.5127 -1.7886
  156OSM    H8T17417   2.101   1.834   3.709  1.5298 -0.0888 -2.0922
  156OSM    C9S17418   1.914   1.715   3.748 -0.4752 -0.5076 -0.9130
  156OSM    H9S17419   1.977   1.628   3.778  0.6171  1.1196  1.9441
  156OSM    H9T17420   1.821   1.689   3.694 -1.4348  0.2609  0.2961
  156OSM   C10S17421   1.877   1.783   3.885 -0.2063  0.3563  0.5061
  156OSM   H10S17422   1.799   1.862   3.876  1.0729  1.5696 -0.2866
  156OSM   H10T17423   1.966   1.833   3.927 -1.5240  1.9125  1.5955
  156OSM   C11S17424   1.806   1.680   3.981  1.1006 -0.6899  0.2440
  156OSM   H11S17425   1.816   1.726   4.082 -0.1904  0.1156  0.0375
  156OSM   H11T17426   1.864   1.586   3.969 -1.3071 -1.9406 -3.1177
  156OSM   C12S17427   1.656   1.643   3.957  0.0267 -0.3109 -0.2288
  156OSM   H12S17428   1.636   1.597   3.858  1.1783 -0.1904 -0.5282
  156OSM   H12T17429   1.583   1.726   3.971  0.0623 -0.3172 -0.0040
  156OSM   C13S17430   1.605   1.543   4.063 -0.1992  0.2065  0.2771
  156OSM   H13S17431   1.622   1.592   4.162  0.4791  1.2717 -0.3415
  156OSM   H13T17432   1.658   1.446   4.065  0.0046  0.2489 -1.6077
  156OSM   C14S17433   1.459   1.507   4.043  0.3079  0.7796 -0.1823
  156OSM   H14S17434   1.458   1.469   3.939  0.1795  0.9395 -0.2400
  156OSM   H14T17435   1.396   1.599   4.040 -1.1585 -0.1610  0.4643
  156OSM   C15S17436   1.407   1.404   4.154 -0.4400 -0.6200 -0.3426
  156OSM   H15S17437   1.458   1.307   4.135  2.3495  0.6486  0.1461
  156OSM   H15T17438   1.298   1.382   4.148 -0.2682 -1.2137 -1.6348
  156OSM   C16S17439   1.444   1.454   4.289 -0.0024 -0.7445  1.1285
  156OSM   H16S17440   1.428   1.564   4.291 -0.7163 -0.7995 -0.2772
  156OSM   H16T17441   1.551   1.436   4.312  1.1295  1.7760 -1.5807
  156OSM   C17S17442   1.369   1.390   4.415  0.0485 -0.4697 -0.1110
  156OSM   H17S17443   1.385   1.280   4.417 -1.1743 -0.6519  0.6281
  156OSM   H17T17444   1.259   1.399   4.401  0.0550  0.2725  0.2846
  156OSM   C18S17445   1.399   1.445   4.553  0.3249  0.5092 -0.4434
  156OSM   H18S17446   1.357   1.399   4.646 -0.1848  0.7081 -0.5720
  156OSM   H18T17447   1.379   1.554   4.568 -0.4697  0.3726 -0.4426
  156OSM   H18U17448   1.509   1.432   4.557  0.0186 -2.4615  1.1641
  156OSM    C1F17449   1.779   1.714   3.015 -0.0747 -0.3124 -0.1641
  156OSM     OF17450   1.746   1.603   2.980  0.0166 -0.3487 -0.4478
  156OSM    C2F17451   1.679   1.822   3.055  0.0318  0.1232  0.6138
  156OSM    H2F17452   1.662   1.876   2.960  2.1330 -1.0302 -0.4765
  156OSM    H2G17453   1.727   1.896   3.122 -0.7663  0.6687  0.5966
  156OSM    C3F17454   1.539   1.758   3.104 -0.7034  0.7559  0.2231
  156OSM    H3F17455   1.494   1.702   3.019  2.4075 -0.9952 -0.4261
  156OSM    H3G17456   1.471   1.844   3.122 -0.4547  1.3166 -1.3617
  156OSM    C4F17457   1.549   1.685   3.230 -0.0924  0.4618  0.1806
  156OSM    H4F17458   1.623   1.602   3.230 -0.4600  0.0828 -1.5269
  156OSM    H4G17459   1.454   1.634   3.256  0.5496 -0.1785  1.3510
  156OSM    C5F17460   1.587   1.778   3.349  0.4260  0.2176  0.2281
  156OSM    H5F17461   1.505   1.853   3.355 -2.0777 -2.3837  0.3172
  156OSM    H5G17462   1.681   1.832   3.322  0.1010 -0.7767 -3.4204
  156OSM    C6F17463   1.598   1.695   3.478 -0.3933 -0.3309  0.5116
  156OSM    H6F17464   1.606   1.774   3.555  0.2836  0.4986 -0.3796
  156OSM    H6G17465   1.690   1.634   3.483  0.1839  0.4872  0.1610
  156OSM    C7F17466   1.468   1.610   3.511 -0.2878  0.2624  0.3082
  156OSM    H7F17467   1.485   1.513   3.460  0.9481  1.4771 -1.7430
  156OSM    H7G17468   1.382   1.665   3.467 -0.5581  0.6962  1.3468
  156OSM    C8F17469   1.455   1.577   3.654 -0.9012 -0.7447  0.3142
  156OSM    H8F17470   1.447   1.670   3.714 -1.8350 -1.2323  0.9678
  156OSM    H8G17471   1.548   1.525   3.687  0.3209  0.4209 -1.1014
  156OSM    C9F17472   1.329   1.491   3.674  0.0063  0.2245 -0.4324
  156OSM    H9F17473   1.335   1.382   3.659 -0.5648  0.3965 -2.1640
  156OSM   C10F17474   1.212   1.551   3.713 -1.0846 -0.5571  0.4867
  156OSM   H10F17475   1.120   1.492   3.728 -1.7346  0.5367  0.9238
  156OSM   C11F17476   1.199   1.697   3.751 -0.5999 -0.4787  0.5838
  156OSM   H11F17477   1.197   1.756   3.657  1.6064 -1.9591 -0.4719
  156OSM   H11G17478   1.282   1.740   3.811 -1.4021 -0.9014  2.0394
  156OSM   C12F17479   1.085   1.724   3.847  0.2643 -0.6961  0.0482
  156OSM   H12F17480   0.983   1.718   3.805  0.0241  2.3003  0.0110
  156OSM   H12G17481   1.086   1.832   3.873  1.5116 -0.6674 -0.0314
  156OSM   C13F17482   1.091   1.656   3.982 -0.1688  0.5802  0.1286
  156OSM   H13F17483   1.198   1.642   4.011 -0.7812 -0.5896  2.0226
  156OSM   H13G17484   1.038   1.559   3.972  2.2523 -0.7022 -1.0448
  156OSM   C14F17485   1.024   1.738   4.094  0.1912  0.7133  0.4764
  156OSM   H14F17486   0.925   1.779   4.064 -0.6917 -3.3316 -3.1895
  156OSM   H14G17487   1.091   1.823   4.120  0.3188  0.9487 -0.5714
  156OSM   C15F17488   0.992   1.676   4.234  0.8135 -0.5104 -0.7292
  156OSM   H15F17489   0.918   1.744   4.282  0.9172 -0.8884 -0.0097
  156OSM   H15G17490   1.086   1.686   4.293  0.4819  0.8837 -0.4096
  156OSM   C16F17491   0.934   1.533   4.246  0.3276  0.2023  0.5840
  156OSM   H16F17492   1.007   1.451   4.225 -0.8780 -0.3007 -2.1291
  156OSM   H16G17493   0.855   1.515   4.170  0.0265  3.4542 -0.0189
  156OSM   C17F17494   0.874   1.510   4.387  0.2560 -0.5398  0.1943
  156OSM   H17F17495   0.845   1.403   4.385  1.5672 -0.9205  0.2129
  156OSM   H17G17496   0.783   1.572   4.400  0.7795  0.4618 -0.6783
  156OSM   C18F17497   0.971   1.537   4.505 -0.6853  0.4147 -0.3006
  156OSM   H18F17498   1.065   1.502   4.457  0.6666  1.1253  1.7229
  156OSM   H18G17499   0.947   1.461   4.582  1.7550 -1.2478 -1.0570
  156OSM   H18H17500   0.962   1.641   4.541 -2.3007  1.6230 -3.7720
  157OSM      N17501   0.540   3.444   2.626  0.1979  0.8964 -0.2020
  157OSM    C1517502   0.656   3.458   2.533 -0.3399 -0.3015  0.0220
  157OSM   H15A17503   0.749   3.426   2.579  0.5630  1.7041 -0.3193
  157OSM   H15B17504   0.665   3.557   2.492 -1.3157  0.2680  1.1352
  157OSM   H15C17505   0.634   3.389   2.452 -4.8976  0.8691  0.0153
  157OSM    C1417506   0.546   3.572   2.706  0.0452  0.5139 -0.9139
  157OSM   H14A17507   0.624   3.566   2.780  0.2260 -0.1269 -1.1501
  157OSM   H14B17508   0.454   3.583   2.763 -0.1993 -0.7411 -1.0464
  157OSM   H14C17509   0.558   3.658   2.642  0.8889 -1.1751 -3.1474
  157OSM    C1317510   0.411   3.444   2.539  0.3420  0.0417 -0.2674
  157OSM   H13A17511   0.418   3.353   2.480  1.1708 -0.6335  0.8286
  157OSM   H13B17512   0.402   3.529   2.474 -2.6834  0.2032  0.2328
  157OSM   H13C17513   0.321   3.447   2.598 -0.4484  0.6272 -1.4685
  157OSM    C1217514   0.546   3.322   2.715  0.0984 -0.2202  0.5820
  157OSM   H12A17515   0.466   3.329   2.787  0.8674  0.8582  1.3508
  157OSM   H12B17516   0.642   3.325   2.764  0.2457 -2.1548  0.4973
  157OSM    C1117517   0.539   3.183   2.656 -0.2438 -0.3690 -0.5660
  157OSM   H11A17518   0.550   3.110   2.738 -0.8675 -0.4005 -0.5073
  157OSM   H11B17519   0.628   3.153   2.596 -0.0045 -0.2703 -0.2602
  157OSM      P17520   0.317   3.050   2.602 -0.2840 -0.4135 -0.2507
  157OSM    O1317521   0.211   3.080   2.505 -0.7669  0.3922  0.4026
  157OSM    O1417522   0.388   2.923   2.586 -0.0168 -0.2115 -0.0943
  157OSM    O1117523   0.266   3.069   2.751 -0.3741 -0.2320  0.7003
  157OSM    O1217524   0.419   3.167   2.580  0.0806 -1.0743 -0.0457
  157OSM    C1S17525   0.161   2.986   2.805 -0.2413 -0.0011  0.4143
  157OSM    H1S17526   0.174   2.880   2.775 -4.5559 -0.7447  0.4706
  157OSM    H1T17527   0.064   3.016   2.760  0.6987  0.7868 -1.1728
  157OSM     NF17528   0.044   2.919   3.013 -0.4104 -0.0312 -0.0939
  157OSM    HNF17529  -0.029   2.973   3.053 -0.9217  1.4261 -2.7912
  157OSM    C2S17530   0.153   3.001   2.958  0.1837 -0.2993  0.6072
  157OSM    H2S17531   0.250   2.957   2.992  0.2897 -0.9798 -0.5103
  157OSM    C3S17532   0.167   3.159   3.001  0.0859 -0.4000  0.7211
  157OSM    H3S17533   0.074   3.207   2.965  0.7607 -0.1995 -0.8785
  157OSM     O317534   0.273   3.233   2.943 -0.4428 -0.2217 -1.0025
  157OSM    HO317535   0.311   3.162   2.890  0.6372 -0.3125 -0.1440
  157OSM    C4S17536   0.172   3.187   3.149 -0.5098 -0.3621 -1.0274
  157OSM    H4S17537   0.080   3.192   3.208  0.6318  1.0967  0.7054
  157OSM    C5S17538   0.286   3.209   3.219 -0.6459  0.5367  0.2517
  157OSM    H5S17539   0.382   3.225   3.166  1.1714 -0.2672  3.0753
  157OSM    C6S17540   0.296   3.244   3.360  0.3819 -0.3197 -0.2946
  157OSM    H6S17541   0.318   3.352   3.369  2.2319 -0.5455 -1.5496
  157OSM    H6T17542   0.390   3.196   3.394  1.8500  3.5833  1.7701
  157OSM    C7S17543   0.182   3.202   3.453 -0.1208 -0.2264  0.4830
  157OSM    H7S17544   0.148   3.100   3.424 -1.0000  0.9490 -3.2752
  157OSM    H7T17545   0.102   3.269   3.417 -0.7393 -1.3480 -0.3033
  157OSM    C8S17546   0.224   3.233   3.599 -0.5999  0.3192  0.0810
  157OSM    H8S17547   0.267   3.336   3.606 -1.0474  0.7625 -2.4663
  157OSM    H8T17548   0.304   3.160   3.624  1.8788  2.5055 -0.9175
  157OSM    C9S17549   0.107   3.246   3.695 -0.0748  0.2299 -0.1994
  157OSM    H9S17550   0.039   3.157   3.693 -1.6614  1.3666  0.8687
  157OSM    H9T17551   0.028   3.318   3.665 -0.2094  0.0550 -0.2706
  157OSM   C10S17552   0.147   3.276   3.838  0.3916 -0.7823  0.1494
  157OSM   H10S17553   0.060   3.290   3.906 -0.9383  1.6288 -1.8585
  157OSM   H10T17554   0.214   3.365   3.848  0.6358 -1.2212  3.8019
  157OSM   C11S17555   0.227   3.160   3.902 -0.4405 -0.0566  0.6693
  157OSM   H11S17556   0.318   3.144   3.840 -1.8633 -0.9370 -1.2839
  157OSM   H11T17557   0.165   3.068   3.898 -2.9664  1.5555  0.3390
  157OSM   C12S17558   0.246   3.173   4.054 -0.1392 -0.1024  0.4539
  157OSM   H12S17559   0.144   3.196   4.090  0.0402  2.6020 -0.5645
  157OSM   H12T17560   0.303   3.267   4.072 -0.3870 -0.4378  3.5891
  157OSM   C13S17561   0.304   3.050   4.119 -0.2851 -0.2986 -0.8193
  157OSM   H13S17562   0.403   3.038   4.069  0.9262  0.8016  1.1673
  157OSM   H13T17563   0.242   2.966   4.082 -1.0507 -0.7877  1.4226
  157OSM   C14S17564   0.313   3.077   4.267  0.2602 -0.0342  0.1576
  157OSM   H14S17565   0.213   3.115   4.295  0.2786 -0.7275  1.2284
  157OSM   H14T17566   0.384   3.159   4.293  2.5397 -1.7173 -0.4362
  157OSM   C15S17567   0.354   2.948   4.350  0.2492 -0.0659 -0.2269
  157OSM   H15S17568   0.454   2.921   4.311  0.5150  2.7911 -1.7354
  157OSM   H15T17569   0.279   2.872   4.320 -1.3383  0.4417  2.1609
  157OSM   C16S17570   0.357   2.956   4.505  1.0115  0.4327 -0.9817
  157OSM   H16S17571   0.375   2.853   4.543 -1.7165  0.3256  0.2213
  157OSM   H16T17572   0.262   3.000   4.542  0.7172  1.4600 -2.8369
  157OSM   C17S17573   0.476   3.045   4.548 -0.0378 -0.8083 -0.8437
  157OSM   H17S17574   0.459   3.151   4.521  0.3523 -0.0229  1.7625
  157OSM   H17T17575   0.573   3.014   4.502  1.6937  1.7091  0.8812
  157OSM   C18S17576   0.497   3.037   4.701 -0.6439 -0.2413 -0.2885
  157OSM   H18S17577   0.409   3.079   4.754 -0.9589 -1.4522  0.1946
  157OSM   H18T17578   0.591   3.085   4.735 -0.8058 -0.4945  0.5519
  157OSM   H18U17579   0.505   2.933   4.741  1.0608  0.3476  1.0445
  157OSM    C1F17580   0.039   2.780   2.999 -0.5428 -0.6700 -0.1741
  157OSM     OF17581   0.144   2.715   2.994  0.9822 -0.0923  0.1764
  157OSM    C2F17582  -0.093   2.712   3.002  0.5367  0.2679  0.2190
  157OSM    H2F17583  -0.134   2.702   2.899 -0.4974  0.1151  0.6357
  157OSM    H2G17584  -0.164   2.769   3.066 -1.3777 -0.5406 -1.0706
  157OSM    C3F17585  -0.086   2.570   3.069  0.4651  0.4700  0.0626
  157OSM    H3F17586  -0.017   2.580   3.155 -0.9854 -1.9581  1.6071
  157OSM    H3G17587  -0.032   2.505   2.996  0.6201  1.7242 -0.9804
  157OSM    C4F17588  -0.219   2.508   3.120  0.0070 -0.4013  0.3987
  157OSM    H4F17589  -0.194   2.401   3.137  0.3796 -0.5460 -0.9302
  157OSM    H4G17590  -0.302   2.502   3.046  0.3194 -3.3018  0.1663
  157OSM    C5F17591  -0.279   2.566   3.248  0.4265 -0.4362  0.0642
  157OSM    H5F17592  -0.307   2.669   3.216 -1.8543 -1.4510 -1.5354
  157OSM    H5G17593  -0.202   2.582   3.326  1.0328 -2.3130 -0.0907
  157OSM    C6F17594  -0.399   2.489   3.313 -0.2458  0.4072 -0.0025
  157OSM    H6F17595  -0.370   2.383   3.324 -2.3634 -0.5401 -2.4531
  157OSM    H6G17596  -0.482   2.496   3.239  0.3765  0.3402 -0.7150
  157OSM    C7F17597  -0.437   2.534   3.459 -0.1859 -0.8586  0.0681
  157OSM    H7F17598  -0.530   2.484   3.496  0.8772 -1.1711  2.5760
  157OSM    H7G17599  -0.461   2.642   3.447  0.1738 -0.4887  2.2465
  157OSM    C8F17600  -0.340   2.524   3.577 -0.2082 -0.2260  0.0844
  157OSM    H8F17601  -0.255   2.594   3.566  0.5364 -0.8590  1.6524
  157OSM    H8G17602  -0.304   2.420   3.590 -0.2746 -0.1460  0.9367
  157OSM    C9F17603  -0.414   2.568   3.697  0.1390 -0.0499 -0.4771
  157OSM    H9F17604  -0.467   2.663   3.682  2.7171  1.2419 -2.0314
  157OSM   C10F17605  -0.460   2.485   3.790 -0.3891  0.2832 -0.0145
  157OSM   H10F17606  -0.526   2.519   3.872 -1.3197  2.1214 -1.4374
  157OSM   C11F17607  -0.418   2.342   3.797  0.1118 -0.6755  0.1861
  157OSM   H11F17608  -0.308   2.328   3.796  0.4299  1.5110 -0.9025
  157OSM   H11G17609  -0.459   2.304   3.701  0.3558 -0.0132 -0.1852
  157OSM   C12F17610  -0.479   2.267   3.918 -0.3127  0.0782  0.4735
  157OSM   H12F17611  -0.466   2.157   3.906 -1.5916 -0.1822  1.2324
  157OSM   H12G17612  -0.590   2.270   3.920 -0.3066  0.4316  0.3162
  157OSM   C13F17613  -0.421   2.305   4.052 -0.0110 -0.0000 -0.6187
  157OSM   H13F17614  -0.453   2.406   4.085 -2.8090 -1.2629  0.7795
  157OSM   H13G17615  -0.310   2.313   4.042 -0.1246  0.1828 -1.9501
  157OSM   C14F17616  -0.458   2.205   4.157  0.5831 -0.2138  0.1145
  157OSM   H14F17617  -0.424   2.101   4.134 -0.5724 -0.6456  0.2990
  157OSM   H14G17618  -0.568   2.191   4.158  0.3362  1.0621  3.4158
  157OSM   C15F17619  -0.406   2.238   4.295 -0.3497 -0.3006 -0.6559
  157OSM   H15F17620  -0.467   2.321   4.336  0.5208 -0.1746  0.4317
  157OSM   H15G17621  -0.297   2.258   4.286 -0.6452  0.9289 -2.0561
  157OSM   C16F17622  -0.419   2.124   4.400  0.2719 -0.3849 -0.2019
  157OSM   H16F17623  -0.377   2.032   4.353 -1.6336 -1.3842 -0.0120
  157OSM   H16G17624  -0.520   2.084   4.421  0.7841 -1.5087  0.2110
  157OSM   C17F17625  -0.347   2.151   4.531  0.0618 -0.0243  0.2258
  157OSM   H17F17626  -0.405   2.227   4.589  0.5543 -0.2371  1.0042
  157OSM   H17G17627  -0.248   2.191   4.501 -0.0768  0.0465 -0.1455
  157OSM   C18F17628  -0.335   2.038   4.628 -0.3133 -0.2112  0.6892
  157OSM   H18F17629  -0.432   1.996   4.663 -0.3514 -1.3397 -0.6831
  157OSM   H18G17630  -0.268   2.071   4.710 -1.1230 -0.4778  1.4740
  157OSM   H18H17631  -0.281   1.952   4.582  0.4895  1.4436 -1.6676
  158OSM      N17632   2.921   2.378   2.419 -0.2752  0.7247 -0.2687
  158OSM    C1517633   2.808   2.466   2.453 -0.0447 -0.1598 -0.4977
  158OSM   H15A17634   2.729   2.428   2.390  0.5250 -1.7722 -0.2870
  158OSM   H15B17635   2.817   2.568   2.420 -2.2778 -0.2146 -1.4739
  158OSM   H15C17636   2.778   2.460   2.557  0.6905 -3.0799 -0.3715
  158OSM    C1417637   2.957   2.385   2.274  0.9466  1.0454  0.3367
  158OSM   H14A17638   2.988   2.486   2.251  2.0002  1.1890  2.1624
  158OSM   H14B17639   2.879   2.355   2.205  0.9273  1.5927  0.1135
  158OSM   H14C17640   3.031   2.309   2.257 -1.2228 -1.0909 -0.1058
  158OSM    C1317641   3.040   2.424   2.496  0.6370  0.5729  0.0948
  158OSM   H13A17642   3.028   2.414   2.603 -1.7833 -2.3373 -0.3093
  158OSM   H13B17643   3.062   2.525   2.467  1.2445  0.2513 -0.5840
  158OSM   H13C17644   3.124   2.359   2.477 -0.4326 -0.6275 -0.7386
  158OSM    C1217645   2.877   2.234   2.460  0.6302  0.0093  0.8395
  158OSM   H12A17646   2.951   2.161   2.432  0.7730 -0.2475  1.8654
  158OSM   H12B17647   2.790   2.215   2.399  0.2183  3.8240 -0.0272
  158OSM    C1117648   2.848   2.195   2.607  0.4159  0.0861  0.3700
  158OSM   H11A17649   2.746   2.216   2.647 -1.1726 -3.1474 -1.5473
  158OSM   H11B17650   2.916   2.244   2.680  0.1434 -0.1712  0.8042
  158OSM      P17651   3.001   1.982   2.656  0.1366 -0.1085  0.1786
  158OSM    O1317652   2.998   1.837   2.643 -0.0645 -0.5291  0.3617
  158OSM    O1417653   3.112   2.047   2.586 -0.4527 -0.2016 -0.4022
  158OSM    O1117654   3.008   2.017   2.810 -0.0637  0.3649  0.0465
  158OSM    O1217655   2.861   2.053   2.617  0.2647  0.2771  0.5119
  158OSM    C1S17656   2.894   1.992   2.890  0.8290 -1.0106  0.4008
  158OSM    H1S17657   2.844   1.897   2.862  0.9113 -0.7805 -0.5763
  158OSM    H1T17658   2.824   2.079   2.882  1.8921  0.0625  2.0940
  158OSM     NF17659   2.803   1.975   3.113 -0.2445 -0.4862 -0.1174
  158OSM    HNF17660   2.765   2.057   3.156  0.3799 -0.5149  0.5070
  158OSM    C2S17661   2.927   1.996   3.039 -0.3144  0.1890  0.4984
  158OSM    H2S17662   2.986   1.907   3.070 -1.7161 -0.6278  0.8992
  158OSM    C3S17663   3.000   2.131   3.084 -0.4911 -0.1481  0.5718
  158OSM    H3S17664   2.925   2.211   3.103 -2.3760 -1.5489 -0.5756
  158OSM     O317665   3.094   2.182   2.993  0.1173 -0.0153 -0.3229
  158OSM    HO317666   3.093   2.124   2.916 -0.8727 -2.3882  1.3335
  158OSM    C4S17667   3.067   2.122   3.222  0.3949 -0.0689 -0.3997
  158OSM    H4S17668   3.147   2.047   3.224  0.2101 -0.3101  3.1260
  158OSM    C5S17669   3.039   2.201   3.325 -0.2761 -0.2224  0.3505
  158OSM    H5S17670   2.968   2.284   3.310  0.0674 -0.0286 -0.2144
  158OSM    C6S17671   3.102   2.203   3.459 -0.4797 -0.2765 -0.4613
  158OSM    H6S17672   3.109   2.305   3.502 -2.7999  0.9611 -2.7214
  158OSM    H6T17673   3.203   2.156   3.456 -0.2671  0.2006 -0.9828
  158OSM    C7S17674   3.012   2.126   3.559  0.1638  0.4053 -0.8968
  158OSM    H7S17675   3.011   2.017   3.542 -1.7772  0.2880 -0.2419
  158OSM    H7T17676   2.910   2.170   3.548 -0.3689 -0.6301 -0.2007
  158OSM    C8S17677   3.046   2.164   3.710  0.4295 -0.0609  1.1096
  158OSM    H8S17678   3.105   2.258   3.716  0.1506  0.1708  0.3506
  158OSM    H8T17679   3.125   2.089   3.732 -0.3945 -0.8500  1.4686
  158OSM    C9S17680   2.932   2.150   3.803  0.4528 -0.9472  0.2226
  158OSM    H9S17681   2.891   2.047   3.802  0.3156 -0.8974  0.6351
  158OSM    H9T17682   2.853   2.219   3.768  0.6256 -0.3760  0.9324
  158OSM   C10S17683   2.962   2.181   3.949  0.7791  0.0786  0.2944
  158OSM   H10S17684   2.990   2.289   3.951 -0.5286  0.4370  0.3031
  158OSM   H10T17685   3.049   2.121   3.981 -0.5709 -0.9997  2.1835
  158OSM   C11S17686   2.838   2.162   4.047 -0.4277  0.8913 -0.4758
  158OSM   H11S17687   2.798   2.060   4.032 -2.5116  1.5279  0.4660
  158OSM   H11T17688   2.757   2.232   4.019  0.3784  1.8856 -0.4021
  158OSM   C12S17689   2.880   2.178   4.196  0.1266  0.0273  0.3515
  158OSM   H12S17690   2.881   2.285   4.225  0.3966 -0.2440  1.3753
  158OSM   H12T17691   2.984   2.138   4.202  0.0444  0.0206  3.0645
  158OSM   C13S17692   2.798   2.100   4.305 -0.3173  0.1670  0.3013
  158OSM   H13S17693   2.814   1.993   4.278  1.0071 -0.6338  3.7006
  158OSM   H13T17694   2.690   2.120   4.315 -0.0731  0.8581  1.7895
  158OSM   C14S17695   2.860   2.103   4.440  0.0094  0.5001 -0.8979
  158OSM   H14S17696   2.793   2.037   4.499  0.3716  0.4444 -0.5411
  158OSM   H14T17697   2.863   2.203   4.488  1.4326  0.3627 -0.6470
  158OSM   C15S17698   3.001   2.047   4.454  0.2421 -0.3562 -0.6656
  158OSM   H15S17699   3.075   2.118   4.411  1.5402  0.5374  2.6937
  158OSM   H15T17700   3.006   1.955   4.392  1.3146 -1.0713  0.4340
  158OSM   C16S17701   3.051   2.008   4.596  0.3878  0.5249  0.0481
  158OSM   H16S17702   3.078   2.100   4.652 -2.1104  1.6586 -0.4902
  158OSM   H16T17703   3.152   1.967   4.573  0.3936  1.2922 -1.4518
  158OSM   C17S17704   2.962   1.909   4.663 -0.6286  0.1018  0.5277
  158OSM   H17S17705   2.917   1.841   4.589 -0.2550  2.4847 -2.0587
  158OSM   H17T17706   2.879   1.966   4.709 -1.4254 -1.4746  1.1124
  158OSM   C18S17707   3.035   1.833   4.767  0.2672  0.5690 -0.5341
  158OSM   H18S17708   3.130   1.796   4.722  0.3021 -0.0533  0.0439
  158OSM   H18T17709   2.976   1.745   4.800  0.9866 -0.2824 -1.4611
  158OSM   H18U17710   3.074   1.890   4.854  1.6294 -0.8947 -0.1292
  158OSM    C1F17711   2.727   1.872   3.105 -0.2938 -0.8227  0.2534
  158OSM     OF17712   2.766   1.774   3.043 -0.5737  0.1174  0.4539
  158OSM    C2F17713   2.598   1.890   3.174  0.2112  0.3589  0.6651
  158OSM    H2F17714   2.522   1.870   3.096  1.2883 -0.9789 -0.0863
  158OSM    H2G17715   2.578   1.982   3.233 -0.2915 -0.6147  2.0799
  158OSM    C3F17716   2.577   1.764   3.269 -0.7714  0.9592  0.6284
  158OSM    H3F17717   2.601   1.672   3.210 -1.6175  1.4999 -0.5988
  158OSM    H3G17718   2.468   1.762   3.288 -0.9538  1.5751 -0.2633
  158OSM    C4F17719   2.659   1.766   3.395 -0.0257 -0.2018 -0.4184
  158OSM    H4F17720   2.765   1.766   3.364  0.1125 -1.3940  0.0261
  158OSM    H4G17721   2.646   1.672   3.453  0.0230  0.8594  1.3973
  158OSM    C5F17722   2.647   1.894   3.485  0.0686 -0.1219 -0.0764
  158OSM    H5F17723   2.544   1.904   3.525 -0.1329 -0.5060 -0.4826
  158OSM    H5G17724   2.665   1.978   3.414  2.0158  0.0540  0.5646
  158OSM    C6F17725   2.749   1.903   3.607 -0.4248 -0.4590  0.3613
  158OSM    H6F17726   2.756   2.014   3.617 -0.6760 -0.2304 -1.6250
  158OSM    H6G17727   2.847   1.866   3.570  0.6407  1.0281  1.5539
  158OSM    C7F17728   2.708   1.832   3.732  0.3695  0.7230 -0.0406
  158OSM    H7F17729   2.776   1.852   3.818 -1.1122 -0.6490  1.5142
  158OSM    H7G17730   2.737   1.730   3.699  0.4160  1.1115 -1.2465
  158OSM    C8F17731   2.562   1.826   3.772  0.0463  0.4549 -0.7963
  158OSM    H8F17732   2.549   1.779   3.872 -0.0149 -1.1581 -1.5315
  158OSM    H8G17733   2.490   1.774   3.705 -1.8853  0.3564  1.2263
  158OSM    C9F17734   2.510   1.967   3.776 -0.2161  0.4454 -0.3479
  158OSM    H9F17735   2.544   2.042   3.703 -1.1922  0.1449 -1.1393
  158OSM   C10F17736   2.408   1.999   3.858  0.6329  0.1609  0.5319
  158OSM   H10F17737   2.367   2.100   3.871  0.7291  0.1303  1.0879
  158OSM   C11F17738   2.357   1.919   3.972  0.0115  0.1636 -0.9453
  158OSM   H11F17739   2.422   1.839   4.012 -0.6723  0.0590 -0.0090
  158OSM   H11G17740   2.263   1.869   3.939  0.2595  0.7362 -2.6429
  158OSM   C12F17741   2.315   2.003   4.094  0.8603 -0.7945  0.4969
  158OSM   H12F17742   2.242   2.081   4.066  1.1788 -0.3895  0.7843
  158OSM   H12G17743   2.408   2.046   4.137  2.3091 -2.8714 -0.3264
  158OSM   C13F17744   2.251   1.930   4.213  0.8364 -0.1173  0.0906
  158OSM   H13F17745   2.263   1.990   4.305  2.0701  0.3611 -0.3677
  158OSM   H13G17746   2.302   1.831   4.210  0.1575 -0.4674 -1.6361
  158OSM   C14F17747   2.091   1.898   4.209 -0.2821  0.3771 -0.0127
  158OSM   H14F17748   2.079   1.809   4.274  1.0970  0.0099 -0.2222
  158OSM   H14G17749   2.070   1.883   4.101  1.5936  1.3854 -0.5609
  158OSM   C15F17750   1.999   2.020   4.249  0.9093  0.3613  0.5770
  158OSM   H15F17751   2.052   2.103   4.197 -2.2876  1.8357 -0.5987
  158OSM   H15G17752   1.999   2.022   4.360  2.5720 -2.0046  0.6921
  158OSM   C16F17753   1.854   2.015   4.192  0.4439  0.2612 -0.2250
  158OSM   H16F17754   1.840   1.977   4.088 -4.9412 -1.3692  0.7688
  158OSM   H16G17755   1.810   2.117   4.198 -0.5387 -0.1176 -0.7178
  158OSM   C17F17756   1.772   1.924   4.281  0.6405  0.7486 -0.0015
  158OSM   H17F17757   1.836   1.837   4.307  1.5979  1.4559  0.0442
  158OSM   H17G17758   1.677   1.886   4.238  0.2355 -0.6719  2.0093
  158OSM   C18F17759   1.728   1.995   4.411 -1.3370  0.1910  0.3523
  158OSM   H18F17760   1.710   1.929   4.498  2.2765 -0.7782  0.5401
  158OSM   H18G17761   1.650   2.073   4.397 -1.8064 -0.6530 -2.2836
  158OSM   H18H17762   1.825   2.038   4.443 -0.3366 -1.8681  0.2237
  159OSM      N17763   6.753   2.675   2.356 -0.6646 -0.3967  0.2463
  159OSM    C1517764   6.821   2.654   2.222 -0.1650  0.1397  0.3260
  159OSM   H15A17765   6.910   2.593   2.227 -1.9580 -3.3273 -3.7965
  159OSM   H15B17766   6.850   2.750   2.182 -0.4001  0.5858  1.2133
  159OSM   H15C17767   6.757   2.603   2.151  0.6673 -3.8572  2.1581
  159OSM    C1417768   6.616   2.719   2.331 -0.6169  0.0221 -0.3070
  159OSM   H14A17769   6.577   2.649   2.258 -0.4057 -1.1193  0.6372
  159OSM   H14B17770   6.613   2.816   2.285  0.7235 -0.1686 -0.8420
  159OSM   H14C17771   6.563   2.718   2.426  1.0230  0.8840  0.6690
  159OSM    C1317772   6.740   2.542   2.432 -0.3133  0.2164 -0.2212
  159OSM   H13A17773   6.682   2.464   2.384  0.6821 -1.7899  1.6681
  159OSM   H13B17774   6.703   2.559   2.531 -0.0470  0.7993 -0.2163
  159OSM   H13C17775   6.836   2.497   2.452  0.0495  0.4478 -1.3493
  159OSM    C1217776   6.825   2.780   2.431  0.1014 -0.2472 -0.3252
  159OSM   H12A17777   6.820   2.871   2.374 -1.7599 -0.3204 -0.3562
  159OSM   H12B17778   6.929   2.752   2.435  0.0774 -0.4980 -1.2252
  159OSM    C1117779   6.788   2.807   2.581 -0.3603 -0.9871  0.0232
  159OSM   H11A17780   6.870   2.865   2.628 -0.5927  0.2152 -0.9967
  159OSM   H11B17781   6.812   2.713   2.635  1.0092  0.1103  1.4327
  159OSM      P17782   6.619   3.000   2.589 -0.1757 -0.4241 -0.3379
  159OSM    O1317783   6.697   3.048   2.477 -0.6522 -0.0328  0.9903
  159OSM    O1417784   6.475   3.023   2.584  0.3457  0.3489 -0.2765
  159OSM    O1117785   6.675   3.053   2.727 -0.1938 -0.5304  0.3727
  159OSM    O1217786   6.654   2.852   2.607 -0.6019 -0.3575 -0.9526
  159OSM    C1S17787   6.598   3.042   2.842 -0.8223  0.3180  0.4938
  159OSM    H1S17788   6.614   2.941   2.885  2.3747 -0.3439 -1.8780
  159OSM    H1T17789   6.488   3.036   2.825 -1.0738 -0.2394  2.1319
  159OSM     NF17790   6.553   3.133   3.061 -0.3925 -0.3746 -0.3930
  159OSM    HNF17791   6.457   3.161   3.063 -0.4168 -0.4396 -0.6387
  159OSM    C2S17792   6.623   3.165   2.937  0.2539 -0.2092  0.0906
  159OSM    H2S17793   6.732   3.155   2.960  0.5754  2.0843 -0.1639
  159OSM    C3S17794   6.611   3.300   2.865  0.4119  0.2166 -0.1016
  159OSM    H3S17795   6.510   3.315   2.821  2.0554  3.4649 -3.3545
  159OSM     O317796   6.695   3.317   2.749 -0.0867 -0.5090 -0.4192
  159OSM    HO317797   6.712   3.227   2.721  2.6195 -0.2018  0.0107
  159OSM    C4S17798   6.644   3.403   2.970 -0.6168  0.5722  0.8613
  159OSM    H4S17799   6.564   3.401   3.045  0.4386 -0.5111  1.9979
  159OSM    C5S17800   6.757   3.477   2.989 -0.5276 -0.9597  0.2501
  159OSM    H5S17801   6.829   3.469   2.905 -0.7230  0.9771 -0.1396
  159OSM    C6S17802   6.774   3.581   3.096  0.2577  0.1782  0.0143
  159OSM    H6S17803   6.706   3.667   3.073 -1.4013 -1.2372 -0.6003
  159OSM    H6T17804   6.880   3.615   3.098  1.1067 -2.2575 -0.7773
  159OSM    C7S17805   6.725   3.559   3.239  1.0791  0.7510  0.1517
  159OSM    H7S17806   6.614   3.558   3.242  1.0321 -1.7071 -0.4993
  159OSM    H7T17807   6.742   3.645   3.307  3.4909  0.2043  0.3366
  159OSM    C8S17808   6.763   3.427   3.308  0.2739  0.0963 -0.0436
  159OSM    H8S17809   6.871   3.430   3.332  0.7436 -0.9506 -1.8021
  159OSM    H8T17810   6.753   3.344   3.235 -4.0109  0.9546 -0.7085
  159OSM    C9S17811   6.685   3.394   3.437  0.3952 -0.0607 -0.7823
  159OSM    H9S17812   6.710   3.297   3.483  1.6929  0.6995  0.1888
  159OSM    H9T17813   6.578   3.388   3.411  0.2793 -1.6311 -0.0017
  159OSM   C10S17814   6.687   3.501   3.551 -0.3702  0.5376  0.0040
  159OSM   H10S17815   6.628   3.590   3.520  0.5328  0.8410 -0.9179
  159OSM   H10T17816   6.793   3.529   3.569 -1.1336  2.7165  1.4808
  159OSM   C11S17817   6.629   3.457   3.686 -0.5921 -0.2539 -0.4367
  159OSM   H11S17818   6.686   3.371   3.726 -0.8296  0.3408  1.2558
  159OSM   H11T17819   6.520   3.435   3.696 -0.3917 -0.9214  0.4332
  159OSM   C12S17820   6.661   3.573   3.785 -0.0836  0.4716  0.0624
  159OSM   H12S17821   6.588   3.652   3.759 -1.2020 -0.0696  1.4061
  159OSM   H12T17822   6.763   3.615   3.779  0.0312  0.1455 -0.3499
  159OSM   C13S17823   6.624   3.520   3.921  0.1792  0.7007 -0.2042
  159OSM   H13S17824   6.694   3.443   3.960  0.0341  1.7845  2.4171
  159OSM   H13T17825   6.524   3.472   3.916  0.8772 -0.6717 -1.5550
  159OSM   C14S17826   6.632   3.631   4.031  0.5339  0.3314 -0.5684
  159OSM   H14S17827   6.562   3.717   4.025 -1.4075 -1.0893  0.7443
  159OSM   H14T17828   6.733   3.677   4.028  1.9060 -2.4919 -1.2514
  159OSM   C15S17829   6.614   3.579   4.172  0.0583  0.8632 -0.6859
  159OSM   H15S17830   6.663   3.480   4.177  0.2798  0.8694 -2.1964
  159OSM   H15T17831   6.508   3.567   4.203 -0.2626 -0.7106 -2.2178
  159OSM   C16S17832   6.675   3.675   4.271  0.3821  0.6374 -0.2517
  159OSM   H16S17833   6.672   3.770   4.213  3.6717 -0.6132 -2.8309
  159OSM   H16T17834   6.780   3.640   4.262 -0.4395 -1.3794 -5.0982
  159OSM   C17S17835   6.608   3.667   4.409  0.0003  0.4213  0.5049
  159OSM   H17S17836   6.598   3.558   4.430 -0.4526  0.6422  1.5273
  159OSM   H17T17837   6.507   3.713   4.401 -0.9598 -1.6640  0.0267
  159OSM   C18S17838   6.681   3.746   4.523 -0.3390  0.3312  0.1566
  159OSM   H18S17839   6.653   3.710   4.624 -1.9688  0.4778 -0.2071
  159OSM   H18T17840   6.655   3.853   4.506  1.2179  0.4903 -1.4869
  159OSM   H18U17841   6.792   3.741   4.515 -0.1619  1.5470  1.4555
  159OSM    C1F17842   6.604   3.051   3.148  0.4230  0.3124 -0.2219
  159OSM     OF17843   6.719   3.029   3.160 -0.5529  0.5362  0.1174
  159OSM    C2F17844   6.511   2.981   3.244 -1.0531  0.2630  1.0343
  159OSM    H2F17845   6.459   2.903   3.184  0.4393 -2.4764  3.0746
  159OSM    H2G17846   6.430   3.047   3.281 -2.6523 -0.9435 -0.1661
  159OSM    C3F17847   6.587   2.919   3.364 -0.3473 -0.1079  0.6760
  159OSM    H3F17848   6.682   2.873   3.331  0.4127  1.3633  0.7234
  159OSM    H3G17849   6.524   2.838   3.407  0.0388 -0.3094  0.8672
  159OSM    C4F17850   6.620   3.027   3.480  0.0339 -0.3577  0.1989
  159OSM    H4F17851   6.574   3.125   3.456 -0.2807  0.1153  2.4925
  159OSM    H4G17852   6.729   3.047   3.470 -0.5900  2.8862 -1.6003
  159OSM    C5F17853   6.572   2.971   3.612 -0.3904  0.4305  0.7948
  159OSM    H5F17854   6.606   2.865   3.612 -1.3070  0.0785 -1.2926
  159OSM    H5G17855   6.461   2.967   3.612 -0.4695  2.1457  0.1514
  159OSM    C6F17856   6.634   3.039   3.730 -0.4086  0.2965  0.0337
  159OSM    H6F17857   6.618   3.149   3.724 -0.5021  0.4487  2.3804
  159OSM    H6G17858   6.743   3.020   3.729 -0.2219  1.2905 -0.9833
  159OSM    C7F17859   6.583   2.991   3.867  0.1950 -0.8362  0.1773
  159OSM    H7F17860   6.554   2.885   3.862  1.4052 -1.2209  0.8205
  159OSM    H7G17861   6.488   3.045   3.885  0.5773  0.0872 -0.4352
  159OSM    C8F17862   6.686   2.997   3.977  0.2204 -0.5010 -0.0090
  159OSM    H8F17863   6.758   2.917   3.951  1.9209  1.8874 -3.4367
  159OSM    H8G17864   6.638   2.965   4.071 -0.9173 -0.1093 -0.4338
  159OSM    C9F17865   6.743   3.132   3.994  0.3929  0.2430  0.5629
  159OSM    H9F17866   6.784   3.187   3.908  2.3937  0.0941  1.3796
  159OSM   C10F17867   6.764   3.186   4.119  0.0698 -0.5635  0.3364
  159OSM   H10F17868   6.795   3.292   4.126  1.4925 -0.7817 -1.7416
  159OSM   C11F17869   6.712   3.136   4.247  0.2175  0.3652  0.2387
  159OSM   H11F17870   6.771   3.045   4.269  1.1678  0.9922  0.3527
  159OSM   H11G17871   6.607   3.098   4.246 -0.5213  2.2866  0.4510
  159OSM   C12F17872   6.730   3.216   4.374  0.1099  0.8895 -0.7135
  159OSM   H12F17873   6.686   3.160   4.458  3.5805 -1.7073 -0.4280
  159OSM   H12G17874   6.686   3.318   4.361  0.3288  0.9830 -0.7359
  159OSM   C13F17875   6.875   3.228   4.416 -0.9826  0.5031 -0.2491
  159OSM   H13F17876   6.943   3.258   4.333  1.2235  0.5995  1.4978
  159OSM   H13G17877   6.917   3.131   4.450  2.2757  0.1673 -4.3985
  159OSM   C14F17878   6.907   3.326   4.525  0.3233 -0.1383  0.8159
  159OSM   H14F17879   6.867   3.423   4.487  0.4137 -0.5187 -0.2799
  159OSM   H14G17880   7.014   3.329   4.555  0.4560 -2.6550  0.8163
  159OSM   C15F17881   6.837   3.298   4.657  0.7738 -0.0164  0.3316
  159OSM   H15F17882   6.849   3.196   4.697  1.0815 -0.2006 -0.2136
  159OSM   H15G17883   6.728   3.301   4.634  0.8815  2.2731 -0.1415
  159OSM   C16F17884   6.876   3.389   4.777  0.3620  0.1081 -0.3313
  159OSM   H16F17885   6.857   3.496   4.754 -0.7333  0.2952  1.2971
  159OSM   H16G17886   6.986   3.380   4.793  0.2441  0.7921  0.9258
  159OSM   C17F17887   6.803   3.362   4.906  0.3777  0.5851  0.3806
  159OSM   H17F17888   6.844   3.431   4.983  1.0013  2.3076 -1.3966
  159OSM   H17G17889   6.832   3.258   4.933 -0.3536  0.3668  0.3450
  159OSM   C18F17890   6.653   3.373   4.904  0.2262  0.5877 -0.5566
  159OSM   H18F17891   6.624   3.288   4.839  2.1314  0.1351 -0.8682
  159OSM   H18G17892   6.623   3.465   4.850 -0.2311 -0.1832 -1.6552
  159OSM   H18H17893   6.597   3.358   4.998  1.1385 -3.0887 -0.4476
  160OSM      N17894   3.358   3.324   2.128 -0.2331  0.9509 -0.6599
  160OSM    C1517895   3.463   3.252   2.210 -0.4910 -0.1153  0.1839
  160OSM   H15A17896   3.424   3.246   2.311 -0.1659 -0.9387  0.2639
  160OSM   H15B17897   3.556   3.306   2.218 -0.6795  0.3643 -0.7853
  160OSM   H15C17898   3.485   3.154   2.172  1.3136 -0.1201  1.1553
  160OSM    C1417899   3.399   3.340   1.981 -0.8904  0.3966 -0.6532
  160OSM   H14A17900   3.326   3.406   1.935 -1.2172 -0.1790 -0.9790
  160OSM   H14B17901   3.412   3.249   1.924 -0.0661  0.0227  0.1296
  160OSM   H14C17902   3.491   3.396   1.990 -1.7379  2.0016 -1.5002
  160OSM    C1317903   3.233   3.245   2.125  0.8391  0.1921 -0.2603
  160OSM   H13A17904   3.155   3.295   2.070  1.4247  0.9783 -0.3874
  160OSM   H13B17905   3.191   3.214   2.220  2.8751  1.6406  1.1905
  160OSM   H13C17906   3.255   3.148   2.083  1.1796  0.1071  0.1044
  160OSM    C1217907   3.331   3.468   2.176  0.0275 -1.1983  0.7005
  160OSM   H12A17908   3.406   3.538   2.142  0.4459 -2.4083 -1.0508
  160OSM   H12B17909   3.340   3.468   2.283 -0.3941 -2.0422  0.7439
  160OSM    C1117910   3.188   3.527   2.135 -0.6026  0.5803  0.5097
  160OSM   H11A17911   3.176   3.521   2.024  0.7805  0.8137  0.3300
  160OSM   H11B17912   3.187   3.633   2.168 -0.3243  1.2811 -1.5908
  160OSM      P17913   3.052   3.478   2.356  0.5532  0.2042 -0.0505
  160OSM    O1317914   3.009   3.618   2.375 -0.2206 -0.2717 -0.0626
  160OSM    O1417915   2.967   3.371   2.404  0.0536  0.4577  0.2424
  160OSM    O1117916   3.195   3.457   2.419 -0.3200 -0.1466 -0.3161
  160OSM    O1217917   3.080   3.455   2.198 -0.1291 -0.2880  0.2497
  160OSM    C1S17918   3.215   3.487   2.556  1.0880 -0.5739  0.6110
  160OSM    H1S17919   3.157   3.577   2.587  0.8998 -0.1659 -0.8561
  160OSM    H1T17920   3.319   3.516   2.583  0.4514  1.2674  1.2600
  160OSM     NF17921   3.144   3.423   2.787  0.1751 -0.2688  0.2201
  160OSM    HNF17922   3.216   3.417   2.856 -1.4314  0.3495  2.0480
  160OSM    C2S17923   3.173   3.368   2.653  0.4572  0.1419  0.0052
  160OSM    H2S17924   3.082   3.321   2.611  0.9572 -0.9828  0.1655
  160OSM    C3S17925   3.284   3.267   2.631 -0.3971  0.5349 -0.2057
  160OSM    H3S17926   3.379   3.311   2.668 -0.6959  1.6057 -0.6824
  160OSM     O317927   3.285   3.230   2.496 -0.5078 -0.0896  0.2686
  160OSM    HO317928   3.241   3.300   2.447 -1.3237 -0.8331 -0.0932
  160OSM    C4S17929   3.260   3.149   2.717  0.5206  0.3611 -0.2594
  160OSM    H4S17930   3.179   3.082   2.688  0.7736 -0.7902  1.5722
  160OSM    C5S17931   3.327   3.120   2.830 -0.0991  0.6684  0.2623
  160OSM    H5S17932   3.414   3.181   2.858 -0.4798 -0.7592  5.8828
  160OSM    C6S17933   3.308   2.996   2.914 -0.4545 -1.0368 -0.2209
  160OSM    H6S17934   3.404   2.942   2.900 -0.3130 -0.7183 -0.5141
  160OSM    H6T17935   3.235   2.935   2.858 -0.5360  1.2436 -2.8454
  160OSM    C7S17936   3.267   2.993   3.066  0.2583 -0.2364  0.2012
  160OSM    H7S17937   3.156   2.988   3.076  0.3116  0.2756  1.1917
  160OSM    H7T17938   3.309   3.084   3.114 -0.0022 -0.1487  0.2667
  160OSM    C8S17939   3.331   2.872   3.134  0.2449  1.1399 -0.6766
  160OSM    H8S17940   3.442   2.874   3.134  0.3483 -1.3903 -0.3497
  160OSM    H8T17941   3.313   2.778   3.078  0.7392  0.1862  0.7337
  160OSM    C9S17942   3.287   2.866   3.281 -0.1363  0.2320 -0.7529
  160OSM    H9S17943   3.179   2.841   3.289 -0.0140 -0.0440  0.2513
  160OSM    H9T17944   3.312   2.959   3.336  1.0998 -0.3115 -0.3393
  160OSM   C10S17945   3.359   2.751   3.358  0.8165 -0.6052 -0.2336
  160OSM   H10S17946   3.469   2.764   3.362  0.4910  2.5712  1.6073
  160OSM   H10T17947   3.355   2.658   3.298  2.4802  0.0017 -1.3447
  160OSM   C11S17948   3.312   2.739   3.508 -0.3672 -0.2976  0.0514
  160OSM   H11S17949   3.202   2.754   3.516 -0.2284  0.7451  0.1033
  160OSM   H11T17950   3.347   2.826   3.567 -1.1358 -0.6252  1.0380
  160OSM   C12S17951   3.360   2.615   3.579  0.3720 -0.3404  0.3756
  160OSM   H12S17952   3.471   2.621   3.587  0.6075 -3.7115  1.2775
  160OSM   H12T17953   3.336   2.521   3.524 -0.8566  1.7289 -2.8927
  160OSM   C13S17954   3.316   2.599   3.722  0.8099  0.2064  0.1201
  160OSM   H13S17955   3.349   2.691   3.775  2.0401 -0.8910  1.3056
  160OSM   H13T17956   3.367   2.522   3.782 -0.0636  0.7677  1.6365
  160OSM   C14S17957   3.164   2.580   3.733 -0.1418  0.6422 -0.1090
  160OSM   H14S17958   3.142   2.486   3.678  1.0239  1.6662 -2.4835
  160OSM   H14T17959   3.119   2.665   3.677  1.3374  0.7681 -1.1680
  160OSM   C15S17960   3.109   2.563   3.875  0.6466 -0.3233 -0.4537
  160OSM   H15S17961   3.158   2.476   3.924  0.5073 -1.1175 -1.6846
  160OSM   H15T17962   3.006   2.525   3.884  1.8004 -3.6662  0.1214
  160OSM   C16S17963   3.124   2.700   3.954 -0.0876  0.1992  0.2727
  160OSM   H16S17964   3.103   2.775   3.874 -2.9796  0.8620  1.5082
  160OSM   H16T17965   3.228   2.721   3.987  0.2104  0.2841 -0.6825
  160OSM   C17S17966   3.021   2.702   4.064  0.5839  0.3057 -0.0173
  160OSM   H17S17967   3.064   2.739   4.159  1.2164 -1.6877  0.5031
  160OSM   H17T17968   2.978   2.601   4.082 -0.8069  1.1388  1.7324
  160OSM   C18S17969   2.902   2.798   4.025 -0.3379  0.3523  0.3374
  160OSM   H18S17970   2.844   2.755   3.941  0.6479  0.2628 -0.3223
  160OSM   H18T17971   2.938   2.900   3.997  0.4513 -0.4727 -1.8665
  160OSM   H18U17972   2.830   2.819   4.107 -1.4948  1.0812 -0.8155
  160OSM    C1F17973   3.037   3.488   2.821 -0.1585 -0.0161 -0.0722
  160OSM     OF17974   2.937   3.492   2.756 -0.2190  0.0825  0.0232
  160OSM    C2F17975   3.045   3.565   2.950 -0.2081  0.2399 -1.2377
  160OSM    H2F17976   3.076   3.669   2.924  2.1345  0.2792  1.2651
  160OSM    H2G17977   3.125   3.529   3.018  0.7722  0.7610 -2.0954
  160OSM    C3F17978   2.905   3.587   3.030 -0.3752 -0.5590 -0.0892
  160OSM    H3F17979   2.861   3.490   3.060  2.3470 -1.5241  1.1245
  160OSM    H3G17980   2.840   3.636   2.955  0.7640  2.7332  0.9048
  160OSM    C4F17981   2.914   3.680   3.147  0.5383 -0.1200  0.2896
  160OSM    H4F17982   2.811   3.707   3.176  0.6042 -0.4951  0.9092
  160OSM    H4G17983   2.952   3.780   3.117  1.4943 -0.2723  0.9275
  160OSM    C5F17984   2.992   3.634   3.271  0.2872 -0.2984  0.1225
  160OSM    H5F17985   3.088   3.593   3.234 -0.1043 -0.6738 -0.4924
  160OSM    H5G17986   2.933   3.547   3.307 -0.1038 -0.3180 -0.5329
  160OSM    C6F17987   3.001   3.747   3.377  0.1039  0.1031 -0.0141
  160OSM    H6F17988   2.909   3.808   3.379  0.2003  0.2419  0.2181
  160OSM    H6G17989   3.077   3.819   3.340  2.5431 -2.0264  0.5390
  160OSM    C7F17990   3.022   3.694   3.519 -0.7394 -0.1402 -0.3476
  160OSM    H7F17991   3.083   3.763   3.581 -0.6462 -0.4758 -0.0612
  160OSM    H7G17992   3.090   3.606   3.507 -0.4657 -0.3614  2.2574
  160OSM    C8F17993   2.897   3.659   3.599  0.4037 -0.1092 -0.0112
  160OSM    H8F17994   2.836   3.594   3.534 -1.0242  0.1621  1.0179
  160OSM    H8G17995   2.839   3.754   3.603  0.5294  0.0563 -1.6133
  160OSM    C9F17996   2.927   3.587   3.727  0.6819 -0.5295  0.4220
  160OSM    H9F17997   2.889   3.483   3.723 -1.8158  0.3561 -0.7924
  160OSM   C10F17998   2.959   3.643   3.840  0.9495  0.5690 -0.2642
  160OSM   H10F17999   2.972   3.579   3.928  0.0519  0.1569 -0.4220
  160OSM   C11F18000   3.000   3.791   3.861  0.4672  0.2123 -0.2872
  160OSM   H11F18001   2.915   3.858   3.836 -0.7246 -0.2089  2.4065
  160OSM   H11G18002   3.074   3.832   3.789  0.9677  0.5150  0.3886
  160OSM   C12F18003   3.033   3.829   4.004  0.0536  0.3509  0.5875
  160OSM   H12F18004   3.128   3.778   4.031 -0.6049 -0.1524  2.0695
  160OSM   H12G18005   2.961   3.800   4.084  0.4927 -0.2785  0.7659
  160OSM   C13F18006   3.056   3.984   4.003 -0.0598  0.4965 -0.3420
  160OSM   H13F18007   2.967   4.038   3.965 -1.0595 -0.1626  0.9664
  160OSM   H13G18008   3.141   3.987   3.932  1.5644 -3.1551  1.1859
  160OSM   C14F18009   3.103   4.059   4.136 -0.7152 -0.1246  0.0998
  160OSM   H14F18010   3.095   4.170   4.131  0.4581  0.0282  1.0448
  160OSM   H14G18011   3.209   4.031   4.157 -0.6035  0.2372  0.0242
  160OSM   C15F18012   3.019   4.010   4.260 -0.0444  0.0333  0.4028
  160OSM   H15F18013   3.042   3.901   4.257  2.2014  0.4015  2.1543
  160OSM   H15G18014   2.912   4.031   4.239 -0.1541  0.2994  1.1926
  160OSM   C16F18015   3.064   4.058   4.397 -0.7657 -0.6898 -0.2426
  160OSM   H16F18016   3.166   4.019   4.421  0.3245  2.1019  0.0773
  160OSM   H16G18017   2.993   4.034   4.479  0.0297  1.0514  1.0470
  160OSM   C17F18018   3.076   4.215   4.402  0.7087 -0.3134 -0.6065
  160OSM   H17F18019   2.973   4.253   4.385  0.1619 -0.9330  1.1365
  160OSM   H17G18020   3.149   4.249   4.326 -1.3712  1.0988 -2.0899
  160OSM   C18F18021   3.136   4.263   4.546  0.9319 -0.1465  0.2375
  160OSM   H18F18022   3.074   4.228   4.631  1.1326  1.7286  1.2245
  160OSM   H18G18023   3.134   4.374   4.553  1.3436  0.0230 -1.6342
  160OSM   H18H18024   3.240   4.227   4.559  1.1838  0.5560  0.2080
  161OSM      N18025   1.361   2.296   2.455  0.4460 -0.1464  0.5482
  161OSM    C1518026   1.371   2.197   2.564  0.1365 -0.2694 -0.4271
  161OSM   H15A18027   1.341   2.232   2.661 -3.4842  1.1209 -1.8433
  161OSM   H15B18028   1.470   2.158   2.583  0.0655 -0.8045 -1.0997
  161OSM   H15C18029   1.299   2.117   2.549 -1.5608  0.9865  0.6052
  161OSM    C1418030   1.452   2.406   2.495 -0.3128 -0.0407  0.1240
  161OSM   H14A18031   1.437   2.457   2.589  0.9705  1.1575 -0.2833
  161OSM   H14B18032   1.436   2.484   2.422 -0.5649 -0.8097 -0.6520
  161OSM   H14C18033   1.553   2.368   2.497  0.4491  1.8645  2.2995
  161OSM    C1318034   1.406   2.234   2.327  0.3549 -0.3394 -0.1212
  161OSM   H13A18035   1.375   2.131   2.315  2.0713 -0.7135 -1.9635
  161OSM   H13B18036   1.513   2.218   2.316  0.5153  0.1691  0.6413
  161OSM   H13C18037   1.367   2.286   2.240 -1.0575 -2.4183 -0.7999
  161OSM    C1218038   1.212   2.332   2.448  0.1371  0.8550  0.7485
  161OSM   H12A18039   1.187   2.371   2.545 -0.6676  0.6604  0.6284
  161OSM   H12B18040   1.145   2.248   2.439 -0.2953  1.1934  0.7838
  161OSM    C1118041   1.155   2.432   2.345 -0.5852  0.5889 -0.3193
  161OSM   H11A18042   1.044   2.430   2.349 -0.5587 -0.7433  0.3998
  161OSM   H11B18043   1.190   2.388   2.249 -0.5292  0.8475 -0.4185
  161OSM      P18044   1.158   2.676   2.431 -0.1120 -0.3529  0.2355
  161OSM    O1318045   1.223   2.802   2.386  0.0689  0.1508 -0.2637
  161OSM    O1418046   1.009   2.691   2.424 -0.0515  0.0984  0.0722
  161OSM    O1118047   1.190   2.639   2.577 -0.2957  0.6576 -0.5049
  161OSM    O1218048   1.216   2.561   2.345 -0.1073 -0.1399 -0.0986
  161OSM    C1S18049   1.210   2.713   2.693  0.7112 -0.6212 -0.0344
  161OSM    H1S18050   1.233   2.819   2.669 -1.5348 -0.1087 -0.0822
  161OSM    H1T18051   1.295   2.675   2.754 -0.1171 -1.0229  0.8806
  161OSM     NF18052   1.101   2.780   2.906 -0.0978 -0.4504  0.2887
  161OSM    HNF18053   1.098   2.722   2.987 -0.8088 -0.3055  0.3688
  161OSM    C2S18054   1.082   2.715   2.782 -0.0088  0.2609 -0.2395
  161OSM    H2S18055   1.002   2.762   2.719 -0.9136  0.6827  1.1806
  161OSM    C3S18056   1.033   2.564   2.811  0.4737  0.1692  0.4984
  161OSM    H3S18057   1.111   2.507   2.866  0.4596 -0.2797  0.0620
  161OSM     O318058   0.996   2.491   2.695 -0.7670  0.4130 -0.3977
  161OSM    HO318059   1.012   2.552   2.622 -2.6562  0.8767 -0.4708
  161OSM    C4S18060   0.910   2.562   2.892  0.2792  0.3586 -0.3224
  161OSM    H4S18061   0.824   2.613   2.848  0.5577 -0.3379 -1.7119
  161OSM    C5S18062   0.896   2.505   3.011 -0.0681  0.3235 -0.5516
  161OSM    H5S18063   0.984   2.464   3.062 -0.1543 -0.8036 -1.2785
  161OSM    C6S18064   0.767   2.502   3.099  0.2720  0.0455 -0.5995
  161OSM    H6S18065   0.681   2.516   3.029  0.9563 -1.4438 -1.8098
  161OSM    H6T18066   0.766   2.590   3.166  0.5302  0.1114 -0.6811
  161OSM    C7S18067   0.712   2.380   3.174 -0.0692  0.6269  0.1222
  161OSM    H7S18068   0.712   2.291   3.109 -0.6473 -0.4555  1.5392
  161OSM    H7T18069   0.609   2.407   3.207 -0.0350  0.4022  0.4133
  161OSM    C8S18070   0.803   2.361   3.297  0.5466  0.6456 -0.6988
  161OSM    H8S18071   0.907   2.365   3.259  0.0992  1.1594 -1.9296
  161OSM    H8T18072   0.792   2.258   3.336  1.6753  1.0416  0.7471
  161OSM    C9S18073   0.790   2.466   3.411  0.1177  0.0523 -0.0284
  161OSM    H9S18074   0.744   2.563   3.383 -1.8067 -0.4815  1.0274
  161OSM    H9T18075   0.897   2.490   3.427  0.4917 -0.4650 -1.6246
  161OSM   C10S18076   0.710   2.411   3.531 -0.5024  0.1905  0.3785
  161OSM   H10S18077   0.731   2.305   3.557  1.7144  0.4222 -0.2348
  161OSM   H10T18078   0.606   2.413   3.492 -0.6841  0.1946  0.8594
  161OSM   C11S18079   0.717   2.486   3.667  0.0696  0.3588  0.1391
  161OSM   H11S18080   0.824   2.503   3.692  0.4493 -1.1720 -0.3716
  161OSM   H11T18081   0.667   2.425   3.745 -0.1994  0.3794 -0.0172
  161OSM   C12S18082   0.648   2.630   3.668 -0.2424 -0.2976 -0.1191
  161OSM   H12S18083   0.545   2.619   3.627 -0.5723  2.1586 -0.0748
  161OSM   H12T18084   0.708   2.674   3.586 -0.2490  0.9617  0.5327
  161OSM   C13S18085   0.656   2.702   3.805 -0.8392  0.5829  0.0926
  161OSM   H13S18086   0.623   2.808   3.798  1.1260  1.2532  0.3796
  161OSM   H13T18087   0.763   2.702   3.837 -1.0064 -1.8726  0.8354
  161OSM   C14S18088   0.577   2.633   3.918  0.2823 -0.5143  0.5355
  161OSM   H14S18089   0.590   2.524   3.903 -1.3822 -0.3913 -2.6685
  161OSM   H14T18090   0.470   2.650   3.893  0.9820 -1.3454 -3.7246
  161OSM   C15S18091   0.612   2.676   4.062  0.6172 -0.0305 -1.0052
  161OSM   H15S18092   0.634   2.785   4.063 -0.1962  0.1749 -2.4464
  161OSM   H15T18093   0.706   2.634   4.103 -1.3591 -2.4720  1.3731
  161OSM   C16S18094   0.510   2.629   4.161 -0.1239 -0.0131  0.2502
  161OSM   H16S18095   0.409   2.616   4.116 -0.4488 -1.0282  1.2219
  161OSM   H16T18096   0.499   2.701   4.244 -0.3656 -2.4334  2.4488
  161OSM   C17S18097   0.540   2.495   4.218  0.0642 -0.2691  0.7520
  161OSM   H17S18098   0.631   2.495   4.282  0.2871 -1.8427  0.4744
  161OSM   H17T18099   0.554   2.416   4.142  2.2893  1.0340 -0.2932
  161OSM   C18S18100   0.420   2.452   4.307  0.2595  0.5103  0.3780
  161OSM   H18S18101   0.330   2.440   4.244  0.2644 -0.4491  0.5275
  161OSM   H18T18102   0.405   2.524   4.391 -0.8313  2.5023 -1.4268
  161OSM   H18U18103   0.448   2.355   4.354 -0.0059  0.3236  0.1587
  161OSM    C1F18104   1.105   2.915   2.910 -0.3826  0.3270 -0.5298
  161OSM     OF18105   1.104   2.983   2.811  0.1335 -0.0469  0.1604
  161OSM    C2F18106   1.099   2.972   3.043 -0.0451 -0.4058  0.1628
  161OSM    H2F18107   1.003   2.950   3.094  0.2147 -2.7734 -0.2769
  161OSM    H2G18108   1.115   3.081   3.032  0.0678 -0.3528  0.8161
  161OSM    C3F18109   1.215   2.934   3.133 -0.0223 -0.6377  0.2816
  161OSM    H3F18110   1.304   2.978   3.084 -2.1436  0.3572 -3.0735
  161OSM    H3G18111   1.233   2.826   3.152  0.4260 -0.2909  1.9591
  161OSM    C4F18112   1.195   2.999   3.271  0.3172  0.1758  0.2456
  161OSM    H4F18113   1.138   3.093   3.257 -0.6946 -0.5723 -0.9396
  161OSM    H4G18114   1.295   3.032   3.306  0.1956  0.4115  0.3721
  161OSM    C5F18115   1.121   2.910   3.373  0.0297 -0.4460  0.2206
  161OSM    H5F18116   1.175   2.813   3.377 -0.5332 -0.7241  1.8391
  161OSM    H5G18117   1.021   2.895   3.328 -0.2175 -1.4914  1.0732
  161OSM    C6F18118   1.110   2.982   3.506  0.3874  0.3377  0.1441
  161OSM    H6F18119   1.088   3.091   3.498 -0.8755  0.0900 -0.0678
  161OSM    H6G18120   1.205   2.970   3.562  0.2701 -1.7072 -0.0101
  161OSM    C7F18121   0.995   2.913   3.587 -0.2474  0.1431  0.2806
  161OSM    H7F18122   1.024   2.806   3.596  0.8167  0.5578  2.3001
  161OSM    H7G18123   0.902   2.903   3.528  0.7764 -3.0082 -1.0059
  161OSM    C8F18124   0.977   2.978   3.732  0.5923 -0.5248  1.1551
  161OSM    H8F18125   0.877   2.953   3.772  0.7273 -0.1323  1.7444
  161OSM    H8G18126   0.972   3.089   3.727  3.0503 -0.3727  0.9969
  161OSM    C9F18127   1.092   2.927   3.820  0.0237  0.2186 -0.1161
  161OSM    H9F18128   1.181   2.889   3.769  0.0757  0.5008 -0.2364
  161OSM   C10F18129   1.086   2.930   3.958 -0.6618  0.5074 -0.3739
  161OSM   H10F18130   1.178   2.904   4.012  0.5785  0.9326 -2.1878
  161OSM   C11F18131   0.980   2.975   4.052 -0.2527  0.1969  0.5123
  161OSM   H11F18132   0.878   2.971   4.009  0.2330 -1.6702 -0.5827
  161OSM   H11G18133   1.004   3.079   4.084  3.5415 -0.0029 -1.0972
  161OSM   C12F18134   0.976   2.885   4.179 -0.1570  0.0751  0.0522
  161OSM   H12F18135   1.073   2.872   4.231 -1.3381  0.3803  2.4688
  161OSM   H12G18136   0.957   2.786   4.132  1.9921 -0.5457  0.3663
  161OSM   C13F18137   0.861   2.914   4.280  0.1492  0.6718  0.1474
  161OSM   H13F18138   0.852   2.826   4.348  1.4237  0.9259  0.6756
  161OSM   H13G18139   0.772   2.931   4.216  0.3686 -0.9376 -0.6451
  161OSM   C14F18140   0.876   3.044   4.360 -0.3056 -0.3882 -0.6281
  161OSM   H14F18141   0.792   3.057   4.431  1.7970 -3.4563  2.7661
  161OSM   H14G18142   0.862   3.121   4.282 -2.9316  2.7447  2.5810
  161OSM   C15F18143   1.014   3.052   4.437 -0.2128 -0.4476  0.3149
  161OSM   H15F18144   1.013   3.152   4.486 -2.3878  0.4101 -1.2872
  161OSM   H15G18145   1.100   3.052   4.367  0.4103  0.9745  1.0398
  161OSM   C16F18146   1.030   2.937   4.532 -0.1454 -0.1010 -0.2368
  161OSM   H16F18147   1.133   2.935   4.572  0.6368  2.0406 -1.9352
  161OSM   H16G18148   1.011   2.836   4.488 -1.5785  0.1270 -0.2049
  161OSM   C17F18149   0.934   2.951   4.656  1.3275 -0.1001 -0.1395
  161OSM   H17F18150   0.938   2.856   4.714 -0.1509 -0.2105 -0.1758
  161OSM   H17G18151   0.828   2.968   4.627  1.0502 -0.4674  0.6159
  161OSM   C18F18152   0.965   3.079   4.743  0.2958  0.2642 -0.6308
  161OSM   H18F18153   0.969   3.177   4.690 -1.4582  0.2100 -0.9248
  161OSM   H18G18154   1.060   3.072   4.800 -0.1456  2.8434  0.5821
  161OSM   H18H18155   0.890   3.084   4.825  1.7254 -0.6904  0.7940
  162OSM      N18156   1.080   3.127   2.395 -0.7821  0.0655 -0.0843
  162OSM    C1518157   0.995   3.245   2.449  0.1834 -0.0176  0.2398
  162OSM   H15A18158   0.957   3.296   2.362  1.5635 -0.2700 -0.5437
  162OSM   H15B18159   1.061   3.317   2.496 -0.7557  0.7889  0.3543
  162OSM   H15C18160   0.927   3.208   2.524  1.5319 -2.6871  0.2613
  162OSM    C1418161   0.987   3.020   2.345 -0.5059 -0.0679  0.2995
  162OSM   H14A18162   1.046   2.958   2.278  0.7147  2.0047 -0.6411
  162OSM   H14B18163   0.905   3.065   2.291  0.0200  0.6873  0.1220
  162OSM   H14C18164   0.950   2.964   2.430 -3.5378  3.3304  1.4747
  162OSM    C1318165   1.154   3.169   2.275  0.1243 -0.0847  0.0473
  162OSM   H13A18166   1.219   3.089   2.245 -0.8359 -1.3611  1.2222
  162OSM   H13B18167   1.219   3.248   2.309  1.2541 -0.3393 -1.4654
  162OSM   H13C18168   1.088   3.212   2.201  1.2114 -0.5579 -1.2332
  162OSM    C1218169   1.181   3.068   2.500 -0.2295  0.5895 -0.4605
  162OSM   H12A18170   1.206   2.964   2.489 -1.5233 -0.4246  3.8378
  162OSM   H12B18171   1.137   3.057   2.599  2.5270 -1.4621  0.6506
  162OSM    C1118172   1.310   3.151   2.538 -0.1243 -0.1338  0.4909
  162OSM   H11A18173   1.389   3.139   2.461 -0.8148  2.9426 -0.8872
  162OSM   H11B18174   1.343   3.114   2.637  2.2331  1.7858  0.5246
  162OSM      P18175   1.337   3.408   2.472  0.1299  0.0733 -0.6734
  162OSM    O1318176   1.383   3.363   2.339  0.5306 -0.7404  0.2371
  162OSM    O1418177   1.239   3.518   2.483 -0.5760 -0.0855  0.0897
  162OSM    O1118178   1.462   3.435   2.561  0.0553 -0.5851 -0.0167
  162OSM    O1218179   1.267   3.289   2.546  0.1216 -0.0576 -0.9375
  162OSM    C1S18180   1.471   3.457   2.704 -0.3675  0.7367  0.1956
  162OSM    H1S18181   1.374   3.482   2.752 -1.1781  1.0564 -1.5359
  162OSM    H1T18182   1.537   3.544   2.724  1.5734 -0.7880  0.7176
  162OSM     NF18183   1.538   3.380   2.925 -0.0584 -0.1425  0.3374
  162OSM    HNF18184   1.619   3.406   2.978 -0.5449  0.6007  0.7308
  162OSM    C2S18185   1.546   3.346   2.785 -0.2274  0.2923 -0.6909
  162OSM    H2S18186   1.495   3.249   2.770 -2.5931  1.4511 -0.5523
  162OSM    C3S18187   1.688   3.328   2.730 -0.9331 -0.0823 -0.0608
  162OSM    H3S18188   1.746   3.422   2.737  1.9034 -1.8122  2.5312
  162OSM     O318189   1.683   3.304   2.589 -0.8368 -0.4470  0.4442
  162OSM    HO318190   1.591   3.317   2.568 -0.5759 -0.0902 -0.4948
  162OSM    C4S18191   1.773   3.219   2.801  0.0837  0.2332 -1.0998
  162OSM    H4S18192   1.851   3.255   2.869  0.6038  1.5029 -2.3219
  162OSM    C5S18193   1.765   3.091   2.777 -0.4437  0.9383 -0.0794
  162OSM    H5S18194   1.690   3.058   2.704 -0.3834  1.1960 -0.2605
  162OSM    C6S18195   1.857   2.988   2.838  0.0028  0.5461 -0.5718
  162OSM    H6S18196   1.950   3.039   2.871  0.7232  0.6405 -2.6285
  162OSM    H6T18197   1.890   2.912   2.764 -0.2536 -1.6009  1.4017
  162OSM    C7S18198   1.786   2.926   2.960 -0.5969 -0.0423 -0.4148
  162OSM    H7S18199   1.852   2.845   2.997  0.0275  0.8416  0.4429
  162OSM    H7T18200   1.691   2.875   2.932  0.7312 -2.2087 -1.2627
  162OSM    C8S18201   1.752   3.014   3.079 -0.6693  0.4065  0.6727
  162OSM    H8S18202   1.674   3.084   3.041  0.4720  0.0581 -2.7156
  162OSM    H8T18203   1.846   3.070   3.099 -0.6433  0.1263  1.3535
  162OSM    C9S18204   1.726   2.943   3.208  0.1356  0.1918 -0.3058
  162OSM    H9S18205   1.792   2.994   3.283  1.7661 -0.3492 -1.3151
  162OSM    H9T18206   1.750   2.835   3.202 -0.4035 -0.1720  2.4681
  162OSM   C10S18207   1.576   2.938   3.237  0.5586 -0.4211 -0.0438
  162OSM   H10S18208   1.514   2.888   3.159 -0.9132 -0.6854  1.2440
  162OSM   H10T18209   1.531   3.039   3.245  0.4145 -0.1241 -3.3064
  162OSM   C11S18210   1.550   2.862   3.368  0.1769 -0.5628 -0.0556
  162OSM   H11S18211   1.576   2.754   3.373  1.6779 -0.1817  1.0830
  162OSM   H11T18212   1.444   2.865   3.400  0.7158  1.1617  1.7205
  162OSM   C12S18213   1.622   2.928   3.490 -0.6937 -0.2025  0.1980
  162OSM   H12S18214   1.619   3.040   3.489 -2.5078 -0.2067  0.5670
  162OSM   H12T18215   1.726   2.891   3.483  0.5658  3.0810 -0.6356
  162OSM   C13S18216   1.548   2.884   3.614 -0.4204 -0.3134 -0.5513
  162OSM   H13S18217   1.531   2.774   3.613 -1.0478 -0.2672  1.1310
  162OSM   H13T18218   1.453   2.942   3.616 -0.2716 -0.0915  0.5266
  162OSM   C14S18219   1.618   2.918   3.753 -0.4159  0.7936 -0.4781
  162OSM   H14S18220   1.644   3.026   3.752 -0.5477  0.8265 -1.2578
  162OSM   H14T18221   1.710   2.857   3.762 -0.8414  0.2698  0.4527
  162OSM   C15S18222   1.526   2.879   3.868  0.7347 -0.8153 -0.6348
  162OSM   H15S18223   1.479   2.779   3.853 -2.2302  0.1576  1.3062
  162OSM   H15T18224   1.442   2.952   3.868  2.3051  1.0953  0.5659
  162OSM   C16S18225   1.590   2.904   4.012  0.2123  0.8305  0.3217
  162OSM   H16S18226   1.643   3.001   4.016  0.6409  0.5736  1.2056
  162OSM   H16T18227   1.663   2.821   4.026 -0.5526 -0.3620 -2.1478
  162OSM   C17S18228   1.484   2.900   4.132 -0.5304 -0.9792 -0.5017
  162OSM   H17S18229   1.438   2.800   4.121  0.2146 -1.4595  0.6543
  162OSM   H17T18230   1.408   2.980   4.114 -1.0509 -0.6765  2.5536
  162OSM   C18S18231   1.545   2.926   4.267  0.5306  0.3525  0.3753
  162OSM   H18S18232   1.573   2.832   4.320  0.4261 -0.3314 -0.7453
  162OSM   H18T18233   1.484   2.989   4.334 -0.2711 -2.0929  2.1074
  162OSM   H18U18234   1.641   2.981   4.254  1.6401 -1.1140  1.9170
  162OSM    C1F18235   1.422   3.373   2.995 -0.8710 -0.2707 -0.4218
  162OSM     OF18236   1.314   3.368   2.938  0.4839 -0.7430 -0.1576
  162OSM    C2F18237   1.439   3.353   3.141  0.4010 -0.3230 -0.0197
  162OSM    H2F18238   1.545   3.370   3.170  0.4101 -1.0723  0.4019
  162OSM    H2G18239   1.421   3.244   3.154  0.6842 -0.9156 -3.5943
  162OSM    C3F18240   1.335   3.432   3.214 -0.2231  0.5194  0.0709
  162OSM    H3F18241   1.243   3.431   3.153 -0.6643  1.4556  0.6973
  162OSM    H3G18242   1.365   3.539   3.216  0.9474  0.2263 -0.8114
  162OSM    C4F18243   1.311   3.373   3.356  0.8517  0.1080  0.6060
  162OSM    H4F18244   1.279   3.266   3.353 -0.1685  0.4024 -2.7351
  162OSM    H4G18245   1.217   3.414   3.399  0.7059 -0.7505  1.1377
  162OSM    C5F18246   1.444   3.380   3.448  0.9994  0.3037 -0.0855
  162OSM    H5F18247   1.456   3.488   3.471 -1.5066  0.4282  0.9229
  162OSM    H5G18248   1.537   3.336   3.406  1.9901 -0.6392  2.8309
  162OSM    C6F18249   1.425   3.308   3.580 -0.3326  0.7247  0.0504
  162OSM    H6F18250   1.512   3.319   3.649 -1.5126  0.3853  1.6646
  162OSM    H6G18251   1.415   3.200   3.556 -0.4011  0.8584 -0.5290
  162OSM    C7F18252   1.304   3.345   3.656  0.4422 -0.0910  0.4671
  162OSM    H7F18253   1.210   3.352   3.598  0.0585 -0.4240  1.0362
  162OSM    H7G18254   1.327   3.445   3.700  0.1970  1.8671 -3.3967
  162OSM    C8F18255   1.271   3.248   3.769 -0.2366 -0.1397  0.0491
  162OSM    H8F18256   1.369   3.221   3.814  0.3444 -0.7881 -1.5248
  162OSM    H8G18257   1.208   3.168   3.725 -1.1208 -0.4336  1.7387
  162OSM    C9F18258   1.179   3.293   3.877 -0.4024 -0.1076 -0.3833
  162OSM    H9F18259   1.072   3.300   3.852 -0.2802 -1.9352 -1.6247
  162OSM   C10F18260   1.218   3.354   3.990  0.6584  0.6349 -0.1622
  162OSM   H10F18261   1.141   3.381   4.064 -1.2795 -2.1998 -0.9657
  162OSM   C11F18262   1.356   3.382   4.030 -0.7282 -0.1797 -0.8274
  162OSM   H11F18263   1.390   3.482   3.996  3.1580 -0.7341  0.9625
  162OSM   H11G18264   1.430   3.310   3.990  0.8490  1.1493 -0.3817
  162OSM   C12F18265   1.379   3.400   4.185 -0.4347  0.2905  0.5222
  162OSM   H12F18266   1.326   3.492   4.217 -1.1245  0.7038 -1.6832
  162OSM   H12G18267   1.488   3.398   4.210  0.0153 -1.1876 -1.3968
  162OSM   C13F18268   1.307   3.289   4.265 -0.8165  0.3504 -0.1960
  162OSM   H13F18269   1.310   3.196   4.204  1.2951  0.5556 -0.4717
  162OSM   H13G18270   1.202   3.313   4.291 -0.8087  0.3913 -0.2016
  162OSM   C14F18271   1.366   3.245   4.399  0.4755 -0.3982 -0.6822
  162OSM   H14F18272   1.476   3.258   4.392  0.3999 -0.3235 -1.8620
  162OSM   H14G18273   1.334   3.140   4.418  1.6725 -0.8540 -1.0854
  162OSM   C15F18274   1.324   3.345   4.516  0.0385 -0.0506 -0.4825
  162OSM   H15F18275   1.214   3.361   4.512  0.1905  0.7950 -2.1902
  162OSM   H15G18276   1.379   3.437   4.486  0.1514  0.0221 -0.0598
  162OSM   C16F18277   1.373   3.292   4.644 -0.7491 -0.0978 -0.4027
  162OSM   H16F18278   1.481   3.269   4.632 -0.7500 -1.1828  1.3754
  162OSM   H16G18279   1.323   3.200   4.681 -0.1780 -1.3530 -2.5261
  162OSM   C17F18280   1.356   3.396   4.756 -0.4555  0.8040  0.3340
  162OSM   H17F18281   1.251   3.429   4.746 -0.2590  1.3176 -0.0165
  162OSM   H17G18282   1.419   3.483   4.730  0.1603  0.3993  0.4501
  162OSM   C18F18283   1.393   3.361   4.902 -0.1659 -0.1055  0.6810
  162OSM   H18F18284   1.324   3.280   4.932  0.4287 -0.5659  0.8294
  162OSM   H18G18285   1.387   3.439   4.981 -2.9774  0.6075 -0.1264
  162OSM   H18H18286   1.493   3.312   4.898 -0.0983  0.0821 -0.9443
  163OSM      N18287   0.075   4.137   2.372  0.1021  0.2983 -0.0362
  163OSM    C1518288   0.210   4.157   2.313  0.4670  0.5855  0.3860
  163OSM   H15A18289   0.282   4.113   2.381 -0.3913 -0.1683  0.8184
  163OSM   H15B18290   0.234   4.260   2.291 -1.6923  1.0274 -0.0799
  163OSM   H15C18291   0.217   4.100   2.222 -0.8025 -3.7528  2.7458
  163OSM    C1418292  -0.014   4.249   2.331 -0.3180  0.5581 -0.8854
  163OSM   H14A18293   0.029   4.347   2.344 -1.3978  0.8839  0.4235
  163OSM   H14B18294  -0.104   4.238   2.390  1.0535  0.3577  1.2750
  163OSM   H14C18295  -0.037   4.238   2.226  0.1290 -1.5602 -0.8045
  163OSM    C1318296   0.015   4.007   2.326  0.6260 -0.1426 -0.0308
  163OSM   H13A18297  -0.090   3.981   2.335  0.9401 -1.1669  0.9288
  163OSM   H13B18298   0.070   3.920   2.360  0.4937 -0.2593 -0.1125
  163OSM   H13C18299   0.026   4.009   2.219  1.4304 -2.2355 -0.0335
  163OSM    C1218300   0.084   4.148   2.525 -0.3743 -0.1150  0.0464
  163OSM   H12A18301  -0.017   4.172   2.554 -0.0633  3.1911 -1.1836
  163OSM   H12B18302   0.130   4.245   2.540  0.3381 -0.5527  0.7309
  163OSM    C1118303   0.163   4.034   2.604  0.4287 -0.0351 -0.3951
  163OSM   H11A18304   0.089   3.951   2.605  0.0518  0.2666  1.3444
  163OSM   H11B18305   0.180   4.077   2.705  0.1035  1.6992 -1.0412
  163OSM      P18306   0.331   3.855   2.535  0.2261  0.2465 -0.3276
  163OSM    O1318307   0.226   3.776   2.462  0.0905 -0.0314 -0.3333
  163OSM    O1418308   0.466   3.845   2.475  0.1363 -0.3269 -0.4229
  163OSM    O1118309   0.346   3.813   2.684  0.0274 -0.8093 -0.1532
  163OSM    O1218310   0.288   4.005   2.541  0.8056  0.5154  0.6477
  163OSM    C1S18311   0.429   3.886   2.780  0.3167 -0.0156 -0.2673
  163OSM    H1S18312   0.450   3.991   2.749  2.0495  0.6512  2.7620
  163OSM    H1T18313   0.524   3.829   2.789  1.8975  2.5552  0.3336
  163OSM     NF18314   0.428   3.976   3.010  0.5262 -0.4213  0.0195
  163OSM    HNF18315   0.472   3.934   3.089  2.4130  0.8803 -0.2627
  163OSM    C2S18316   0.354   3.890   2.914 -0.2542 -0.3476  0.0829
  163OSM    H2S18317   0.255   3.938   2.896 -0.0089  0.0343 -0.2827
  163OSM    C3S18318   0.324   3.752   2.967 -0.1971  0.3745 -0.2774
  163OSM    H3S18319   0.428   3.712   2.974  0.5850  2.5061  2.1912
  163OSM     O318320   0.276   3.656   2.873 -0.7054  0.1711  0.2118
  163OSM    HO318321   0.280   3.703   2.790  2.1836 -2.3029 -1.2178
  163OSM    C4S18322   0.254   3.751   3.097  0.6360  0.7865  0.4338
  163OSM    H4S18323   0.155   3.797   3.084  0.9665  1.6734  0.9882
  163OSM    C5S18324   0.289   3.672   3.201  0.1991  0.1403 -0.3332
  163OSM    H5S18325   0.380   3.611   3.199 -0.1746 -0.4528 -2.5002
  163OSM    C6S18326   0.204   3.665   3.327  0.0968  0.1172  0.3619
  163OSM    H6S18327   0.134   3.581   3.309  1.1862 -0.4985 -1.2259
  163OSM    H6T18328   0.135   3.752   3.336 -0.3662 -0.2011 -0.0434
  163OSM    C7S18329   0.278   3.638   3.454 -0.4037  0.6878  0.0900
  163OSM    H7S18330   0.329   3.736   3.461 -1.2898  1.3209 -1.6356
  163OSM    H7T18331   0.352   3.555   3.453  0.3813  1.3321 -2.7475
  163OSM    C8S18332   0.181   3.632   3.579 -0.3241 -0.4974 -0.8328
  163OSM    H8S18333   0.122   3.538   3.573  0.4598 -1.0699  0.2305
  163OSM    H8T18334   0.112   3.718   3.563 -0.4575 -0.3613  0.4333
  163OSM    C9S18335   0.248   3.639   3.716 -0.2141 -0.0687  0.3401
  163OSM    H9S18336   0.330   3.715   3.719  0.2922 -0.3790 -2.5190
  163OSM    H9T18337   0.307   3.546   3.730  1.0936  0.7209  0.3062
  163OSM   C10S18338   0.155   3.663   3.838 -0.1696  0.0693  0.1445
  163OSM   H10S18339   0.084   3.578   3.845  0.1559 -0.2536 -0.4446
  163OSM   H10T18340   0.082   3.747   3.826 -0.6956 -0.1071  1.8511
  163OSM   C11S18341   0.241   3.692   3.961  0.4704 -0.3050 -0.0891
  163OSM   H11S18342   0.294   3.788   3.945 -0.5983  0.4630  0.8283
  163OSM   H11T18343   0.313   3.609   3.980  1.6175  0.6044 -0.3973
  163OSM   C12S18344   0.167   3.698   4.095 -1.1884 -0.4816 -0.8257
  163OSM   H12S18345   0.089   3.619   4.099 -0.6149 -1.0171  0.4258
  163OSM   H12T18346   0.115   3.794   4.116  1.4289  1.0987 -1.1538
  163OSM   C13S18347   0.262   3.665   4.211 -0.2040  0.6925  0.3398
  163OSM   H13S18348   0.354   3.724   4.197  0.7765 -0.5238  1.4043
  163OSM   H13T18349   0.295   3.559   4.209 -0.3254  0.5632  2.4622
  163OSM   C14S18350   0.191   3.683   4.339 -0.1289 -0.8137  0.2028
  163OSM   H14S18351   0.088   3.641   4.336 -0.8417  0.8934 -0.6697
  163OSM   H14T18352   0.172   3.792   4.345 -1.0095 -0.6594 -3.3490
  163OSM   C15S18353   0.270   3.631   4.454 -0.3896  0.3334 -0.2755
  163OSM   H15S18354   0.375   3.667   4.456  0.9146 -3.2101  0.8417
  163OSM   H15T18355   0.290   3.523   4.442  1.4456  0.6618 -0.4364
  163OSM   C16S18356   0.187   3.662   4.583 -0.7592 -0.2077  0.7738
  163OSM   H16S18357   0.222   3.599   4.668  0.2523  1.3686  1.5646
  163OSM   H16T18358   0.078   3.643   4.569 -0.6023  0.5757 -2.0764
  163OSM   C17S18359   0.216   3.803   4.630  0.0567 -0.1199  0.4368
  163OSM   H17S18360   0.164   3.883   4.572 -0.2291  0.9735  2.1438
  163OSM   H17T18361   0.324   3.830   4.629 -0.2904  1.3619 -1.2502
  163OSM   C18S18362   0.173   3.825   4.780  0.1440  0.6029 -0.1961
  163OSM   H18S18363   0.068   3.792   4.794 -0.1331  1.5321 -0.0131
  163OSM   H18T18364   0.186   3.928   4.819  0.0655  0.8608 -0.8392
  163OSM   H18U18365   0.229   3.750   4.839 -1.3965  2.2312  3.6745
  163OSM    C1F18366   0.431   4.111   2.983 -0.4960  0.1255 -0.9157
  163OSM     OF18367   0.376   4.162   2.887  0.1019  0.0567 -0.0144
  163OSM    C2F18368   0.505   4.196   3.083  0.7915  0.7530  0.4415
  163OSM    H2F18369   0.537   4.288   3.031  1.3547  0.9978  1.1954
  163OSM    H2G18370   0.592   4.144   3.130  1.0586  1.2697  0.5277
  163OSM    C3F18371   0.412   4.234   3.197 -0.2305  0.1665  0.0655
  163OSM    H3F18372   0.382   4.150   3.264 -0.6257  1.6138  1.7979
  163OSM    H3G18373   0.315   4.271   3.157 -1.5495 -0.7924  2.1683
  163OSM    C4F18374   0.474   4.342   3.290  0.0660 -0.1224  0.3944
  163OSM    H4F18375   0.483   4.432   3.226 -1.4885  1.2156  1.9472
  163OSM    H4G18376   0.570   4.300   3.327  1.3672  0.8874 -1.6824
  163OSM    C5F18377   0.379   4.376   3.407  0.0205  0.0332  0.0498
  163OSM    H5F18378   0.360   4.290   3.474  1.6412  1.4680  2.4722
  163OSM    H5G18379   0.276   4.400   3.372  0.1382 -0.7860 -0.9119
  163OSM    C6F18380   0.427   4.487   3.497  0.3310 -0.1592  0.2708
  163OSM    H6F18381   0.423   4.586   3.446 -3.3608  0.2232  0.9988
  163OSM    H6G18382   0.528   4.458   3.534  1.0225 -0.6691 -1.8670
  163OSM    C7F18383   0.327   4.495   3.615  0.2049  0.0253  0.5511
  163OSM    H7F18384   0.333   4.398   3.669  3.0088 -0.5757 -0.6948
  163OSM    H7G18385   0.222   4.495   3.577  0.3799  1.5556  0.0115
  163OSM    C8F18386   0.352   4.608   3.715 -0.2922 -0.5098 -0.5893
  163OSM    H8F18387   0.257   4.642   3.762  1.1272  0.6993  1.5962
  163OSM    H8G18388   0.393   4.685   3.646  0.7888  0.6209  1.2387
  163OSM    C9F18389   0.453   4.589   3.822  0.2752  0.3622  0.1235
  163OSM    H9F18390   0.552   4.554   3.788  0.5090 -1.0018  2.0059
  163OSM   C10F18391   0.435   4.610   3.950  0.0196  0.0621  0.9943
  163OSM   H10F18392   0.519   4.582   4.015  1.2160 -1.2256 -1.0087
  163OSM   C11F18393   0.310   4.645   4.020 -0.0640 -0.0742 -0.2415
  163OSM   H11F18394   0.223   4.613   3.959  2.0732 -0.2925 -3.4227
  163OSM   H11G18395   0.308   4.756   4.018  0.4536  0.0043  1.8221
  163OSM   C12F18396   0.287   4.598   4.165  0.5294  0.0538 -0.8952
  163OSM   H12F18397   0.289   4.487   4.170 -2.8306 -0.0511  1.0400
  163OSM   H12G18398   0.182   4.629   4.184  0.9138 -0.1553  1.9217
  163OSM   C13F18399   0.389   4.662   4.270 -0.8647  0.3069 -0.0311
  163OSM   H13F18400   0.399   4.771   4.248  0.2019  0.3938  0.7678
  163OSM   H13G18401   0.492   4.625   4.250 -1.3297 -1.6121  0.9239
  163OSM   C14F18402   0.349   4.637   4.413 -0.5723  0.1336 -0.6445
  163OSM   H14F18403   0.359   4.527   4.429 -0.6902  0.1065 -0.7594
  163OSM   H14G18404   0.242   4.664   4.424  0.0097  2.6703 -0.5717
  163OSM   C15F18405   0.437   4.712   4.518 -0.3911  0.5931  0.0992
  163OSM   H15F18406   0.428   4.817   4.481 -0.0721  0.7173  0.3661
  163OSM   H15G18407   0.537   4.666   4.510 -0.3395  0.6915  0.1687
  163OSM   C16F18408   0.384   4.702   4.660  0.3166  0.3914 -0.5687
  163OSM   H16F18409   0.391   4.605   4.713  0.0093  0.2038 -0.8634
  163OSM   H16G18410   0.276   4.730   4.659  0.3971  0.7666  0.4752
  163OSM   C17F18411   0.462   4.791   4.757  0.3254 -0.7356 -0.0973
  163OSM   H17F18412   0.433   4.896   4.737  2.2003 -0.3914 -1.1549
  163OSM   H17G18413   0.569   4.798   4.727 -0.1058 -1.9004 -2.1323
  163OSM   C18F18414   0.444   4.763   4.907 -0.5947  0.5979 -0.7244
  163OSM   H18F18415   0.483   4.847   4.969  1.2900 -0.4992 -0.3606
  163OSM   H18G18416   0.494   4.668   4.933 -1.3753  0.9274  2.3949
  163OSM   H18H18417   0.338   4.741   4.933  0.7309 -3.8735  1.9536
  164OSM      N18418   2.236   4.232   2.470  0.5008 -0.2452  0.5700
  164OSM    C1518419   2.113   4.273   2.540  0.2295 -0.4361 -0.0236
  164OSM   H15A18420   2.056   4.342   2.479  1.3994  1.8909  1.3451
  164OSM   H15B18421   2.148   4.327   2.627  0.5737  1.5232 -1.3093
  164OSM   H15C18422   2.058   4.188   2.577  1.4339 -1.7648 -1.1410
  164OSM    C1418423   2.320   4.354   2.414  0.1789  0.1257 -0.1718
  164OSM   H14A18424   2.331   4.430   2.490 -0.0278  0.2816 -0.2971
  164OSM   H14B18425   2.278   4.403   2.327 -0.6129  1.6616  1.0389
  164OSM   H14C18426   2.418   4.323   2.380  0.2435  0.7445 -0.5650
  164OSM    C1318427   2.321   4.159   2.561 -1.1844  0.2246 -0.3368
  164OSM   H13A18428   2.409   4.141   2.503 -0.2791 -1.5243  1.4444
  164OSM   H13B18429   2.276   4.066   2.593  0.0683 -0.0024  0.8525
  164OSM   H13C18430   2.349   4.222   2.645 -0.2124  0.0761 -0.5378
  164OSM    C1218431   2.197   4.138   2.359  0.6282  0.2120 -0.4070
  164OSM   H12A18432   2.284   4.116   2.299 -0.1188 -0.0129 -1.4372
  164OSM   H12B18433   2.130   4.189   2.292 -1.1268  0.2112  1.2778
  164OSM    C1118434   2.113   4.008   2.392  0.5280  0.5007  0.5663
  164OSM   H11A18435   2.195   3.958   2.449 -0.5603 -0.7781  1.0586
  164OSM   H11B18436   2.106   3.936   2.308 -0.6030 -0.0832  1.1427
  164OSM      P18437   1.933   3.899   2.534 -0.9561 -0.0614 -0.3156
  164OSM    O1318438   1.808   3.933   2.603 -0.1048  0.1247 -0.1507
  164OSM    O1418439   1.924   3.807   2.425  0.6888  0.1403  0.3167
  164OSM    O1118440   2.046   3.868   2.651 -0.3751  0.6166  0.5327
  164OSM    O1218441   1.991   4.026   2.465  1.2429  0.3412  0.2315
  164OSM    C1S18442   2.080   3.957   2.752  0.0154 -0.0428  0.0083
  164OSM    H1S18443   2.087   4.058   2.707  2.7754  0.1145  0.6182
  164OSM    H1T18444   2.185   3.934   2.781  0.2557  2.4823  1.4617
  164OSM     NF18445   2.055   4.073   2.984  0.0945 -0.2075  0.7614
  164OSM    HNF18446   2.097   4.046   3.069 -2.2910 -1.0986  1.7474
  164OSM    C2S18447   2.007   3.963   2.894  0.1289  0.0367 -0.5977
  164OSM    H2S18448   1.900   3.990   2.879  0.5671  1.3879 -1.4359
  164OSM    C3S18449   1.985   3.825   2.965  0.8636  0.2638  0.0497
  164OSM    H3S18450   2.076   3.788   3.017 -0.1941 -0.5676  1.3813
  164OSM     O318451   1.952   3.711   2.876 -0.2354 -0.6326  0.4340
  164OSM    HO318452   1.971   3.748   2.789 -0.3562 -0.0557  0.6436
  164OSM    C4S18453   1.880   3.831   3.070 -0.5377  0.8957  0.7854
  164OSM    H4S18454   1.928   3.853   3.166 -0.3728  1.3592  0.5980
  164OSM    C5S18455   1.746   3.812   3.070  0.1610 -0.3283 -0.2636
  164OSM    H5S18456   1.696   3.795   2.973 -1.6763  0.2621  0.5360
  164OSM    C6S18457   1.654   3.837   3.187 -0.6680  0.0506 -0.1766
  164OSM    H6S18458   1.573   3.761   3.182  0.0844 -0.9798  1.9348
  164OSM    H6T18459   1.607   3.937   3.187  2.8707  1.8989  1.5246
  164OSM    C7S18460   1.704   3.829   3.331 -0.0342 -0.1871  0.1186
  164OSM    H7S18461   1.780   3.908   3.350  0.0441 -0.4914  1.0748
  164OSM    H7T18462   1.746   3.727   3.342  1.8340  0.3776 -1.3030
  164OSM    C8S18463   1.587   3.855   3.428  0.1252  0.1390 -0.1106
  164OSM    H8S18464   1.503   3.792   3.392  0.5730  1.2465 -3.4744
  164OSM    H8T18465   1.556   3.960   3.409 -1.8034  0.1000  2.2440
  164OSM    C9S18466   1.618   3.853   3.580  0.4815  0.0866 -0.4521
  164OSM    H9S18467   1.713   3.910   3.590  0.1919  0.5741 -0.4523
  164OSM    H9T18468   1.625   3.750   3.621  1.0879  1.2514  2.6365
  164OSM   C10S18469   1.512   3.918   3.668  0.1738 -0.2195  0.0377
  164OSM   H10S18470   1.431   3.844   3.688  0.6739 -0.2144  2.4280
  164OSM   H10T18471   1.463   4.004   3.618 -0.6069  0.0235  1.1845
  164OSM   C11S18472   1.565   3.972   3.799  0.5623 -0.7477  0.0035
  164OSM   H11S18473   1.473   3.999   3.855  1.0486 -0.6813  0.7967
  164OSM   H11T18474   1.619   4.068   3.785 -2.8516  1.5021  0.9630
  164OSM   C12S18475   1.657   3.875   3.880  0.1379  0.0733  0.2477
  164OSM   H12S18476   1.754   3.875   3.825  0.3683 -0.6586  0.6498
  164OSM   H12T18477   1.623   3.770   3.880  0.5315 -0.0582 -0.2901
  164OSM   C13S18478   1.677   3.916   4.022  0.1912  0.7520 -0.3080
  164OSM   H13S18479   1.709   4.022   4.035  3.3997 -0.3197  1.7487
  164OSM   H13T18480   1.768   3.865   4.059 -0.7317 -0.6061  0.1636
  164OSM   C14S18481   1.554   3.896   4.114  0.7738  0.0056 -0.5836
  164OSM   H14S18482   1.528   3.792   4.082  0.2690  0.1088 -0.5173
  164OSM   H14T18483   1.474   3.965   4.080  0.3873 -0.8072 -1.3935
  164OSM   C15S18484   1.572   3.895   4.275 -0.6679 -0.2195  0.6930
  164OSM   H15S18485   1.479   3.936   4.320 -0.0723  2.5017 -0.3538
  164OSM   H15T18486   1.656   3.961   4.305 -2.3562  2.2371  0.3464
  164OSM   C16S18487   1.610   3.750   4.328 -0.2118 -0.6375 -0.0983
  164OSM   H16S18488   1.705   3.732   4.274 -0.5555 -0.1032 -0.9089
  164OSM   H16T18489   1.537   3.675   4.291 -1.4640 -0.0794  1.1335
  164OSM   C17S18490   1.635   3.756   4.476 -0.6406  0.7645  0.1437
  164OSM   H17S18491   1.550   3.808   4.526 -1.5493 -0.6345  0.1129
  164OSM   H17T18492   1.728   3.813   4.495  0.3545 -1.1517  1.3092
  164OSM   C18S18493   1.654   3.613   4.541 -0.1462  0.1810  0.7778
  164OSM   H18S18494   1.675   3.612   4.650  0.9677 -1.3168  0.5780
  164OSM   H18T18495   1.746   3.565   4.501  0.8617  0.5141  2.6201
  164OSM   H18U18496   1.569   3.544   4.521 -0.2280  0.1362  1.2816
  164OSM    C1F18497   2.045   4.204   2.949 -0.7055  0.3552  0.3646
  164OSM     OF18498   1.975   4.232   2.854 -0.2085 -0.2568  0.2054
  164OSM    C2F18499   2.121   4.302   3.038 -0.2186  0.0759  0.0431
  164OSM    H2F18500   2.177   4.374   2.974 -0.5218 -0.2282 -0.5826
  164OSM    H2G18501   2.185   4.242   3.105  0.6201 -0.0820 -0.8699
  164OSM    C3F18502   2.016   4.390   3.112  0.5269 -0.3659  0.6492
  164OSM    H3F18503   1.953   4.327   3.178 -1.4611 -2.7724 -3.2103
  164OSM    H3G18504   1.964   4.445   3.031 -0.1379 -2.4032 -0.3593
  164OSM    C4F18505   2.093   4.500   3.187  0.0300 -0.2555  0.6877
  164OSM    H4F18506   2.168   4.551   3.123  1.3228 -2.1033  0.6314
  164OSM    H4G18507   2.148   4.449   3.270  0.1542  2.3870  2.3606
  164OSM    C5F18508   2.004   4.594   3.267 -0.2867  0.2059  0.2565
  164OSM    H5F18509   1.964   4.526   3.345  0.9932 -0.0324  0.7303
  164OSM    H5G18510   1.931   4.642   3.198  1.7164  0.4568 -1.8061
  164OSM    C6F18511   2.087   4.700   3.333  0.0809  0.1198 -1.2135
  164OSM    H6F18512   2.139   4.756   3.251 -0.1476  1.6634 -0.3454
  164OSM    H6G18513   2.162   4.650   3.398  0.3652  1.5880 -0.3684
  164OSM    C7F18514   2.007   4.801   3.425  0.0025 -0.1546  0.5643
  164OSM    H7F18515   1.925   4.837   3.359  0.0502  0.7783  0.9876
  164OSM    H7G18516   2.076   4.885   3.448  1.4927 -1.2925  0.4005
  164OSM    C8F18517   1.937   4.753   3.549 -0.3244 -0.3047 -0.2299
  164OSM    H8F18518   1.860   4.680   3.516  1.5500 -1.4454 -2.4244
  164OSM    H8G18519   1.876   4.839   3.583  0.3516  0.3382 -0.6048
  164OSM    C9F18520   2.036   4.683   3.636  0.3149  0.3528  0.0970
  164OSM    H9F18521   2.053   4.576   3.617 -1.0256 -0.2135  1.7931
  164OSM   C10F18522   2.080   4.739   3.748 -0.2315 -0.5079 -0.6812
  164OSM   H10F18523   2.151   4.682   3.809 -1.3287 -0.2224  0.9390
  164OSM   C11F18524   2.053   4.878   3.786 -0.3830  0.3536  0.1453
  164OSM   H11F18525   2.034   4.939   3.695  2.1149 -0.7829 -1.2568
  164OSM   H11G18526   2.147   4.919   3.830 -0.8712  0.0640  1.4835
  164OSM   C12F18527   1.947   4.882   3.887  0.0888 -0.5344  0.6609
  164OSM   H12F18528   1.854   4.824   3.866 -2.4500  3.7051 -1.1226
  164OSM   H12G18529   1.918   4.988   3.904 -1.1827 -0.8566  0.6713
  164OSM   C13F18530   2.002   4.833   4.022  0.1144 -0.2301 -0.3270
  164OSM   H13F18531   2.098   4.884   4.041  1.3773 -1.2159 -3.5322
  164OSM   H13G18532   2.027   4.726   4.006 -0.7661 -0.2328 -1.9509
  164OSM   C14F18533   1.900   4.862   4.133 -0.4210 -0.1298 -0.9222
  164OSM   H14F18534   1.803   4.808   4.125 -1.0826  0.5209  1.5672
  164OSM   H14G18535   1.869   4.969   4.127  0.2117  0.0206 -1.6960
  164OSM   C15F18536   1.949   4.812   4.269 -0.0637 -0.5170  0.5795
  164OSM   H15F18537   2.051   4.778   4.245 -0.7658 -1.1941 -1.6481
  164OSM   H15G18538   1.890   4.723   4.300 -0.8294  0.2604  1.4289
  164OSM   C16F18539   1.937   4.914   4.375 -0.6657  0.3166 -0.7994
  164OSM   H16F18540   1.827   4.930   4.381 -1.4295 -4.1192  0.9032
  164OSM   H16G18541   2.000   5.005   4.366 -1.4370  1.0640  0.8611
  164OSM   C17F18542   1.971   4.856   4.515  0.4668 -0.1007 -0.1677
  164OSM   H17F18543   1.917   4.762   4.538  2.9191 -2.0659 -1.8485
  164OSM   H17G18544   1.951   4.939   4.586  0.2935  0.2597 -0.6342
  164OSM   C18F18545   2.124   4.832   4.520  1.2290  0.4561 -0.4456
  164OSM   H18F18546   2.192   4.919   4.527  1.4955  0.2016  0.1561
  164OSM   H18G18547   2.152   4.771   4.431  0.1613 -0.6492 -0.0528
  164OSM   H18H18548   2.142   4.763   4.605 -2.2815 -0.3243 -0.1906
  165SAPS     N18549   0.647   1.055   7.360 -0.7571  0.0071 -0.3685
  165SAPS   HN118550   0.635   0.962   7.407  1.4776  0.4219  1.2250
  165SAPS   HN218551   0.573   1.066   7.288 -1.4923 -1.3878  0.1320
  165SAPS   HN318552   0.739   1.058   7.311 -1.1049 -0.8262 -1.1063
  165SAPS   C1218553   0.642   1.154   7.466  0.3758  0.4609 -0.3079
  165SAPS  H12A18554   0.573   1.236   7.448 -1.5618 -0.8258  0.8415
  165SAPS   C1318555   0.587   1.096   7.603  0.6023  0.2017  0.5794
  165SAPS  O13A18556   0.553   0.971   7.615  0.2001  0.2723  0.2024
  165SAPS  O13B18557   0.591   1.164   7.705 -0.2087 -0.3696  0.0679
  165SAPS   C1118558   0.785   1.215   7.490 -0.0336 -0.3645  0.1954
  165SAPS  H11A18559   0.853   1.129   7.511 -1.4081 -2.0641 -1.8284
  165SAPS  H11B18560   0.775   1.287   7.574 -1.4992  0.1002 -0.3494
  165SAPS     P18561   0.919   1.410   7.369  0.3859  0.0851  0.2728
  165SAPS   O1318562   0.835   1.533   7.367  0.1612 -0.3701  0.2027
  165SAPS   O1418563   1.003   1.393   7.488  0.1013 -0.8286 -0.2628
  165SAPS   O1218564   0.819   1.280   7.368  0.3750  0.1146  0.6079
  165SAPS   O1118565   1.009   1.395   7.242  0.3739 -0.3753 -0.2266
  165SAPS    C118566   0.974   1.313   7.133  0.2108  0.0343 -0.2681
  165SAPS    HA18567   1.068   1.287   7.081  1.1569  2.0771  0.3210
  165SAPS    HB18568   0.943   1.208   7.153  1.6880 -0.4351 -0.3475
  165SAPS    C218569   0.875   1.391   7.045  0.2952  0.4255 -0.5824
  165SAPS    HS18570   0.780   1.411   7.099  1.8826 -0.6882  2.8640
  165SAPS   O2118571   0.851   1.311   6.925  0.4379  0.1964 -0.1931
  165SAPS   C2118572   0.745   1.225   6.932 -0.1415  0.3962  1.0337
  165SAPS   O2218573   0.662   1.230   7.016  0.3405  0.6546  0.0408
  165SAPS   C2218574   0.740   1.128   6.817  0.0759 -0.5793  0.5045
  165SAPS   H2R18575   0.844   1.091   6.807 -1.0572 -3.8052 -0.4686
  165SAPS   H2S18576   0.666   1.049   6.839 -1.6246  0.4927 -1.0485
  165SAPS    C318577   0.927   1.523   6.995 -0.2353 -0.3411 -0.2002
  165SAPS    HX18578   1.025   1.493   6.952 -0.2945 -0.1840 -0.4505
  165SAPS    HY18579   0.963   1.592   7.075  1.1685 -0.8076 -0.4036
  165SAPS   O3118580   0.844   1.591   6.902  0.1391  0.3393  0.3586
  165SAPS   C3118581   0.880   1.590   6.776  0.1487  0.1708 -0.0946
  165SAPS   O3218582   0.990   1.551   6.739  0.1695  0.2056 -0.0249
  165SAPS   C3218583   0.760   1.621   6.687  0.1234 -0.2726 -0.2611
  165SAPS   H2X18584   0.749   1.728   6.712  1.8662 -0.1813  0.2477
  165SAPS   H2Y18585   0.666   1.570   6.716 -0.5046  0.3031 -1.2632
  165SAPS   C2318586   0.706   1.194   6.686  0.4990  0.0215  0.2825
  165SAPS   H3R18587   0.744   1.124   6.609  1.7229  0.3569  0.5587
  165SAPS   H3S18588   0.766   1.288   6.675 -0.2831  0.4643 -0.3300
  165SAPS   C2418589   0.552   1.218   6.668 -0.6224 -0.0816  0.6388
  165SAPS   H4R18590   0.549   1.285   6.579  2.7741 -0.4735  0.0992
  165SAPS   H4S18591   0.513   1.251   6.767 -0.2273 -2.6641  1.7427
  165SAPS   C2518592   0.489   1.084   6.644 -0.3471 -0.2775 -0.1023
  165SAPS   H5R18593   0.488   1.022   6.734  1.5876 -1.5321 -0.8812
  165SAPS   C2618594   0.448   1.029   6.532 -0.7268 -0.5994 -0.0589
  165SAPS   H6R18595   0.421   0.922   6.538 -3.0194 -0.0044  1.5212
  165SAPS   C2718596   0.431   1.091   6.398 -0.4746 -0.7252 -0.4660
  165SAPS   H7R18597   0.377   1.188   6.407  1.9095  0.7564 -1.3687
  165SAPS   H7S18598   0.353   1.033   6.344  0.3309 -0.6403 -1.7675
  165SAPS   C2818599   0.556   1.115   6.311 -0.8108  0.4175 -0.4776
  165SAPS   H8R18600   0.640   1.145   6.375 -1.6098  0.1294  0.7456
  165SAPS   C2918601   0.567   1.102   6.179  0.1317 -0.1952 -0.2585
  165SAPS   H9R18602   0.665   1.120   6.133  0.3393  0.3152  0.3631
  165SAPS  C21018603   0.449   1.066   6.089 -0.3054 -0.1919  0.4133
  165SAPS  H10R18604   0.374   1.008   6.148 -1.5380  1.4150  0.4890
  165SAPS  H10S18605   0.487   0.987   6.021  0.6390  0.6421 -0.0512
  165SAPS  C21118606   0.388   1.180   6.012 -0.5508  0.8897 -0.7462
  165SAPS  H11R18607   0.352   1.264   6.073 -2.1659  0.3875 -0.9608
  165SAPS  C21218608   0.366   1.195   5.878 -0.4593 -0.2876 -0.0003
  165SAPS  H12R18609   0.323   1.292   5.851 -0.3707 -0.0585  0.6722
  165SAPS  C21318610   0.401   1.115   5.754 -0.1137 -0.2427 -0.1779
  165SAPS  H13R18611   0.346   1.163   5.671 -1.7457 -0.4182  0.7679
  165SAPS  H13S18612   0.370   1.009   5.769 -1.4559  0.2989  1.0072
  165SAPS  C21418613   0.549   1.094   5.727 -0.1616 -0.2242 -0.0053
  165SAPS  H14R18614   0.605   1.079   5.821 -0.4841  0.9741  0.4015
  165SAPS  C21518615   0.611   1.094   5.611 -0.3361  0.9514 -0.1326
  165SAPS  H15R18616   0.721   1.087   5.616 -0.3436 -1.1194 -1.5230
  165SAPS  C21618617   0.553   1.108   5.472 -0.1087  0.3752 -0.0538
  165SAPS  H16R18618   0.585   1.212   5.449 -0.7230  0.7059  0.5538
  165SAPS  H16S18619   0.443   1.108   5.484  0.0500 -0.0458  1.6155
  165SAPS  C21718620   0.617   1.014   5.365 -0.4329 -0.7347  0.2633
  165SAPS  H17R18621   0.578   0.912   5.385 -0.4510 -0.6879  0.4719
  165SAPS  H17S18622   0.728   1.024   5.368 -0.4549  0.8676 -1.8570
  165SAPS  C21818623   0.596   1.061   5.221  0.3110  0.7473 -0.2186
  165SAPS  H18R18624   0.659   0.991   5.162 -2.2513  1.2090 -3.8602
  165SAPS  H18S18625   0.627   1.163   5.190 -0.3351  1.2499  0.7272
  165SAPS  C21918626   0.456   1.032   5.169  0.1408  0.4346  0.7235
  165SAPS  H19R18627   0.387   1.118   5.185 -0.9413 -0.3545  0.3432
  165SAPS  H19S18628   0.404   0.948   5.220 -1.1949  0.1960 -0.9614
  165SAPS  C22018629   0.468   0.983   5.024 -0.0942  0.4194 -0.2106
  165SAPS  H20R18630   0.540   0.899   5.023 -0.4565  0.0999  0.3262
  165SAPS  H20S18631   0.492   1.073   4.963 -1.1746 -0.1720 -1.5896
  165SAPS  H20T18632   0.371   0.940   4.991 -0.0169  1.5363 -2.0613
  165SAPS   C3318633   0.798   1.618   6.536  0.4967 -0.0400 -0.1571
  165SAPS   H3X18634   0.894   1.673   6.529  0.4325  0.1816  0.5901
  165SAPS   H3Y18635   0.720   1.669   6.476 -1.0349 -1.8404  0.2082
  165SAPS   C3418636   0.820   1.487   6.465  0.4402  0.4858  0.4603
  165SAPS   H4X18637   0.727   1.428   6.483  0.9871  0.1480  2.4248
  165SAPS   H4Y18638   0.906   1.429   6.505 -0.5415 -0.8575  0.7341
  165SAPS   C3518639   0.848   1.507   6.315 -0.7126  0.3158  0.2614
  165SAPS   H5X18640   0.956   1.533   6.312 -1.2917  2.7959 -0.5445
  165SAPS   H5Y18641   0.780   1.589   6.283  1.9401  1.3486 -3.3201
  165SAPS   C3618642   0.819   1.392   6.219 -0.4592  0.2406 -0.0391
  165SAPS   H6X18643   0.709   1.379   6.221 -0.9250  2.9280 -2.1039
  165SAPS   H6Y18644   0.861   1.295   6.252 -3.4307 -1.8382 -1.8958
  165SAPS   C3718645   0.849   1.432   6.077 -0.0639  0.7224  0.2860
  165SAPS   H7X18646   0.952   1.474   6.074 -0.8820  2.8370  0.5405
  165SAPS   H7Y18647   0.785   1.519   6.055 -1.6288 -0.1138  1.3570
  165SAPS   C3818648   0.826   1.328   5.968 -0.0639 -0.5282  0.9379
  165SAPS   H8X18649   0.718   1.314   5.946  0.1542  0.0665 -0.7088
  165SAPS   H8Y18650   0.867   1.232   6.004 -1.6481 -1.0064  1.5451
  165SAPS   C3918651   0.905   1.383   5.846  0.2050 -0.5306  0.2485
  165SAPS   H9X18652   1.011   1.402   5.873 -0.4881  1.7670  1.6272
  165SAPS   H9Y18653   0.866   1.486   5.832 -1.1737 -1.2615 -1.8413
  165SAPS  C31018654   0.879   1.311   5.716  0.8352 -0.4761 -0.5569
  165SAPS  H10X18655   0.768   1.297   5.713  0.5660  0.7435  1.6669
  165SAPS  H10Y18656   0.904   1.203   5.709  2.2811 -0.1005 -1.6691
  165SAPS  C31118657   0.934   1.377   5.595 -0.0048 -0.5141 -0.4178
  165SAPS  H11X18658   1.038   1.399   5.627 -0.1225 -0.3459 -0.1443
  165SAPS  H11Y18659   0.887   1.475   5.573  2.1677  0.2872 -1.7304
  165SAPS  C31218660   0.932   1.298   5.460  0.2711  0.1050 -0.4648
  165SAPS  H12X18661   0.827   1.261   5.469  0.8013 -1.0997  1.5469
  165SAPS  H12Y18662   0.993   1.206   5.466 -0.5986 -0.5397 -1.2664
  165SAPS  C31318663   0.964   1.373   5.326  0.3810 -0.3897  0.1453
  165SAPS  H13X18664   1.074   1.384   5.317  0.7413 -2.6018  1.2232
  165SAPS  H13Y18665   0.919   1.473   5.306 -0.5147 -0.7758  0.1650
  165SAPS  C31418666   0.935   1.277   5.209 -0.3794 -0.6073  0.8269
  165SAPS  H14X18667   0.832   1.237   5.202  0.1560 -1.9228 -0.0090
  165SAPS  H14Y18668   0.990   1.180   5.216  1.0113 -0.1376 -2.1278
  165SAPS  C31518669   0.982   1.339   5.073 -0.6909 -0.0235 -0.2290
  165SAPS  H15X18670   1.063   1.412   5.092 -0.8749  0.1458 -0.0928
  165SAPS  H15Y18671   0.907   1.402   5.021  0.4483  2.1664  0.6380
  165SAPS  C31618672   1.027   1.234   4.972 -0.1398  0.5275  0.3256
  165SAPS  H16X18673   0.959   1.146   4.974 -0.4872  0.7498 -1.0215
  165SAPS  H16Y18674   1.132   1.199   4.985  0.4029  2.2786  0.9199
  165SAPS  C31718675   1.013   1.285   4.830 -0.2613  0.6594  0.0067
  165SAPS  H17X18676   1.096   1.357   4.816  1.0616 -0.6749  0.6356
  165SAPS  H17Y18677   0.920   1.335   4.799  0.4898  1.9788 -0.1719
  165SAPS  C31818678   1.047   1.174   4.725 -0.4108 -0.2136  0.3917
  165SAPS  H18X18679   1.037   1.213   4.621  2.3942 -1.4968 -0.4461
  165SAPS  H18Y18680   0.977   1.088   4.740  0.2658 -0.7567  0.4721
  165SAPS  H18Z18681   1.147   1.127   4.714 -1.2197 -1.7840 -0.6853
  166SAPS     N18682   6.515   1.673   7.314  0.1456 -0.1010  0.0336
  166SAPS   HN118683   6.612   1.697   7.341  0.9198 -0.7973 -1.9120
  166SAPS   HN218684   6.449   1.725   7.375  0.6590 -1.7793  2.1404
  166SAPS   HN318685   6.498   1.570   7.316 -1.5418  0.1194 -0.8021
  166SAPS   C1218686   6.499   1.730   7.172 -0.2896  0.6241 -0.0152
  166SAPS  H12A18687   6.400   1.716   7.132  0.6437 -0.2379 -2.2097
  166SAPS   C1318688   6.505   1.882   7.164 -0.0878  0.1211 -0.5300
  166SAPS  O13A18689   6.528   1.949   7.268 -0.0202  0.0093  0.0850
  166SAPS  O13B18690   6.467   1.937   7.056 -0.2760 -0.1545 -0.4089
  166SAPS   C1118691   6.607   1.668   7.080  0.2475  0.4763 -0.4624
  166SAPS  H11A18692   6.622   1.704   6.976  0.5316 -3.9345 -2.1641
  166SAPS  H11B18693   6.570   1.563   7.071 -0.5160  0.4172  2.5124
  166SAPS     P18694   6.857   1.737   7.112  0.3228 -0.2845 -0.2604
  166SAPS   O1318695   6.815   1.856   7.035  0.2773 -0.3760 -0.1255
  166SAPS   O1418696   6.937   1.757   7.234 -0.4040  0.9266 -0.1338
  166SAPS   O1218697   6.735   1.651   7.148 -0.0327 -1.0931 -0.1820
  166SAPS   O1118698   6.950   1.646   7.025 -0.5430 -0.4857 -0.2327
  166SAPS    C118699   6.893   1.528   6.962 -0.5309  0.0043 -0.6419
  166SAPS    HA18700   6.952   1.442   6.998 -0.9237  0.7204  1.9284
  166SAPS    HB18701   6.786   1.503   6.982 -0.3735  0.2429  0.5359
  166SAPS    C218702   6.899   1.543   6.802 -0.5614  0.3967 -0.0480
  166SAPS    HS18703   6.873   1.450   6.747 -1.0359  0.7942 -0.5156
  166SAPS   O2118704   7.026   1.599   6.752 -0.0671  0.6646  0.6372
  166SAPS   C2118705   7.126   1.512   6.756  0.1344 -0.0567  0.3593
  166SAPS   O2218706   7.113   1.394   6.784 -0.8031 -0.5846  0.2139
  166SAPS   C2218707   7.253   1.569   6.699 -0.0609 -0.7359  0.1332
  166SAPS   H2R18708   7.301   1.623   6.783  2.8596 -0.6575 -1.4765
  166SAPS   H2S18709   7.326   1.490   6.672  0.5129 -0.7701  1.7379
  166SAPS    C318710   6.789   1.643   6.754  0.7158  0.4360 -0.1457
  166SAPS    HX18711   6.809   1.746   6.791 -0.6779  1.0753 -1.0925
  166SAPS    HY18712   6.691   1.611   6.797  1.3130 -1.9871 -0.4393
  166SAPS   O3118713   6.772   1.627   6.609 -0.5918 -0.2504  0.0337
  166SAPS   C3118714   6.820   1.722   6.534  0.1253 -0.1846  0.1195
  166SAPS   O3218715   6.892   1.814   6.573  0.0332 -0.7322 -0.2966
  166SAPS   C3218716   6.788   1.680   6.388  0.2382  0.4288  0.5133
  166SAPS   H2X18717   6.690   1.629   6.399  0.2258  0.0733 -1.0525
  166SAPS   H2Y18718   6.866   1.605   6.362 -0.3177 -0.2147  0.6885
  166SAPS   C2318719   7.237   1.673   6.581 -0.4508  0.6006  0.3228
  166SAPS   H3R18720   7.335   1.722   6.561 -0.6399  1.4521  1.4185
  166SAPS   H3S18721   7.177   1.762   6.609 -1.4636  0.2214 -0.5419
  166SAPS   C2418722   7.171   1.614   6.459  0.3976  0.0176  0.2136
  166SAPS   H4R18723   7.150   1.698   6.389  2.7023  0.0187 -0.5647
  166SAPS   H4S18724   7.072   1.583   6.500  0.3526  1.7139  1.4701
  166SAPS   C2518725   7.234   1.497   6.390 -0.2900  0.0984  0.4441
  166SAPS   H5R18726   7.248   1.407   6.450  0.1331 -1.6596 -2.1170
  166SAPS   C2618727   7.280   1.495   6.262 -0.0498  0.0049 -0.1564
  166SAPS   H6R18728   7.323   1.406   6.212  0.9865  1.0240 -1.1570
  166SAPS   C2718729   7.289   1.627   6.181  0.5794  0.5464 -0.0101
  166SAPS   H7R18730   7.381   1.637   6.119 -0.7604  2.8450 -1.7997
  166SAPS   H7S18731   7.286   1.720   6.243 -2.4648  0.4039  0.1968
  166SAPS   C2818732   7.172   1.633   6.084 -1.1909  0.1041 -0.3063
  166SAPS   H8R18733   7.075   1.617   6.133 -1.0503 -0.7240 -0.2803
  166SAPS   C2918734   7.177   1.654   5.944 -0.2136 -0.2064 -0.6880
  166SAPS   H9R18735   7.087   1.670   5.884 -1.0651  0.4271  0.7072
  166SAPS  C21018736   7.296   1.684   5.865 -0.3077  0.3475 -0.6322
  166SAPS  H10R18737   7.372   1.737   5.926  0.0646 -1.5160  0.6171
  166SAPS  H10S18738   7.276   1.744   5.774  0.4448 -0.7396 -1.5401
  166SAPS  C21118739   7.374   1.567   5.815  0.3304 -0.0796  0.1246
  166SAPS  H11R18740   7.456   1.529   5.878 -0.1120 -1.4870 -0.1163
  166SAPS  C21218741   7.372   1.516   5.691 -0.6147  0.4893  0.6958
  166SAPS  H12R18742   7.442   1.433   5.676 -2.2884 -0.7472 -0.5931
  166SAPS  C21318743   7.282   1.549   5.580 -0.1731  0.2360 -0.7444
  166SAPS  H13R18744   7.181   1.574   5.619 -0.1376 -0.7914  0.0445
  166SAPS  H13S18745   7.250   1.455   5.531 -1.8790 -0.7434  2.0322
  166SAPS  C21418746   7.329   1.666   5.495 -0.1036 -0.1661  0.0828
  166SAPS  H14R18747   7.277   1.760   5.517 -0.9299 -0.6163  0.1170
  166SAPS  C21518748   7.419   1.668   5.394 -0.6803  0.2649 -0.5414
  166SAPS  H15R18749   7.427   1.756   5.330  1.4146 -1.0622 -2.2220
  166SAPS  C21618750   7.490   1.547   5.344  0.1618 -0.7539  0.1241
  166SAPS  H16R18751   7.521   1.482   5.429 -0.6467 -0.5747  0.5697
  166SAPS  H16S18752   7.585   1.571   5.292  0.2534  0.9443  1.0004
  166SAPS  C21718753   7.400   1.465   5.246 -0.5427 -0.7817 -0.0200
  166SAPS  H17R18754   7.306   1.426   5.292  0.8198 -2.0165  1.8475
  166SAPS  H17S18755   7.463   1.375   5.233  2.1201  0.6349  2.0382
  166SAPS  C21818756   7.386   1.538   5.106  0.0465  0.2860 -0.0152
  166SAPS  H18R18757   7.381   1.648   5.115  0.3561  0.3875 -0.9807
  166SAPS  H18S18758   7.292   1.507   5.055 -1.0871  1.1508  1.4585
  166SAPS  C21918759   7.509   1.505   5.015 -0.2729 -0.7646 -0.4274
  166SAPS  H19R18760   7.507   1.401   4.977  2.2659  0.3096 -4.0801
  166SAPS  H19S18761   7.600   1.512   5.078 -1.9685 -2.2670  2.3801
  166SAPS  C22018762   7.530   1.594   4.897  0.4641  0.6065 -0.4515
  166SAPS  H20R18763   7.438   1.595   4.835  1.0187  0.5835 -1.2898
  166SAPS  H20S18764   7.617   1.566   4.833  1.2233  0.0144  0.7900
  166SAPS  H20T18765   7.549   1.697   4.932  0.7804  0.0390  1.1688
  166SAPS   C3318766   6.782   1.793   6.286 -0.1566  0.4415 -0.1884
  166SAPS   H3X18767   6.723   1.878   6.327 -0.6115  1.1989 -2.3123
  166SAPS   H3Y18768   6.734   1.779   6.187  1.1292  2.9575 -1.2706
  166SAPS   C3418769   6.926   1.847   6.248  0.0343 -0.2129  0.8404
  166SAPS   H4X18770   6.992   1.758   6.236  0.1924  0.0504 -0.3237
  166SAPS   H4Y18771   6.968   1.917   6.324  1.5702  1.3840 -1.3558
  166SAPS   C3518772   6.928   1.921   6.115 -0.3562 -0.3092 -0.2727
  166SAPS   H5X18773   6.856   2.006   6.106  2.1200  1.9577  0.1461
  166SAPS   H5Y18774   6.899   1.853   6.032  0.1637 -1.0534  0.1438
  166SAPS   C3618775   7.063   1.979   6.089 -0.5908 -0.3332 -0.9301
  166SAPS   H6X18776   7.137   1.899   6.068  0.8762  0.8537 -0.5277
  166SAPS   H6Y18777   7.098   2.027   6.183 -3.8303 -1.1950  0.8826
  166SAPS   C3718778   7.060   2.080   5.970 -0.1981 -0.0438  0.5534
  166SAPS   H7X18779   7.148   2.146   5.985  1.7509 -2.3182 -0.1359
  166SAPS   H7Y18780   6.966   2.138   5.968 -0.8185 -0.9824  1.5031
  166SAPS   C3818781   7.073   1.999   5.846  0.2913 -0.0490 -0.5378
  166SAPS   H8X18782   6.983   1.938   5.824 -0.4055 -0.2931  2.5054
  166SAPS   H8Y18783   7.158   1.929   5.857 -0.6791 -1.4471 -1.6406
  166SAPS   C3918784   7.081   2.083   5.719 -0.3888 -0.0564 -0.4318
  166SAPS   H9X18785   7.154   2.165   5.739  0.0761 -0.2858 -1.1660
  166SAPS   H9Y18786   6.982   2.106   5.676 -0.2058 -2.2469 -2.1878
  166SAPS  C31018787   7.136   2.008   5.598 -0.2397  0.0104  0.2823
  166SAPS  H10X18788   7.069   1.925   5.568  0.6182 -0.7623  0.4560
  166SAPS  H10Y18789   7.233   1.962   5.627 -0.3926  0.8105  2.1748
  166SAPS  C31118790   7.173   2.101   5.481  0.1808  0.7570 -0.9058
  166SAPS  H11X18791   7.245   2.179   5.513  0.3652  2.0872 -4.1919
  166SAPS  H11Y18792   7.081   2.154   5.449 -1.7879 -1.1134  1.2878
  166SAPS  C31218793   7.245   2.016   5.370 -0.0172 -0.5289  0.2035
  166SAPS  H12X18794   7.196   1.917   5.361  1.3788 -1.6015  3.0936
  166SAPS  H12Y18795   7.351   2.011   5.404  0.3590  3.0567 -0.0025
  166SAPS  C31318796   7.250   2.075   5.228 -0.3025 -0.1342  0.2354
  166SAPS  H13X18797   7.280   2.181   5.224  0.1794 -0.2688  0.2898
  166SAPS  H13Y18798   7.143   2.071   5.198 -0.1745 -0.0704 -0.2401
  166SAPS  C31418799   7.324   2.000   5.122 -0.3019 -0.0391 -0.1365
  166SAPS  H14X18800   7.290   1.895   5.137  1.5061 -0.4460  1.6119
  166SAPS  H14Y18801   7.435   2.009   5.129 -0.5564  2.5427  2.1182
  166SAPS  C31518802   7.282   2.048   4.978 -0.8461 -0.1289 -0.0161
  166SAPS  H15X18803   7.172   2.065   4.972 -0.4065  2.7795 -3.8914
  166SAPS  H15Y18804   7.304   1.972   4.900 -1.6767 -3.5632  2.8468
  166SAPS  C31618805   7.365   2.166   4.940 -0.8358 -0.4690 -1.0125
  166SAPS  H16X18806   7.473   2.141   4.944 -1.3968 -3.3052 -1.5735
  166SAPS  H16Y18807   7.345   2.243   5.017  4.1518 -1.7260  1.9658
  166SAPS  C31718808   7.332   2.224   4.801  0.0886  0.8769  0.2062
  166SAPS  H17X18809   7.231   2.270   4.810  0.6849  2.6663 -1.6442
  166SAPS  H17Y18810   7.324   2.143   4.726  1.3776  1.0243 -0.1196
  166SAPS  C31818811   7.425   2.334   4.748 -0.3167 -0.3289 -0.2694
  166SAPS  H18X18812   7.387   2.393   4.662  1.6390  1.5973  0.1223
  166SAPS  H18Y18813   7.528   2.303   4.723 -0.0385 -0.7409  1.3056
  166SAPS  H18Z18814   7.428   2.407   4.832 -0.2350 -0.9374  0.2675
  167SAPS     N18815   3.433   1.740   7.089  0.0172 -0.6977 -0.3249
  167SAPS   HN118816   3.409   1.824   7.033  1.3677 -1.1334 -1.6293
  167SAPS   HN218817   3.357   1.669   7.083  1.2444 -1.9799 -1.4024
  167SAPS   HN318818   3.456   1.766   7.187  1.0554 -0.6040 -0.5780
  167SAPS   C1218819   3.552   1.685   7.031 -0.7951 -0.1899 -0.1061
  167SAPS  H12A18820   3.636   1.731   7.083 -0.4812  0.4904 -1.1838
  167SAPS   C1318821   3.548   1.535   7.072 -0.1551  0.6615  0.8494
  167SAPS  O13A18822   3.442   1.483   7.129  0.3123  0.9288  0.1055
  167SAPS  O13B18823   3.647   1.463   7.042  0.1129  0.1891  0.4326
  167SAPS   C1118824   3.549   1.703   6.881 -0.4794  0.4619 -0.2443
  167SAPS  H11A18825   3.457   1.651   6.848 -0.0323 -1.7331  1.7506
  167SAPS  H11B18826   3.636   1.653   6.833  2.4559  1.5123  3.5418
  167SAPS     P18827   3.696   1.929   6.839  0.2144 -0.2221 -0.0319
  167SAPS   O1318828   3.672   2.034   6.739  0.1897 -0.6986  0.5627
  167SAPS   O1418829   3.722   1.982   6.976 -0.1392 -0.0268 -0.3911
  167SAPS   O1218830   3.558   1.844   6.853 -0.3088 -0.0823 -0.2315
  167SAPS   O1118831   3.804   1.824   6.788  0.1371 -0.4017 -0.1538
  167SAPS    C118832   3.907   1.780   6.874  0.2770  0.3180  0.1696
  167SAPS    HA18833   3.964   1.866   6.914  1.6818  0.2631 -1.5846
  167SAPS    HB18834   3.869   1.718   6.958 -3.1135 -0.7829 -1.9615
  167SAPS    C218835   4.011   1.689   6.800  0.2187  0.1057 -0.3677
  167SAPS    HS18836   4.100   1.697   6.866 -0.6750  1.5605  0.7144
  167SAPS   O2118837   4.036   1.739   6.668  0.0582  0.1083  0.2380
  167SAPS   C2118838   4.115   1.842   6.655 -0.4499  0.1534  0.1562
  167SAPS   O2218839   4.168   1.900   6.749 -0.2278  0.2447  0.0702
  167SAPS   C2218840   4.147   1.874   6.506  0.1006 -0.4013  0.1141
  167SAPS   H2R18841   4.064   1.828   6.447  1.7789 -1.0163 -1.8795
  167SAPS   H2S18842   4.140   1.984   6.498  0.7345 -0.2293  1.5055
  167SAPS    C318843   3.963   1.545   6.789 -0.1706 -0.3929 -0.1619
  167SAPS    HX18844   3.852   1.547   6.781 -0.2257  0.8232  0.6437
  167SAPS    HY18845   3.980   1.486   6.881 -1.0034 -0.5684 -0.1116
  167SAPS   O3118846   4.034   1.463   6.691  0.1317  0.2949  1.0075
  167SAPS   C3118847   3.954   1.424   6.583  0.2435 -0.0909 -0.2013
  167SAPS   O3218848   3.842   1.461   6.560 -0.1848  0.2942  0.4676
  167SAPS   C3218849   4.035   1.322   6.497 -0.3593 -0.1631 -0.6601
  167SAPS   H2X18850   3.975   1.230   6.476  0.9908 -0.5730 -3.2104
  167SAPS   H2Y18851   4.134   1.307   6.545 -0.0132  1.6586 -0.7582
  167SAPS   C2318852   4.281   1.832   6.449 -0.8023  0.3447  0.3732
  167SAPS   H3R18853   4.285   1.721   6.456 -0.8735  0.2740 -0.6689
  167SAPS   H3S18854   4.369   1.871   6.505  0.4237  0.5352 -1.5879
  167SAPS   C2418855   4.285   1.882   6.303  0.1172  0.3293  0.2046
  167SAPS   H4R18856   4.294   1.991   6.283 -1.6789  0.3107 -0.9103
  167SAPS   H4S18857   4.187   1.862   6.255  0.1091  0.3000  0.2331
  167SAPS   C2518858   4.402   1.819   6.239 -0.1231  0.1579  0.2933
  167SAPS   H5R18859   4.493   1.824   6.302 -0.8076 -0.8400  1.4175
  167SAPS   C2618860   4.394   1.748   6.121 -0.6406  0.6975 -0.0020
  167SAPS   H6R18861   4.480   1.701   6.071 -2.5851 -0.7673 -2.1976
  167SAPS   C2718862   4.261   1.718   6.055  0.3959  0.6418 -0.3779
  167SAPS   H7R18863   4.224   1.821   6.040  2.4865  1.7589  1.5646
  167SAPS   H7S18864   4.203   1.666   6.135 -1.9496  0.4668 -2.0911
  167SAPS   C2818865   4.277   1.624   5.944 -1.0854 -0.8909  0.0875
  167SAPS   H8R18866   4.288   1.517   5.966  0.5211 -0.6000  0.9136
  167SAPS   C2918867   4.312   1.661   5.816 -0.0311 -0.5441  0.0272
  167SAPS   H9R18868   4.341   1.585   5.741  0.9455  0.4908 -0.6804
  167SAPS  C21018869   4.319   1.800   5.750 -0.3215 -0.0542 -0.1962
  167SAPS  H10R18870   4.426   1.815   5.726 -0.0167 -2.7556 -0.8448
  167SAPS  H10S18871   4.293   1.881   5.821 -1.9633 -0.1522 -0.6373
  167SAPS  C21118872   4.237   1.802   5.626  0.8554 -0.2369 -0.1945
  167SAPS  H11R18873   4.134   1.841   5.636  0.6343  0.0929 -2.9735
  167SAPS  C21218874   4.262   1.767   5.499 -0.1453 -0.7983 -0.0517
  167SAPS  H12R18875   4.174   1.776   5.434 -1.3193  1.2322  1.6709
  167SAPS  C21318876   4.389   1.718   5.439  0.3863 -0.4705 -0.0065
  167SAPS  H13R18877   4.455   1.697   5.526 -2.6696 -1.5405  2.2099
  167SAPS  H13S18878   4.426   1.794   5.367 -0.0261 -1.1257 -0.9251
  167SAPS  C21418879   4.375   1.582   5.375  1.2143 -0.1515 -0.5320
  167SAPS  H14R18880   4.287   1.526   5.409 -1.0356  2.7377 -1.2536
  167SAPS  C21518881   4.428   1.544   5.253  0.5654  0.3859 -0.7414
  167SAPS  H15R18882   4.412   1.440   5.222  3.5796 -0.6978  0.9562
  167SAPS  C21618883   4.539   1.611   5.171  0.0955 -0.7310 -0.2297
  167SAPS  H16R18884   4.629   1.546   5.182 -0.3161 -1.4170 -0.8016
  167SAPS  H16S18885   4.566   1.712   5.207  1.4619 -1.8420  2.1161
  167SAPS  C21718886   4.517   1.624   5.018 -0.0141  0.3705 -0.1133
  167SAPS  H17R18887   4.589   1.695   4.972 -1.8537  1.4419 -1.4738
  167SAPS  H17S18888   4.420   1.678   5.009 -0.8821 -0.4897  2.8207
  167SAPS  C21818889   4.503   1.494   4.941 -0.0886  0.3343 -0.8619
  167SAPS  H18R18890   4.407   1.442   4.963  1.2809 -0.6032  3.8636
  167SAPS  H18S18891   4.588   1.432   4.977 -0.4216  1.3247  1.7769
  167SAPS  C21918892   4.521   1.507   4.783  0.3665 -0.8839 -0.4480
  167SAPS  H19R18893   4.495   1.408   4.740 -4.0441  1.0159 -2.8201
  167SAPS  H19S18894   4.623   1.543   4.758 -0.5766  2.6965  0.3123
  167SAPS  C22018895   4.435   1.617   4.720 -0.0290  0.2848 -0.2220
  167SAPS  H20R18896   4.452   1.605   4.611  0.1008 -1.7342 -0.0194
  167SAPS  H20S18897   4.472   1.719   4.746 -2.6668  0.7368  2.3373
  167SAPS  H20T18898   4.332   1.620   4.760  0.8394  2.1222  2.1235
  167SAPS   C3318899   4.070   1.383   6.351  0.8053  0.6448 -0.2187
  167SAPS   H3X18900   4.176   1.372   6.319  0.4762 -3.6701 -0.4528
  167SAPS   H3Y18901   4.053   1.492   6.360 -1.0645  0.4910 -1.3599
  167SAPS   C3418902   3.975   1.328   6.251  0.6737  0.0890  0.5162
  167SAPS   H4X18903   3.873   1.358   6.280  0.7179  3.6345 -2.3017
  167SAPS   H4Y18904   3.985   1.217   6.245 -1.7392 -0.1353 -0.0745
  167SAPS   C3518905   3.976   1.389   6.113 -0.2924 -0.1964 -0.7027
  167SAPS   H5X18906   4.071   1.376   6.057 -0.6489  0.8513 -1.5970
  167SAPS   H5Y18907   3.967   1.499   6.126 -2.3189 -0.4281  0.2483
  167SAPS   C3618908   3.870   1.336   6.016 -0.0909  0.0958  0.0310
  167SAPS   H6X18909   3.772   1.341   6.067  0.1701  1.1098  0.4492
  167SAPS   H6Y18910   3.904   1.231   6.004  3.7030  1.2643 -1.1739
  167SAPS   C3718911   3.863   1.401   5.877  0.2704  0.3327 -0.2051
  167SAPS   H7X18912   3.875   1.511   5.877 -1.0489  0.5303 -1.8119
  167SAPS   H7Y18913   3.762   1.390   5.831  0.1382  3.4121 -0.8761
  167SAPS   C3818914   3.965   1.341   5.778 -0.3979 -0.3216 -0.3192
  167SAPS   H8X18915   3.928   1.239   5.756 -0.9727  0.4582 -3.4211
  167SAPS   H8Y18916   4.064   1.333   5.828  0.2341 -1.5273 -1.6982
  167SAPS   C3918917   3.975   1.420   5.643 -0.3776 -0.2965 -0.1687
  167SAPS   H9X18918   4.017   1.521   5.665  4.1355 -2.0524  0.4268
  167SAPS   H9Y18919   3.873   1.422   5.600 -0.4120 -0.2581 -0.0846
  167SAPS  C31018920   4.052   1.357   5.527 -0.4627  0.0613  0.1941
  167SAPS  H10X18921   4.153   1.321   5.554 -0.7233 -0.0728  0.9967
  167SAPS  H10Y18922   4.069   1.441   5.456  1.3518  0.4956  1.0928
  167SAPS  C31118923   3.990   1.243   5.449  0.0678  1.2345  0.4481
  167SAPS  H11X18924   3.885   1.268   5.423  0.2836  1.7892  0.1090
  167SAPS  H11Y18925   4.001   1.145   5.502 -0.0040  0.8034 -0.3243
  167SAPS  C31218926   4.059   1.231   5.315 -0.2183  0.2934  0.4365
  167SAPS  H12X18927   4.064   1.123   5.287 -0.2940 -0.3002  2.5535
  167SAPS  H12Y18928   4.165   1.262   5.327  0.7636 -2.7293  0.6064
  167SAPS  C31318929   3.994   1.315   5.208  0.3408  0.5274  0.3462
  167SAPS  H13X18930   4.034   1.416   5.230  1.6527 -0.1740  1.3851
  167SAPS  H13Y18931   3.883   1.315   5.205  0.3450 -0.6595 -0.4511
  167SAPS  C31418932   4.049   1.275   5.074 -0.1290 -0.9237 -0.5075
  167SAPS  H14X18933   3.983   1.187   5.059 -0.1947 -1.1952  1.2385
  167SAPS  H14Y18934   4.153   1.236   5.078  1.2159  2.4267  2.7782
  167SAPS  C31518935   4.025   1.362   4.948  0.3629  0.2960  0.5914
  167SAPS  H15X18936   4.073   1.457   4.979 -0.3716  2.2502 -3.5771
  167SAPS  H15Y18937   3.917   1.385   4.934  0.5741  0.0784 -1.7950
  167SAPS  C31618938   4.082   1.303   4.815  0.1340 -0.3576 -0.8884
  167SAPS  H16X18939   4.027   1.212   4.782  0.3490 -0.1889 -1.7491
  167SAPS  H16Y18940   4.184   1.270   4.843 -0.4669  0.8059  3.4672
  167SAPS  C31718941   4.072   1.405   4.706  0.3275 -0.7981 -0.3650
  167SAPS  H17X18942   4.117   1.493   4.757 -0.0938 -1.8268  1.9246
  167SAPS  H17Y18943   3.966   1.424   4.683 -0.4517 -1.9173  2.0026
  167SAPS  C31818944   4.158   1.372   4.583  0.3644 -0.3509 -0.6191
  167SAPS  H18X18945   4.145   1.451   4.506 -1.0991 -0.9590 -1.0373
  167SAPS  H18Y18946   4.120   1.277   4.539 -0.0687 -0.7776  0.6341
  167SAPS  H18Z18947   4.261   1.364   4.623 -0.0680  0.2794  0.6529
  168SAPS     N18948   1.753   1.928   7.272 -0.1165  0.0556 -0.3128
  168SAPS   HN118949   1.771   1.887   7.366  0.3350  1.4316  0.2237
  168SAPS   HN218950   1.662   1.885   7.248 -1.4499  1.1503  2.3130
  168SAPS   HN318951   1.825   1.910   7.199  1.5767  0.3691  1.2148
  168SAPS   C1218952   1.720   2.082   7.280  0.6362 -0.1713  0.6378
  168SAPS  H12A18953   1.627   2.103   7.329 -1.1407 -2.3864 -1.4973
  168SAPS   C1318954   1.828   2.164   7.360  0.8461  0.2940  0.3608
  168SAPS  O13A18955   1.919   2.100   7.422 -0.5013  0.3526  0.4449
  168SAPS  O13B18956   1.799   2.283   7.393  0.1043 -0.2186  0.1834
  168SAPS   C1118957   1.709   2.138   7.138  0.1365 -0.3661  0.1471
  168SAPS  H11A18958   1.669   2.242   7.148  0.6713  0.3327 -3.4295
  168SAPS  H11B18959   1.627   2.092   7.078 -0.2441 -1.2338  1.3157
  168SAPS     P18960   1.857   2.051   6.934  0.4940 -0.0277 -0.2221
  168SAPS   O1318961   1.992   2.088   6.895  0.0335  0.2048 -0.0010
  168SAPS   O1418962   1.832   1.907   6.970  0.0436  0.5030  0.2606
  168SAPS   O1218963   1.836   2.135   7.069  0.1851 -0.1750  0.4457
  168SAPS   O1118964   1.747   2.100   6.836  0.1826  0.5485  0.2974
  168SAPS    C118965   1.738   2.233   6.786  0.2351  0.1783  0.1977
  168SAPS    HA18966   1.643   2.281   6.818  1.8180  1.4014  3.4480
  168SAPS    HB18967   1.809   2.302   6.836  1.0359 -0.8268  0.4751
  168SAPS    C218968   1.774   2.248   6.631 -0.9671  0.3061 -1.4060
  168SAPS    HS18969   1.713   2.322   6.575 -1.5648 -0.0311 -1.2080
  168SAPS   O2118970   1.757   2.124   6.560 -0.1855  0.1473 -0.1363
  168SAPS   C2118971   1.636   2.063   6.578 -0.1206 -0.4501 -0.0413
  168SAPS   O2218972   1.530   2.110   6.619 -0.6430  1.0016 -0.0829
  168SAPS   C2218973   1.649   1.918   6.532 -0.1229  0.4513 -0.2519
  168SAPS   H2R18974   1.707   1.877   6.618 -1.7145  2.9065  2.1713
  168SAPS   H2S18975   1.551   1.868   6.514 -0.1890  0.6791 -0.5242
  168SAPS    C318976   1.925   2.297   6.611 -0.4426 -0.1065 -0.0941
  168SAPS    HX18977   2.002   2.219   6.631  1.0128  1.4121  0.5196
  168SAPS    HY18978   1.947   2.376   6.687  0.3015  1.9685 -2.3496
  168SAPS   O3118979   1.939   2.343   6.478 -0.1827 -0.6183  0.1491
  168SAPS   C3118980   1.968   2.260   6.380 -0.1910  0.7950 -0.2708
  168SAPS   O3218981   1.994   2.138   6.397  0.2317  0.3773  0.2996
  168SAPS   C3218982   1.958   2.338   6.247 -0.6657 -0.2989  0.0757
  168SAPS   H2X18983   1.849   2.338   6.226 -0.7294 -0.1078  0.3989
  168SAPS   H2Y18984   2.007   2.272   6.172  0.3218  0.5723 -0.0589
  168SAPS   C2318985   1.718   1.894   6.395 -0.3210 -0.1463  0.1266
  168SAPS   H3R18986   1.732   1.783   6.392 -1.2876 -0.2790  0.2510
  168SAPS   H3S18987   1.822   1.933   6.388 -0.8402  1.1628 -0.5767
  168SAPS   C2418988   1.625   1.934   6.279 -0.0725 -0.7710  0.6746
  168SAPS   H4R18989   1.529   1.882   6.297  0.2935 -2.9369 -2.6780
  168SAPS   H4S18990   1.667   1.877   6.193 -0.8930  1.1401 -1.1006
  168SAPS   C2518991   1.613   2.081   6.248 -0.6273 -0.3589 -1.0124
  168SAPS   H5R18992   1.567   2.139   6.329  1.2105  2.6875 -1.9683
  168SAPS   C2618993   1.647   2.143   6.135  0.2696 -0.2198  0.2121
  168SAPS   H6R18994   1.623   2.248   6.117  1.2898 -0.2838 -1.7594
  168SAPS   C2718995   1.705   2.064   6.017  0.5001 -0.5852 -0.4461
  168SAPS   H7R18996   1.676   2.140   5.940 -0.2634  1.5138  1.7716
  168SAPS   H7S18997   1.644   1.973   5.999  2.3634 -2.2569  1.2208
  168SAPS   C2818998   1.848   2.037   6.051 -0.0206  0.0016  0.6359
  168SAPS   H8R18999   1.859   1.960   6.128 -0.3695 -0.6541  0.0460
  168SAPS   C2919000   1.954   2.090   5.987  0.5275  0.2276 -0.3028
  168SAPS   H9R19001   2.056   2.070   6.024  0.8327 -0.0017 -1.2510
  168SAPS  C21019002   1.954   2.203   5.877  0.2748  0.2326 -0.1221
  168SAPS  H10R19003   1.935   2.303   5.921 -0.3614  0.6522 -1.3115
  168SAPS  H10S19004   1.872   2.183   5.804  1.5240  0.8398 -1.7346
  168SAPS  C21119005   2.084   2.195   5.807  0.1252  0.5835  0.5620
  168SAPS  H11R19006   2.165   2.204   5.881 -1.5051 -0.1221  2.5213
  168SAPS  C21219007   2.112   2.175   5.673 -0.4309 -0.0544 -0.4833
  168SAPS  H12R19008   2.218   2.169   5.643 -0.4917 -1.1411 -0.5119
  168SAPS  C21319009   2.018   2.145   5.562  0.2563  0.0587  0.3994
  168SAPS  H13R19010   2.034   2.229   5.491 -0.3197  0.2897  0.5421
  168SAPS  H13S19011   1.913   2.154   5.596 -0.7576  1.6457 -2.7193
  168SAPS  C21419012   2.049   2.009   5.503  0.9799 -0.1149 -0.4453
  168SAPS  H14R19013   2.108   2.013   5.411  1.7469 -0.5805  0.0191
  168SAPS  C21519014   1.996   1.890   5.543  0.8777 -0.3312  0.2014
  168SAPS  H15R19015   2.018   1.792   5.498  0.9053 -0.0982 -0.3004
  168SAPS  C21619016   1.914   1.889   5.666 -0.2423  0.5885  0.0248
  168SAPS  H16R19017   1.818   1.942   5.646  0.1876  1.0931 -0.7444
  168SAPS  H16S19018   1.961   1.942   5.751  0.1989  0.3338 -0.0578
  168SAPS  C21719019   1.884   1.741   5.710  0.6812  0.0477 -0.0934
  168SAPS  H17R19020   1.981   1.693   5.736  2.2917  2.0273 -2.0524
  168SAPS  H17S19021   1.840   1.675   5.632 -1.7340  0.4212  0.8715
  168SAPS  C21819022   1.804   1.730   5.846  0.7208  0.2767 -0.1403
  168SAPS  H18R19023   1.694   1.738   5.834 -0.0098 -2.3285  3.2548
  168SAPS  H18S19024   1.851   1.806   5.912  1.6696  1.9300 -2.5705
  168SAPS  C21919025   1.829   1.589   5.909  0.0695 -0.4189  0.0587
  168SAPS  H19R19026   1.937   1.570   5.926  0.2229  0.8314  0.5668
  168SAPS  H19S19027   1.793   1.520   5.829 -1.5679  0.8494 -0.3563
  168SAPS  C22019028   1.759   1.559   6.038  0.4446  0.1510  0.6937
  168SAPS  H20R19029   1.818   1.498   6.109 -0.5377 -0.9916  0.5713
  168SAPS  H20S19030   1.662   1.505   6.029 -0.4527  1.9763 -2.7274
  168SAPS  H20T19031   1.732   1.656   6.085  0.7179  0.2634  0.6217
  168SAPS   C3319032   2.026   2.478   6.249 -0.7174 -0.9461 -0.0520
  168SAPS   H3X19033   2.121   2.463   6.303 -0.6658 -3.8993 -0.7508
  168SAPS   H3Y19034   1.968   2.550   6.310 -0.0014  1.0806 -1.6636
  168SAPS   C3419035   2.061   2.544   6.115  0.8408 -0.7649  0.1695
  168SAPS   H4X19036   2.104   2.458   6.060 -3.2264 -2.3896 -0.8405
  168SAPS   H4Y19037   2.128   2.632   6.124 -0.0074  0.4927 -3.7290
  168SAPS   C3519038   1.933   2.588   6.038  0.0893  0.5324  0.1281
  168SAPS   H5X19039   1.874   2.647   6.111  2.3855 -0.2304  2.7508
  168SAPS   H5Y19040   1.869   2.499   6.019  0.3904  0.5921 -1.2872
  168SAPS   C3619041   1.974   2.652   5.905 -0.4973 -0.6804 -0.2600
  168SAPS   H6X19042   2.059   2.719   5.929  0.4600 -0.3791 -3.8207
  168SAPS   H6Y19043   1.888   2.709   5.865  0.6328  0.4282 -1.2031
  168SAPS   C3719044   2.025   2.559   5.789  0.4286 -1.0518  0.4893
  168SAPS   H7X19045   1.939   2.491   5.775 -0.3195  0.1538 -1.0591
  168SAPS   H7Y19046   2.109   2.495   5.825  0.5568 -0.8326  0.5796
  168SAPS   C3819047   2.057   2.629   5.659  0.0671 -0.2502  0.7515
  168SAPS   H8X19048   2.135   2.706   5.679  0.3642 -0.7135  1.4206
  168SAPS   H8Y19049   1.970   2.692   5.629  0.2219  0.5389  1.9017
  168SAPS   C3919050   2.096   2.538   5.542  1.0638 -0.1180  0.6423
  168SAPS   H9X19051   2.018   2.460   5.546 -1.1103  1.9813  2.3453
  168SAPS   H9Y19052   2.195   2.508   5.583  1.2142 -0.4808  0.0222
  168SAPS  C31019053   2.108   2.604   5.406 -0.2159 -0.0507 -0.0650
  168SAPS  H10X19054   2.177   2.547   5.341 -0.0353  2.3540 -2.0970
  168SAPS  H10Y19055   2.155   2.704   5.417  0.0293 -0.2950  1.3807
  168SAPS  C31119056   1.977   2.607   5.334  0.8815 -0.3239 -0.1728
  168SAPS  H11X19057   1.913   2.674   5.396 -0.0601  0.4277 -1.8929
  168SAPS  H11Y19058   1.942   2.503   5.349 -0.4530  0.0697 -0.4332
  168SAPS  C31219059   1.988   2.636   5.187 -1.2653 -0.1774 -0.0308
  168SAPS  H12X19060   2.046   2.553   5.142 -0.1556  1.5736 -2.0049
  168SAPS  H12Y19061   2.044   2.730   5.168 -0.5259 -0.1966  1.8240
  168SAPS  C31319062   1.859   2.634   5.110 -0.2652 -0.9577  0.3493
  168SAPS  H13X19063   1.776   2.697   5.148 -0.5127 -2.1455  1.8882
  168SAPS  H13Y19064   1.812   2.533   5.100 -2.3149 -0.1037  0.8736
  168SAPS  C31419065   1.888   2.684   4.969  0.3808  0.1646 -0.3510
  168SAPS  H14X19066   1.963   2.612   4.929 -0.7729 -0.2873 -1.7856
  168SAPS  H14Y19067   1.938   2.783   4.971  1.1474 -0.2331  1.5443
  168SAPS  C31519068   1.769   2.672   4.877  0.1966 -0.2382  0.1144
  168SAPS  H15X19069   1.706   2.760   4.900  0.6008 -0.2124  1.1949
  168SAPS  H15Y19070   1.710   2.579   4.895  0.5883 -0.8263 -1.4584
  168SAPS  C31619071   1.817   2.675   4.727  0.6861 -0.2740 -0.0271
  168SAPS  H16X19072   1.890   2.593   4.713 -0.3760 -1.1094 -0.8461
  168SAPS  H16Y19073   1.873   2.768   4.707 -1.0029  0.3188 -2.4430
  168SAPS  C31719074   1.701   2.651   4.636  0.1711  0.2989 -0.0597
  168SAPS  H17X19075   1.633   2.739   4.642  0.4087  0.4313  0.8839
  168SAPS  H17Y19076   1.648   2.561   4.673 -0.4758  1.3794  1.7753
  168SAPS  C31819077   1.749   2.623   4.489  0.2153  0.2031 -0.0872
  168SAPS  H18X19078   1.826   2.542   4.494 -0.5717 -0.5418  0.2234
  168SAPS  H18Y19079   1.808   2.711   4.455  0.6149  0.3134  0.8723
  168SAPS  H18Z19080   1.656   2.606   4.431 -0.5047 -0.1445  1.1387
  169SAPS     N19081   3.686   4.494   7.303  0.0974 -0.8329 -0.8356
  169SAPS   HN119082   3.602   4.461   7.355 -0.1279  0.8383 -0.0524
  169SAPS   HN219083   3.694   4.434   7.219  3.2693 -0.7630 -0.6983
  169SAPS   HN319084   3.776   4.495   7.355  0.5917 -0.6365 -1.6738
  169SAPS   C1219085   3.641   4.638   7.269 -0.4948 -0.4466 -0.0335
  169SAPS  H12A19086   3.552   4.633   7.208  1.5925  0.9214 -3.4989
  169SAPS   C1319087   3.618   4.730   7.390  0.0228 -0.0744 -0.0704
  169SAPS  O13A19088   3.613   4.671   7.503  0.0125  0.0475  0.3763
  169SAPS  O13B19089   3.535   4.821   7.368  0.9864 -1.0820 -0.0422
  169SAPS   C1119090   3.747   4.700   7.169 -0.3423  0.4602  0.4621
  169SAPS  H11A19091   3.842   4.712   7.224  0.1932 -0.8145 -0.1406
  169SAPS  H11B19092   3.704   4.801   7.151 -0.6041  0.5894  1.7132
  169SAPS     P19093   3.832   4.660   6.937 -0.3218 -0.1118  0.2250
  169SAPS   O1319094   3.962   4.718   6.977  0.7915 -0.2793 -0.3432
  169SAPS   O1419095   3.836   4.549   6.838  0.3730  0.0748  0.3187
  169SAPS   O1219096   3.764   4.605   7.062 -0.5275  0.3922  0.0577
  169SAPS   O1119097   3.741   4.774   6.880  0.6872  0.6668 -0.7655
  169SAPS    C119098   3.638   4.751   6.788 -0.1255 -0.7857  0.3043
  169SAPS    HA19099   3.622   4.644   6.765 -0.7427 -0.9373  1.3696
  169SAPS    HB19100   3.552   4.799   6.840  0.7448 -0.2921  1.3245
  169SAPS    C219101   3.663   4.843   6.664 -0.6389 -0.2796  0.0398
  169SAPS    HS19102   3.580   4.840   6.589 -0.4545 -0.8864 -0.1419
  169SAPS   O2119103   3.783   4.795   6.595 -0.4772  0.7270  0.4676
  169SAPS   C2119104   3.790   4.665   6.561 -0.5976 -0.7291 -0.6297
  169SAPS   O2219105   3.698   4.587   6.552 -0.8589  0.0972  0.4013
  169SAPS   C2219106   3.937   4.623   6.538 -0.0934 -0.3017  0.5161
  169SAPS   H2R19107   3.984   4.713   6.492 -1.6250 -0.0704 -0.7194
  169SAPS   H2S19108   3.986   4.602   6.635 -0.3547  0.3163  0.7920
  169SAPS    C319109   3.686   4.988   6.697  1.1829  0.1138 -0.2536
  169SAPS    HX19110   3.770   5.014   6.765  1.7623 -0.2387 -0.8179
  169SAPS    HY19111   3.595   5.014   6.755  2.3355  1.6897  0.9303
  169SAPS   O3119112   3.689   5.066   6.574  0.5965  0.1975 -0.5604
  169SAPS   C3119113   3.806   5.072   6.515  0.6151 -0.5136 -0.3133
  169SAPS   O3219114   3.909   5.029   6.565  0.1385 -0.5166  0.0544
  169SAPS   C3219115   3.804   5.156   6.388 -0.4932 -0.1410  0.1585
  169SAPS   H2X19116   3.908   5.145   6.349  0.1319 -2.2891  2.1813
  169SAPS   H2Y19117   3.793   5.257   6.433  1.7468 -1.1889  3.4937
  169SAPS   C2319118   3.955   4.501   6.441 -0.5349  0.3584  0.5045
  169SAPS   H3R19119   3.904   4.522   6.344 -0.1348 -0.5051  0.0955
  169SAPS   H3S19120   3.900   4.416   6.487 -0.2071  0.3965  0.9652
  169SAPS   C2419121   4.104   4.460   6.409 -0.1100  0.2812 -0.2323
  169SAPS   H4R19122   4.104   4.374   6.340 -1.5263  0.4757 -0.4979
  169SAPS   H4S19123   4.149   4.427   6.506 -1.6108 -0.5758  0.1937
  169SAPS   C2519124   4.182   4.563   6.332  0.5052 -0.8092  0.4679
  169SAPS   H5R19125   4.241   4.624   6.401  0.4704 -2.0379  1.6206
  169SAPS   C2619126   4.171   4.581   6.198  0.8551  0.4806  0.2758
  169SAPS   H6R19127   4.235   4.654   6.145  0.6096 -1.5293 -3.0866
  169SAPS   C2719128   4.101   4.496   6.094 -0.5750 -0.0573  0.0392
  169SAPS   H7R19129   4.043   4.407   6.128 -2.4227  0.9423 -0.4177
  169SAPS   H7S19130   4.181   4.456   6.028  1.0960 -1.4584  2.7431
  169SAPS   C2819131   4.000   4.590   6.029 -0.4350 -0.0547  0.2677
  169SAPS   H8R19132   3.954   4.659   6.101  1.2825 -0.2875  1.6486
  169SAPS   C2919133   3.967   4.591   5.900  0.7171  0.4250  1.1292
  169SAPS   H9R19134   3.893   4.661   5.857  0.3161 -2.1948 -3.0385
  169SAPS  C21019135   4.024   4.503   5.796  0.6199  0.0456  0.0097
  169SAPS  H10R19136   3.934   4.447   5.761 -0.0722  1.0905  0.0804
  169SAPS  H10S19137   4.102   4.432   5.832 -0.0795 -1.4858 -1.3453
  169SAPS  C21119138   4.083   4.580   5.680 -0.0983 -0.4039 -0.4131
  169SAPS  H11R19139   4.158   4.654   5.712  1.4000 -0.9272 -2.4790
  169SAPS  C21219140   4.058   4.564   5.548  0.1663  0.0989  0.3960
  169SAPS  H12R19141   4.116   4.620   5.473  1.9451 -0.5518  1.2201
  169SAPS  C21319142   3.968   4.455   5.492 -0.5223 -0.2621 -0.4754
  169SAPS  H13R19143   3.860   4.470   5.512 -1.0616 -2.8241 -1.0151
  169SAPS  H13S19144   3.992   4.359   5.542  3.1275  1.4861  1.5554
  169SAPS  C21419145   3.977   4.449   5.339  0.5514  0.0435 -0.8257
  169SAPS  H14R19146   3.899   4.497   5.278  0.9700 -1.1868 -2.4186
  169SAPS  C21519147   4.058   4.363   5.266 -0.0229  0.1014  0.0620
  169SAPS  H15R19148   4.053   4.369   5.156 -1.7971  1.9198  0.1827
  169SAPS  C21619149   4.159   4.265   5.322 -0.9020  0.1088  0.5548
  169SAPS  H16R19150   4.114   4.165   5.306 -0.3445 -0.1542  0.6359
  169SAPS  H16S19151   4.157   4.275   5.433 -3.0421  2.5722  0.4055
  169SAPS  C21719152   4.305   4.267   5.259 -0.2012  0.9033 -0.1349
  169SAPS  H17R19153   4.369   4.211   5.330 -0.1096 -1.0896 -1.6910
  169SAPS  H17S19154   4.338   4.373   5.248 -0.6795  0.8699 -2.7249
  169SAPS  C21819155   4.303   4.205   5.116 -0.7004  0.3250  0.1567
  169SAPS  H18R19156   4.390   4.239   5.056  0.1681 -2.5108 -0.3556
  169SAPS  H18S19157   4.214   4.241   5.060 -0.6177  0.8784  0.3808
  169SAPS  C21919158   4.298   4.051   5.133  0.2499 -0.3092 -0.2947
  169SAPS  H19R19159   4.209   4.019   5.191  1.0048 -0.4004  0.8446
  169SAPS  H19S19160   4.395   4.039   5.186 -0.1592  0.4558  0.6586
  169SAPS  C22019161   4.304   3.988   4.995  0.6082  0.5046 -1.2392
  169SAPS  H20R19162   4.213   4.005   4.934  1.6032 -1.4658 -3.4151
  169SAPS  H20S19163   4.314   3.879   5.011 -0.4764  0.9699  5.1192
  169SAPS  H20T19164   4.399   4.016   4.943 -0.3258 -0.0229 -3.3345
  169SAPS   C3319165   3.688   5.115   6.290 -0.2022  0.0793  0.2471
  169SAPS   H3X19166   3.690   5.179   6.199  2.0383  0.2897  0.3838
  169SAPS   H3Y19167   3.591   5.153   6.328 -0.0998  1.6094 -0.9112
  169SAPS   C3419168   3.685   4.971   6.246 -0.3372 -0.1896  0.5073
  169SAPS   H4X19169   3.599   4.960   6.176  1.5247 -0.0720 -1.9184
  169SAPS   H4Y19170   3.659   4.912   6.337 -1.0675  0.7798  0.9446
  169SAPS   C3519171   3.818   4.931   6.178 -0.3667 -0.6563  0.9465
  169SAPS   H5X19172   3.803   4.827   6.143 -1.9406  0.3666 -1.7109
  169SAPS   H5Y19173   3.900   4.936   6.253 -0.0881 -1.5889  0.7128
  169SAPS   C3619174   3.865   4.999   6.050 -0.4540 -0.1316  0.0924
  169SAPS   H6X19175   3.950   4.939   6.011 -0.8731 -1.3633  0.9814
  169SAPS   H6Y19176   3.896   5.102   6.075  0.6304 -0.0613 -1.4638
  169SAPS   C3719177   3.756   5.016   5.941  0.2797 -0.4311  0.2134
  169SAPS   H7X19178   3.712   5.112   5.976 -1.2833 -1.7591  2.1349
  169SAPS   H7Y19179   3.684   4.931   5.935 -0.8111  0.3950  1.1331
  169SAPS   C3819180   3.822   5.047   5.804  0.4673 -0.4143 -0.6116
  169SAPS   H8X19181   3.887   4.959   5.783  1.1048  0.3650 -2.0307
  169SAPS   H8Y19182   3.897   5.128   5.805 -0.2797  0.2954 -0.4081
  169SAPS   C3919183   3.726   5.089   5.692  0.2331  0.1182  0.4831
  169SAPS   H9X19184   3.732   5.200   5.683 -1.1211  0.2186  0.5912
  169SAPS   H9Y19185   3.628   5.067   5.741 -0.0754  0.8670  0.2298
  169SAPS  C31019186   3.725   4.994   5.565  0.9364 -0.2559  0.2018
  169SAPS  H10X19187   3.733   4.889   5.603  0.1602 -0.6317 -0.6236
  169SAPS  H10Y19188   3.807   5.023   5.497  0.1853  1.5228  0.0056
  169SAPS  C31119189   3.598   5.015   5.478  0.0443  0.5857  0.9233
  169SAPS  H11X19190   3.509   4.988   5.540  0.5901  0.3025  1.5936
  169SAPS  H11Y19191   3.602   4.945   5.392  0.6380  0.4592  1.0499
  169SAPS  C31219192   3.578   5.145   5.408  0.1353 -0.5505  0.2944
  169SAPS  H12X19193   3.581   5.225   5.485  0.7601 -0.0059 -0.2833
  169SAPS  H12Y19194   3.477   5.166   5.365  0.2996 -1.2766 -0.4625
  169SAPS  C31319195   3.671   5.161   5.287  0.4723  0.1875 -0.4212
  169SAPS  H13X19196   3.645   5.080   5.215  1.2455  1.1094 -1.7968
  169SAPS  H13Y19197   3.776   5.149   5.321  0.0624  1.0616  1.2851
  169SAPS  C31419198   3.660   5.300   5.216  0.3578 -0.0944  0.2423
  169SAPS  H14X19199   3.752   5.304   5.153 -0.1379 -1.5225 -0.6235
  169SAPS  H14Y19200   3.657   5.390   5.280  1.7043 -0.6679  1.1422
  169SAPS  C31519201   3.541   5.317   5.119 -0.1963  0.3348 -0.0300
  169SAPS  H15X19202   3.451   5.343   5.179  0.5587  0.3238  1.1305
  169SAPS  H15Y19203   3.512   5.234   5.051  6.2090 -0.5445 -2.4667
  169SAPS  C31619204   3.565   5.442   5.031  0.7407  0.2431 -0.0855
  169SAPS  H16X19205   3.656   5.426   4.969  1.2797 -1.1207  1.0128
  169SAPS  H16Y19206   3.586   5.529   5.098  2.1937 -1.8313  2.3445
  169SAPS  C31719207   3.448   5.502   4.949  0.0036  0.2794  0.3499
  169SAPS  H17X19208   3.359   5.513   5.015  0.0249 -0.3072  0.4893
  169SAPS  H17Y19209   3.442   5.430   4.864  2.3252 -1.4595  1.5530
  169SAPS  C31819210   3.478   5.640   4.898 -0.4614 -0.9404  0.1335
  169SAPS  H18X19211   3.474   5.714   4.980 -1.6135 -0.7489 -0.0669
  169SAPS  H18Y19212   3.395   5.685   4.839  0.2993 -0.1717 -0.3779
  169SAPS  H18Z19213   3.571   5.646   4.838 -2.8270 -1.8560 -4.0892
  170SAPS     N19214   4.572   3.417   6.893 -0.2487  0.2800  0.9006
  170SAPS   HN119215   4.529   3.510   6.876 -1.7133 -0.7446 -1.6089
  170SAPS   HN219216   4.641   3.406   6.816 -2.3635 -0.0332 -1.0948
  170SAPS   HN319217   4.501   3.342   6.877  0.9715 -0.6159 -0.5783
  170SAPS   C1219218   4.634   3.402   7.029  0.4847 -0.1680  0.1456
  170SAPS  H12A19219   4.732   3.447   7.037  0.5319 -0.3579  0.6550
  170SAPS   C1319220   4.562   3.449   7.156 -0.3821 -0.4174 -0.0530
  170SAPS  O13A19221   4.437   3.479   7.153 -0.5174 -0.2858 -0.5798
  170SAPS  O13B19222   4.620   3.429   7.266  0.0028  0.0776 -0.3696
  170SAPS   C1119223   4.661   3.245   7.052 -0.3652 -0.2802 -0.3684
  170SAPS  H11A19224   4.572   3.210   7.110 -0.0351 -0.1265  0.2369
  170SAPS  H11B19225   4.741   3.243   7.128 -0.0680  0.6577 -0.6401
  170SAPS     P19226   4.666   3.016   6.910  0.3552  0.1023  0.3127
  170SAPS   O1319227   4.791   2.946   6.890  0.0158 -0.0205 -0.5493
  170SAPS   O1419228   4.576   2.963   7.017 -0.1582 -0.2875 -0.0682
  170SAPS   O1219229   4.698   3.172   6.936 -0.0740 -0.0636  0.2690
  170SAPS   O1119230   4.573   3.009   6.780  0.0268  0.5815  0.0043
  170SAPS    C119231   4.621   3.045   6.649  0.0235  0.3493  0.1204
  170SAPS    HA19232   4.600   3.152   6.629 -0.3671  0.7087  2.2162
  170SAPS    HB19233   4.729   3.022   6.635 -0.4493 -1.5686 -0.6898
  170SAPS    C219234   4.544   2.966   6.539 -0.1990 -0.2491  0.1617
  170SAPS    HS19235   4.436   2.980   6.562 -0.4816  2.0596 -2.1377
  170SAPS   O2119236   4.593   2.830   6.536  0.5882  0.6225  0.5143
  170SAPS   C2119237   4.521   2.748   6.610  0.1647 -0.4514 -0.2792
  170SAPS   O2219238   4.428   2.780   6.684  0.0173 -0.3062  0.5245
  170SAPS   C2219239   4.576   2.611   6.601  0.1691 -0.0251 -0.0028
  170SAPS   H2R19240   4.600   2.583   6.496 -0.4056  2.3587 -0.8382
  170SAPS   H2S19241   4.677   2.618   6.646 -0.0629 -1.2631  0.7487
  170SAPS    C319242   4.583   3.036   6.394  0.3907 -0.3986  0.0374
  170SAPS    HX19243   4.519   3.127   6.391  2.5474  1.1770 -0.0440
  170SAPS    HY19244   4.552   2.973   6.307  0.2637 -1.0586  0.5490
  170SAPS   O3119245   4.725   3.072   6.395  0.4066 -0.3490  0.2480
  170SAPS   C3119246   4.744   3.208   6.375  0.3272  0.7146  0.2541
  170SAPS   O3219247   4.660   3.292   6.348  0.0613  0.0849 -0.3773
  170SAPS   C3219248   4.891   3.243   6.393  0.4585  0.3765 -0.0656
  170SAPS   H2X19249   4.961   3.156   6.397  2.4057  1.9325  1.2402
  170SAPS   H2Y19250   4.905   3.284   6.495  2.3756 -1.2802  0.4160
  170SAPS   C2319251   4.498   2.502   6.666  0.4192  0.2155 -0.0309
  170SAPS   H3R19252   4.438   2.538   6.751  0.1628 -0.9587  0.3076
  170SAPS   H3S19253   4.573   2.425   6.695  1.6594  0.9714 -1.0889
  170SAPS   C2419254   4.404   2.445   6.555  0.2737  0.2809 -0.1988
  170SAPS   H4R19255   4.450   2.435   6.454  1.8624  0.3573  0.5029
  170SAPS   H4S19256   4.315   2.511   6.544 -0.7810 -1.2152 -1.0424
  170SAPS   C2519257   4.349   2.313   6.606 -0.1905 -0.2677 -0.0176
  170SAPS   H5R19258   4.251   2.320   6.655 -0.3912 -0.1858 -0.4259
  170SAPS   C2619259   4.390   2.189   6.570  0.1341  0.4118 -0.3119
  170SAPS   H6R19260   4.351   2.104   6.628  0.6862  1.6006  1.9598
  170SAPS   C2719261   4.510   2.166   6.483  0.0711 -0.0001 -0.0424
  170SAPS   H7R19262   4.538   2.256   6.425  0.6906  0.1488  0.4761
  170SAPS   H7S19263   4.478   2.088   6.410 -3.1218  0.1793  1.0132
  170SAPS   C2819264   4.620   2.120   6.577 -0.0043  0.3778  0.6268
  170SAPS   H8R19265   4.619   2.164   6.678  0.3903  1.6982  0.0761
  170SAPS   C2919266   4.714   2.030   6.532  0.4633 -0.3689  0.0405
  170SAPS   H9R19267   4.800   2.007   6.596  1.0450  2.2649  0.3159
  170SAPS  C21019268   4.726   1.962   6.398  0.5788  0.3167 -0.1149
  170SAPS  H10R19269   4.694   2.038   6.324 -1.3682  0.1302  0.4716
  170SAPS  H10S19270   4.657   1.875   6.405  0.9716  0.0815  1.2584
  170SAPS  C21119271   4.860   1.906   6.355 -1.0824 -0.5779  0.5180
  170SAPS  H11R19272   4.942   1.937   6.421  0.2796  0.6094 -1.6370
  170SAPS  C21219273   4.879   1.833   6.246 -0.2802  0.2105 -0.0492
  170SAPS  H12R19274   4.982   1.797   6.235 -0.0409  0.5398  0.9857
  170SAPS  C21319275   4.777   1.785   6.142 -0.6991  0.2959  0.4824
  170SAPS  H13R19276   4.686   1.849   6.142  0.3087  1.8027  1.9797
  170SAPS  H13S19277   4.730   1.688   6.168  0.2463 -0.1141  0.6923
  170SAPS  C21419278   4.843   1.790   6.007 -0.1060  0.5425  0.0552
  170SAPS  H14R19279   4.941   1.741   6.005 -0.2564  0.2489 -1.7991
  170SAPS  C21519280   4.798   1.850   5.897 -0.6983 -0.1016 -0.1697
  170SAPS  H15R19281   4.866   1.858   5.811  0.8690 -1.6161  0.8620
  170SAPS  C21619282   4.669   1.926   5.896  0.6992 -0.6230  0.0136
  170SAPS  H16R19283   4.584   1.873   5.943  1.2283 -3.3192 -1.8226
  170SAPS  H16S19284   4.630   1.920   5.793 -0.3570  1.1816  0.2661
  170SAPS  C21719285   4.664   2.067   5.937 -0.1286 -0.6423 -0.1870
  170SAPS  H17R19286   4.663   2.085   6.047  1.7141  1.8710 -0.4759
  170SAPS  H17S19287   4.576   2.127   5.906  0.1335  0.3382  0.8848
  170SAPS  C21819288   4.769   2.161   5.870  0.3768  0.8625 -0.5254
  170SAPS  H18R19289   4.775   2.140   5.761  3.2310 -0.8517 -0.1558
  170SAPS  H18S19290   4.865   2.123   5.912 -0.5329  0.8364  1.6768
  170SAPS  C21919291   4.738   2.311   5.909 -0.8194  0.1616 -0.1100
  170SAPS  H19R19292   4.733   2.321   6.019 -2.7179 -0.0355 -0.1460
  170SAPS  H19S19293   4.638   2.332   5.866  0.4967  2.2766 -2.4098
  170SAPS  C22019294   4.834   2.422   5.855 -0.1706 -0.3985  0.1438
  170SAPS  H20R19295   4.801   2.525   5.881  1.2405  0.1147 -0.0043
  170SAPS  H20S19296   4.835   2.412   5.744 -0.1335  3.2223 -0.3011
  170SAPS  H20T19297   4.927   2.401   5.912 -0.4180  1.9638  1.5570
  170SAPS   C3319298   4.942   3.342   6.278  0.1352  0.9535  0.7165
  170SAPS   H3X19299   5.033   3.392   6.319  0.8071 -0.7791  1.4591
  170SAPS   H3Y19300   4.868   3.422   6.254 -1.4958 -0.8581 -0.5279
  170SAPS   C3419301   4.975   3.265   6.149 -0.2731  0.9116  0.1170
  170SAPS   H4X19302   4.882   3.215   6.117 -0.5144  0.7297  1.0964
  170SAPS   H4Y19303   5.048   3.183   6.165  0.8516  1.2467 -2.6556
  170SAPS   C3519304   5.021   3.356   6.035 -0.1218  0.0327  0.5867
  170SAPS   H5X19305   5.124   3.383   6.066 -0.3194 -0.7683  1.9863
  170SAPS   H5Y19306   4.969   3.453   6.044  1.0454  1.0211 -2.1450
  170SAPS   C3619307   5.019   3.319   5.888  0.3670 -0.3457 -0.4411
  170SAPS   H6X19308   4.918   3.284   5.859  0.6875 -1.2068 -0.5581
  170SAPS   H6Y19309   5.094   3.241   5.864 -0.0624 -1.2724  1.0679
  170SAPS   C3719310   5.058   3.441   5.805 -0.0719 -0.6378  0.1496
  170SAPS   H7X19311   5.168   3.459   5.809  0.1845 -0.7322 -3.3252
  170SAPS   H7Y19312   5.008   3.536   5.835  1.5148  1.1141 -2.3478
  170SAPS   C3819313   5.044   3.419   5.652  1.0019 -0.1025  0.3348
  170SAPS   H8X19314   5.060   3.516   5.600  0.9993 -1.4345 -2.3328
  170SAPS   H8Y19315   4.942   3.381   5.629  0.9984  0.0017  0.1723
  170SAPS   C3919316   5.166   3.341   5.600  0.1349  0.5501  0.1600
  170SAPS   H9X19317   5.161   3.241   5.649  1.0408 -0.1105 -1.0424
  170SAPS   H9Y19318   5.264   3.377   5.639  1.9304 -3.7189  0.1062
  170SAPS  C31019319   5.175   3.329   5.447 -0.1889 -0.4852  0.1701
  170SAPS  H10X19320   5.265   3.267   5.426  0.8719  0.3257  2.1013
  170SAPS  H10Y19321   5.198   3.429   5.405  0.8113 -0.7664  0.0133
  170SAPS  C31119322   5.058   3.262   5.385  0.2366 -0.4395  0.1351
  170SAPS  H11X19323   4.970   3.324   5.412  1.3468  0.0979  2.7946
  170SAPS  H11Y19324   5.046   3.165   5.438 -2.0606 -1.6327 -2.3262
  170SAPS  C31219325   5.068   3.249   5.231 -0.5227  0.6014 -0.3761
  170SAPS  H12X19326   5.142   3.328   5.203 -0.2980 -0.4042 -2.8423
  170SAPS  H12Y19327   4.974   3.262   5.174 -1.8128  0.7724  1.6699
  170SAPS  C31319328   5.134   3.115   5.192  0.3849  0.2597  0.1789
  170SAPS  H13X19329   5.060   3.036   5.219  1.2058 -0.6814 -0.2472
  170SAPS  H13Y19330   5.223   3.096   5.256 -0.2144 -0.2792  0.8706
  170SAPS  C31419331   5.172   3.125   5.043 -0.2549  0.1023 -0.2097
  170SAPS  H14X19332   5.246   3.044   5.030  0.4441  0.6505  0.2896
  170SAPS  H14Y19333   5.226   3.222   5.034  0.6700 -0.5652 -2.3150
  170SAPS  C31519334   5.057   3.108   4.950 -0.3545  0.4400 -0.0827
  170SAPS  H15X19335   4.997   3.202   4.950  0.0247  0.7082 -1.4700
  170SAPS  H15Y19336   4.996   3.021   4.984 -1.6972  1.1995 -0.4654
  170SAPS  C31619337   5.104   3.094   4.804  0.7547  0.0454  0.1634
  170SAPS  H16X19338   5.186   3.020   4.791  1.3086  0.4083  1.5109
  170SAPS  H16Y19339   5.153   3.186   4.766  0.9098 -0.9445 -2.2947
  170SAPS  C31719340   4.988   3.064   4.699 -0.3428 -0.8087 -0.4394
  170SAPS  H17X19341   4.973   3.156   4.639 -0.0777  0.6589  1.5980
  170SAPS  H17Y19342   4.889   3.036   4.742 -0.6933 -0.0569 -0.7418
  170SAPS  C31819343   5.026   2.957   4.595  0.3776 -0.4396 -0.0083
  170SAPS  H18X19344   5.056   2.862   4.645  0.4585 -0.0236  0.7511
  170SAPS  H18Y19345   5.108   2.987   4.526 -0.1693 -1.2256 -1.0357
  170SAPS  H18Z19346   4.940   2.945   4.525  0.1533 -0.9513  0.3466
  171SAPS     N19347   2.819   3.966   7.166  0.5037  0.3745  0.1582
  171SAPS   HN119348   2.807   4.068   7.185  0.7674 -0.0325  2.8886
  171SAPS   HN219349   2.733   3.935   7.117 -0.3014  0.4334  1.4760
  171SAPS   HN319350   2.823   3.927   7.262  0.1420  1.8744  0.8246
  171SAPS   C1219351   2.935   3.945   7.068  0.1228 -0.8008  0.3533
  171SAPS  H12A19352   3.020   3.938   7.135 -0.8002  2.3143  2.0659
  171SAPS   C1319353   2.928   3.814   6.990  0.2562 -0.2554 -0.2936
  171SAPS  O13A19354   2.840   3.724   7.020 -0.3036  0.2555 -0.3846
  171SAPS  O13B19355   3.024   3.777   6.919 -0.1897 -0.4577  0.0716
  171SAPS   C1119356   2.940   4.067   6.976 -0.4164  0.1313 -0.5067
  171SAPS  H11A19357   2.845   4.072   6.919  0.1819  2.2023 -1.4044
  171SAPS  H11B19358   3.014   4.051   6.894 -0.7490  0.8022 -0.9448
  171SAPS     P19359   3.090   4.246   7.098  0.3349  0.1481 -0.1570
  171SAPS   O1319360   3.066   4.355   7.191 -0.2396  0.0063  0.0073
  171SAPS   O1419361   3.165   4.122   7.141  0.5425 -0.0203  0.2927
  171SAPS   O1219362   2.956   4.188   7.048  0.1554 -0.4104  0.2941
  171SAPS   O1119363   3.157   4.311   6.961  0.3764  0.2497 -0.0644
  171SAPS    C119364   3.107   4.442   6.936 -0.4120 -0.0669  0.1952
  171SAPS    HA19365   2.996   4.449   6.943 -0.4445 -0.3471 -0.0314
  171SAPS    HB19366   3.160   4.516   7.000  0.3975 -0.2868 -0.2104
  171SAPS    C219367   3.142   4.477   6.786 -0.1755  0.4428 -0.2098
  171SAPS    HS19368   3.076   4.558   6.749  0.8955  1.3614 -0.1642
  171SAPS   O2119369   3.126   4.351   6.707 -1.0240 -0.3017  0.0574
  171SAPS   C2119370   3.012   4.310   6.678  0.0761  0.4626 -0.1511
  171SAPS   O2219371   2.905   4.369   6.694 -0.0147 -0.3684  0.3954
  171SAPS   C2219372   3.034   4.185   6.601  0.2467 -0.1237  0.3886
  171SAPS   H2R19373   3.108   4.124   6.657  0.4536 -0.2515 -0.0202
  171SAPS   H2S19374   2.938   4.129   6.605 -0.2113  0.6570  0.7073
  171SAPS    C319375   3.284   4.540   6.770  0.4664  0.8616 -0.0118
  171SAPS    HX19376   3.369   4.483   6.813 -1.0871 -0.2553  1.7237
  171SAPS    HY19377   3.273   4.632   6.832  2.3511  0.8466  0.3892
  171SAPS   O3119378   3.303   4.586   6.633  0.3431  0.0859 -0.5478
  171SAPS   C3119379   3.387   4.515   6.560 -0.4983  0.3965  0.6655
  171SAPS   O3219380   3.462   4.424   6.593  0.9866 -0.4303 -0.0994
  171SAPS   C3219381   3.391   4.571   6.416  0.2509 -0.1810  0.4004
  171SAPS   H2X19382   3.426   4.676   6.425  0.0683 -0.0586 -0.2571
  171SAPS   H2Y19383   3.285   4.573   6.383 -0.2227 -1.9521  1.6433
  171SAPS   C2319384   3.086   4.217   6.455  0.4654 -0.2614  0.2392
  171SAPS   H3R19385   3.029   4.302   6.413  1.2625  0.1841  0.0450
  171SAPS   H3S19386   3.034   4.142   6.392  1.3592  0.6757 -1.7003
  171SAPS   C2419387   3.229   4.198   6.416  0.7752 -0.6002  0.6679
  171SAPS   H4R19388   3.288   4.251   6.494 -0.2147 -1.1605  1.8335
  171SAPS   H4S19389   3.243   4.254   6.321  0.2059 -2.1521 -0.3700
  171SAPS   C2519390   3.272   4.057   6.410  0.0023 -0.4230 -0.0638
  171SAPS   H5R19391   3.339   4.022   6.491  0.9136  1.1674 -0.0891
  171SAPS   C2619392   3.250   3.984   6.298  0.0953 -0.1179  0.2414
  171SAPS   H6R19393   3.262   3.875   6.306 -0.4637 -0.2391 -0.4940
  171SAPS   C2719394   3.169   4.030   6.181  0.3794  0.7434 -0.2650
  171SAPS   H7R19395   3.127   4.132   6.194 -0.5652  0.2876  0.3416
  171SAPS   H7S19396   3.075   3.973   6.166 -0.1798  0.4503  3.5280
  171SAPS   C2819397   3.258   4.039   6.055 -0.3639  0.1312  0.4065
  171SAPS   H8R19398   3.347   3.975   6.042 -0.2239  0.3022  0.5191
  171SAPS   C2919399   3.232   4.112   5.946  0.0843 -0.0272  0.4383
  171SAPS   H9R19400   3.300   4.104   5.860 -0.2713  0.4471  0.1123
  171SAPS  C21019401   3.123   4.203   5.932  0.2880  0.0436 -0.3183
  171SAPS  H10R19402   3.041   4.171   5.999  0.0119 -0.3637 -0.8431
  171SAPS  H10S19403   3.087   4.193   5.827  0.1713 -0.4605 -0.2320
  171SAPS  C21119404   3.170   4.342   5.956 -0.4383 -0.0409  0.1224
  171SAPS  H11R19405   3.231   4.342   6.048  2.4254 -1.6905 -1.6396
  171SAPS  C21219406   3.124   4.460   5.904  0.2216  0.2394  0.0632
  171SAPS  H12R19407   3.183   4.547   5.936  2.6389 -1.8891  1.8786
  171SAPS  C21319408   3.024   4.470   5.796 -0.1719 -0.1079 -0.6844
  171SAPS  H13R19409   2.941   4.397   5.807  0.2559 -0.8642 -2.2019
  171SAPS  H13S19410   3.094   4.440   5.716  0.1430  1.7343 -1.1335
  171SAPS  C21419411   2.984   4.613   5.766 -0.2476 -0.0084 -0.3325
  171SAPS  H14R19412   3.050   4.693   5.802 -1.1106  1.8871 -2.7451
  171SAPS  C21519413   2.887   4.648   5.681  0.3751 -0.3581  0.1266
  171SAPS  H15R19414   2.872   4.757   5.672  0.0809 -0.4139 -0.0617
  171SAPS  C21619415   2.786   4.566   5.611  0.3476 -0.1220 -0.1539
  171SAPS  H16R19416   2.694   4.572   5.672  0.3511 -2.2711  0.1219
  171SAPS  H16S19417   2.800   4.456   5.608  1.5122  0.0055 -0.0700
  171SAPS  C21719418   2.765   4.609   5.464  0.3683 -0.0908  0.4431
  171SAPS  H17R19419   2.731   4.713   5.485  1.0005  0.0017  1.0708
  171SAPS  H17S19420   2.682   4.553   5.417  0.8031  1.4167 -2.3157
  171SAPS  C21819421   2.890   4.583   5.380 -0.5249 -0.5533 -0.5319
  171SAPS  H18R19422   2.892   4.472   5.388 -1.4565 -0.5778 -0.6260
  171SAPS  H18S19423   2.975   4.623   5.440 -0.7338 -1.4651  0.3960
  171SAPS  C21919424   2.904   4.653   5.249 -0.8722  0.1249  0.4879
  171SAPS  H19R19425   2.885   4.759   5.275 -0.8280 -0.1544  1.7185
  171SAPS  H19S19426   2.821   4.615   5.185 -1.6753  0.4347  1.3248
  171SAPS  C22019427   3.046   4.639   5.190 -0.1205  0.2724 -0.5029
  171SAPS  H20R19428   3.126   4.686   5.251  0.8678 -0.9682 -0.8024
  171SAPS  H20S19429   3.057   4.701   5.098  2.4103  1.0267  0.2199
  171SAPS  H20T19430   3.060   4.533   5.162 -0.5313  0.4925 -1.6091
  171SAPS   C3319431   3.473   4.489   6.315  0.1714 -0.3219  0.3707
  171SAPS   H3X19432   3.442   4.383   6.329 -0.4770 -0.1511  0.2440
  171SAPS   H3Y19433   3.581   4.504   6.338  0.3704 -0.3470 -0.5416
  171SAPS   C3419434   3.427   4.535   6.180  0.1501  0.6249  0.9755
  171SAPS   H4X19435   3.318   4.553   6.179  0.2492  1.2305 -0.3229
  171SAPS   H4Y19436   3.447   4.449   6.113  0.1418  1.4479 -0.1030
  171SAPS   C3519437   3.506   4.655   6.132  0.3700 -0.6316 -0.0944
  171SAPS   H5X19438   3.615   4.634   6.130  0.1856 -1.9699  1.6344
  171SAPS   H5Y19439   3.482   4.737   6.203 -1.6113 -0.1394 -1.2592
  171SAPS   C3619440   3.460   4.701   5.992  0.4913 -0.3485 -0.6961
  171SAPS   H6X19441   3.496   4.805   5.980  0.9765 -0.1697  1.7225
  171SAPS   H6Y19442   3.350   4.707   6.004  0.7936  1.2965  2.0061
  171SAPS   C3719443   3.492   4.605   5.877 -0.1937  0.0115  0.7909
  171SAPS   H7X19444   3.458   4.502   5.903 -2.3013  0.3469 -0.4201
  171SAPS   H7Y19445   3.602   4.595   5.871 -0.2384  0.4715 -1.4751
  171SAPS   C3819446   3.450   4.658   5.737  0.1509  0.1379 -0.2051
  171SAPS   H8X19447   3.479   4.765   5.726  0.2893  0.0025 -1.2483
  171SAPS   H8Y19448   3.340   4.653   5.722  0.0264  0.4813  0.5381
  171SAPS   C3919449   3.523   4.580   5.630  0.2094  0.0559 -0.0624
  171SAPS   H9X19450   3.501   4.471   5.639 -0.7570  0.2682  0.2515
  171SAPS   H9Y19451   3.632   4.597   5.642  0.6005 -0.7438 -2.0721
  171SAPS  C31019452   3.486   4.627   5.493 -0.4495 -0.2420  0.3206
  171SAPS  H10X19453   3.459   4.734   5.485  1.0948  0.3101  1.8769
  171SAPS  H10Y19454   3.399   4.562   5.470  0.4941 -1.0575 -1.1585
  171SAPS  C31119455   3.595   4.610   5.386 -0.5995  0.5897 -0.5523
  171SAPS  H11X19456   3.605   4.499   5.375  2.4603  0.4196  2.4289
  171SAPS  H11Y19457   3.695   4.651   5.412 -0.5484  0.4760 -0.5656
  171SAPS  C31219458   3.549   4.682   5.247  0.0685  0.0564 -0.1088
  171SAPS  H12X19459   3.510   4.785   5.261  1.7032  0.6201  0.5546
  171SAPS  H12Y19460   3.460   4.617   5.229  0.0876 -0.2969  1.0062
  171SAPS  C31319461   3.647   4.653   5.130  0.0541 -0.4501 -0.6179
  171SAPS  H13X19462   3.742   4.704   5.158 -0.8357  0.5606  0.6973
  171SAPS  H13Y19463   3.613   4.704   5.036 -2.8176  0.0308  0.5630
  171SAPS  C31419464   3.677   4.505   5.111 -0.2200 -0.8687  0.3284
  171SAPS  H14X19465   3.581   4.457   5.081  0.5788 -2.0101 -0.5247
  171SAPS  H14Y19466   3.715   4.457   5.204 -2.0452 -1.9311  0.5656
  171SAPS  C31519467   3.794   4.477   5.005  1.0934  0.5634  0.5753
  171SAPS  H15X19468   3.893   4.516   5.037  0.2414  4.1023 -0.6863
  171SAPS  H15Y19469   3.773   4.532   4.911 -0.2319 -1.3036 -0.2721
  171SAPS  C31619470   3.800   4.323   4.978  0.0499  0.3607 -0.6702
  171SAPS  H16X19471   3.693   4.291   4.975  0.0110  0.5027 -0.8131
  171SAPS  H16Y19472   3.835   4.264   5.065 -0.2364  0.9775 -0.1365
  171SAPS  C31719473   3.865   4.280   4.848  0.1748  0.1323 -0.2765
  171SAPS  H17X19474   3.971   4.313   4.845  0.1946  0.1990  0.7614
  171SAPS  H17Y19475   3.801   4.335   4.775 -1.6849  0.9741  1.8559
  171SAPS  C31819476   3.870   4.130   4.816 -0.6205 -0.2878  0.6437
  171SAPS  H18X19477   3.765   4.100   4.795 -0.6563 -1.0098  1.8049
  171SAPS  H18Y19478   3.903   4.082   4.910 -0.1307 -0.2988  0.4694
  171SAPS  H18Z19479   3.934   4.113   4.727 -1.2497  1.2210 -0.1383
  172SAPS     N19480   5.410   4.402   7.098 -0.0116 -0.2338  0.2023
  172SAPS   HN119481   5.393   4.472   7.172  0.6270 -0.8272  0.9313
  172SAPS   HN219482   5.511   4.409   7.073  0.4061 -0.7622  1.6366
  172SAPS   HN319483   5.356   4.442   7.019  0.9198  1.6026  0.4448
  172SAPS   C1219484   5.372   4.261   7.124  0.3784  0.1185  0.0904
  172SAPS  H12A19485   5.435   4.226   7.204 -1.2838 -0.9416  1.0056
  172SAPS   C1319486   5.223   4.253   7.186  0.5962 -0.2373 -0.6456
  172SAPS  O13A19487   5.143   4.349   7.160  0.1715  0.3483  0.0486
  172SAPS  O13B19488   5.182   4.147   7.233  0.4955 -0.3229 -0.1824
  172SAPS   C1119489   5.373   4.180   6.994  0.9943 -0.5428 -1.0957
  172SAPS  H11A19490   5.313   4.223   6.911 -0.0542  1.0976  0.4457
  172SAPS  H11B19491   5.328   4.081   7.019  0.2023 -0.7951 -3.2976
  172SAPS     P19492   5.579   4.019   6.964 -0.0806  0.0605  0.5213
  172SAPS   O1319493   5.727   4.031   6.954 -0.5898  0.0899  0.0075
  172SAPS   O1419494   5.539   3.937   7.078  0.5481 -0.4869  0.3796
  172SAPS   O1219495   5.509   4.165   6.957  0.1431  0.3184  0.0862
  172SAPS   O1119496   5.533   3.945   6.840  0.5273  0.5167  0.1396
  172SAPS    C119497   5.526   4.000   6.712  0.3865  0.3264  0.5984
  172SAPS    HA19498   5.419   4.023   6.692 -0.0724 -1.6042  0.6192
  172SAPS    HB19499   5.585   4.094   6.701  1.2232 -0.4618 -3.2910
  172SAPS    C219500   5.575   3.900   6.602  0.5090  0.1303  0.4865
  172SAPS    HS19501   5.578   3.960   6.508  3.8290  3.3632  2.3695
  172SAPS   O2119502   5.498   3.784   6.591 -0.5156 -0.3409 -0.2156
  172SAPS   C2119503   5.377   3.797   6.542 -0.1780 -0.1394  0.2267
  172SAPS   O2219504   5.339   3.903   6.492 -0.5586 -0.5333  0.4100
  172SAPS   C2219505   5.306   3.667   6.538 -0.3228 -0.1542 -0.0555
  172SAPS   H2R19506   5.371   3.585   6.576 -3.2372 -2.0051  1.3387
  172SAPS   H2S19507   5.210   3.668   6.595 -1.9198 -0.8529 -2.5875
  172SAPS    C319508   5.720   3.854   6.623 -0.5497 -0.2532  0.0364
  172SAPS    HX19509   5.725   3.787   6.712  1.3291 -3.2367 -2.1466
  172SAPS    HY19510   5.792   3.936   6.641  1.5375 -2.3057  1.6251
  172SAPS   O3119511   5.765   3.795   6.498  0.1524 -0.4050 -0.1648
  172SAPS   C3119512   5.790   3.666   6.506  0.6231 -0.0298 -0.3288
  172SAPS   O3219513   5.792   3.597   6.606  0.2957  0.3234  0.2395
  172SAPS   C3219514   5.812   3.615   6.356  0.9589  0.2254  0.3109
  172SAPS   H2X19515   5.893   3.674   6.308  0.0963  3.2480  2.3404
  172SAPS   H2Y19516   5.714   3.641   6.313  0.2735 -3.0255 -0.3923
  172SAPS   C2319517   5.271   3.631   6.392  0.0037  0.1191  0.6159
  172SAPS   H3R19518   5.200   3.703   6.348  0.3541 -0.4517 -0.9607
  172SAPS   H3S19519   5.213   3.537   6.385  2.7336 -1.7249  0.9243
  172SAPS   C2419520   5.388   3.626   6.298 -0.7001 -0.5533 -1.0657
  172SAPS   H4R19521   5.469   3.560   6.336 -2.1573 -1.4452  0.5966
  172SAPS   H4S19522   5.437   3.725   6.284  0.5386 -0.5811  2.0967
  172SAPS   C2519523   5.349   3.572   6.167  0.4285  0.3082 -0.4160
  172SAPS   H5R19524   5.328   3.463   6.169 -1.5375  0.6275  2.3634
  172SAPS   C2619525   5.356   3.632   6.048  0.0524 -0.0138  0.3486
  172SAPS   H6R19526   5.321   3.571   5.963  2.3328  0.1084 -0.7544
  172SAPS   C2719527   5.384   3.779   6.020  0.4436  0.4095 -0.2012
  172SAPS   H7R19528   5.329   3.842   6.093 -0.5973 -0.9340  0.2177
  172SAPS   H7S19529   5.334   3.805   5.924  1.9054 -0.2168 -1.1682
  172SAPS   C2819530   5.528   3.811   5.989 -0.3241 -0.5053  0.0369
  172SAPS   H8R19531   5.582   3.827   6.083 -0.6137 -0.8455  0.2611
  172SAPS   C2919532   5.585   3.828   5.864 -0.2062  0.7721 -0.2897
  172SAPS   H9R19533   5.694   3.844   5.862  0.0041 -0.6588 -1.0108
  172SAPS  C21019534   5.522   3.824   5.720 -0.6232 -0.3592 -0.0286
  172SAPS  H10R19535   5.596   3.826   5.636  0.8787 -0.6239  1.2500
  172SAPS  H10S19536   5.464   3.918   5.709  0.4472  0.2382 -0.8633
  172SAPS  C21119537   5.444   3.703   5.693 -0.1744 -0.3244  0.2691
  172SAPS  H11R19538   5.442   3.629   5.774 -1.8638 -0.1277  0.4270
  172SAPS  C21219539   5.366   3.675   5.588  0.2309  0.2094 -0.3895
  172SAPS  H12R19540   5.309   3.582   5.601 -0.2011  0.6877  1.3653
  172SAPS  C21319541   5.353   3.756   5.467  0.1982  0.8394 -0.1186
  172SAPS  H13R19542   5.419   3.846   5.469  0.9532  0.3084 -0.7560
  172SAPS  H13S19543   5.248   3.794   5.457  0.0774  0.8936  1.2071
  172SAPS  C21419544   5.391   3.674   5.344 -0.2052  0.2981  0.6057
  172SAPS  H14R19545   5.467   3.595   5.359 -0.9313 -0.5360  0.0214
  172SAPS  C21519546   5.341   3.698   5.223  0.0374  0.8637  0.3532
  172SAPS  H15R19547   5.394   3.640   5.145  2.6897 -1.3402  3.4792
  172SAPS  C21619548   5.250   3.815   5.188 -0.4644  0.2145  0.6313
  172SAPS  H16R19549   5.304   3.912   5.184 -1.7387  0.9126 -1.1450
  172SAPS  H16S19550   5.165   3.816   5.260 -0.1135 -0.4125  1.0703
  172SAPS  C21719551   5.177   3.795   5.050 -1.0247  0.2678  0.3254
  172SAPS  H17R19552   5.247   3.810   4.965 -0.9457 -0.2256  0.3051
  172SAPS  H17S19553   5.089   3.863   5.047 -1.9487 -0.8798  0.9160
  172SAPS  C21819554   5.125   3.652   5.034 -0.4441 -0.3144 -0.0495
  172SAPS  H18R19555   5.059   3.627   5.120  1.0685 -0.5098  1.0987
  172SAPS  H18S19556   5.206   3.577   5.046 -0.7304 -0.2811  2.5677
  172SAPS  C21919557   5.057   3.614   4.906  0.1175  0.5771 -0.1466
  172SAPS  H19R19558   4.961   3.669   4.907 -0.1103  0.2754 -2.0686
  172SAPS  H19S19559   5.046   3.503   4.905 -0.6078  0.6501 -0.5715
  172SAPS  C22019560   5.143   3.638   4.778 -0.2293  0.2448  1.1662
  172SAPS  H20R19561   5.246   3.598   4.766  0.4976  2.4984 -0.8475
  172SAPS  H20S19562   5.149   3.749   4.775  0.0487  0.2580  1.9983
  172SAPS  H20T19563   5.087   3.616   4.685  2.0229 -0.7438 -0.0080
  172SAPS   C3319564   5.829   3.469   6.342  0.7350 -0.4520 -0.2011
  172SAPS   H3X19565   5.731   3.417   6.347  0.8055 -0.7145 -1.3591
  172SAPS   H3Y19566   5.890   3.426   6.424  0.7786 -0.3259 -0.1677
  172SAPS   C3419567   5.904   3.416   6.223 -0.6123 -0.3806  0.9443
  172SAPS   H4X19568   5.912   3.307   6.244  0.8824 -0.6573 -0.8661
  172SAPS   H4Y19569   6.007   3.456   6.216 -0.5420 -0.6284  0.5171
  172SAPS   C3519570   5.834   3.425   6.090  0.1971 -1.0516  0.5197
  172SAPS   H5X19571   5.827   3.532   6.061 -3.3217 -1.4109 -0.3458
  172SAPS   H5Y19572   5.730   3.392   6.109 -0.0715  1.1423  3.6132
  172SAPS   C3619573   5.884   3.323   5.986  0.2587 -0.5434 -0.1777
  172SAPS   H6X19574   5.880   3.224   6.036 -1.6141 -0.5437 -0.2491
  172SAPS   H6Y19575   5.992   3.339   5.970  0.1445  1.6370  0.8054
  172SAPS   C3719576   5.812   3.329   5.854 -0.1971  0.0093  0.5231
  172SAPS   H7X19577   5.707   3.356   5.878 -0.3047 -1.3449  1.7673
  172SAPS   H7Y19578   5.813   3.232   5.801  1.5707  0.2401  0.0853
  172SAPS   C3819579   5.880   3.424   5.754  0.1280  0.5250  0.3880
  172SAPS   H8X19580   5.960   3.371   5.699 -0.1707  0.7514 -0.2758
  172SAPS   H8Y19581   5.918   3.517   5.802 -1.2285  2.3019 -1.7347
  172SAPS   C3919582   5.778   3.470   5.650  0.2200 -0.2567  0.1383
  172SAPS   H9X19583   5.699   3.532   5.697  0.1345  0.1341 -0.4986
  172SAPS   H9Y19584   5.727   3.379   5.612 -0.9682  0.9178 -1.2254
  172SAPS  C31019585   5.843   3.543   5.533 -0.2309 -0.2639  0.1757
  172SAPS  H10X19586   5.931   3.484   5.500  0.2933 -1.0631  2.7514
  172SAPS  H10Y19587   5.884   3.643   5.560 -0.4434  0.6974 -2.7460
  172SAPS  C31119588   5.760   3.586   5.405  0.1853 -1.2756  0.3596
  172SAPS  H11X19589   5.696   3.672   5.431  0.8270 -0.5962 -0.2728
  172SAPS  H11Y19590   5.705   3.495   5.372  0.5594 -1.9758  1.5879
  172SAPS  C31219591   5.849   3.645   5.287 -0.5880 -0.4165 -0.8923
  172SAPS  H12X19592   5.935   3.574   5.279 -0.1601 -0.3598  2.0446
  172SAPS  H12Y19593   5.900   3.738   5.320 -0.6670 -0.8955  0.6668
  172SAPS  C31319594   5.768   3.662   5.154 -0.4326  0.3734 -0.3669
  172SAPS  H13X19595   5.693   3.743   5.164  2.7010  3.3849  1.0070
  172SAPS  H13Y19596   5.707   3.571   5.137 -0.1622  0.3433 -1.1951
  172SAPS  C31419597   5.861   3.684   5.037 -0.1780  0.4231  0.0604
  172SAPS  H14X19598   5.803   3.696   4.943 -2.6134  1.2245  1.5867
  172SAPS  H14Y19599   5.917   3.591   5.015 -0.6102  0.2556 -0.3428
  172SAPS  C31519600   5.946   3.802   5.057  0.1374 -0.1864  0.5157
  172SAPS  H15X19601   6.027   3.774   5.129 -1.2651  1.4683  2.8997
  172SAPS  H15Y19602   5.890   3.891   5.092  2.1330  1.4422 -0.1994
  172SAPS  C31619603   6.007   3.862   4.925  0.1566 -0.4558 -0.4069
  172SAPS  H16X19604   6.072   3.786   4.875  1.6355  0.8619 -0.5723
  172SAPS  H16Y19605   5.928   3.875   4.848 -0.9943 -0.5081  0.7354
  172SAPS  C31719606   6.074   3.995   4.953 -0.5310  0.1586  0.0012
  172SAPS  H17X19607   6.147   3.993   4.869 -1.4210  1.5356 -0.8476
  172SAPS  H17Y19608   6.125   3.997   5.051 -0.0044 -0.3697 -0.2556
  172SAPS  C31819609   5.989   4.123   4.942 -0.0286  0.2715  0.2744
  172SAPS  H18X19610   6.050   4.214   4.924 -0.7424  1.2925  2.5698
  172SAPS  H18Y19611   5.940   4.143   5.040 -1.2344 -0.5645 -0.1357
  172SAPS  H18Z19612   5.913   4.112   4.861 -0.6881  0.6716  0.8292
  173SAPS     N19613   5.291   0.719   2.307  0.0662 -0.1633 -0.9381
  173SAPS   HN119614   5.310   0.650   2.383 -1.8015 -0.2128 -0.4658
  173SAPS   HN219615   5.193   0.713   2.273  0.4604  1.0876 -2.4143
  173SAPS   HN319616   5.349   0.693   2.224  1.8011 -1.5799  0.6416
  173SAPS   C1219617   5.315   0.857   2.353 -0.1374  0.0584  0.1936
  173SAPS  H12A19618   5.330   0.918   2.265 -1.4734  2.4832  1.5246
  173SAPS   C1319619   5.187   0.915   2.427 -0.3568 -0.3642  0.5434
  173SAPS  O13A19620   5.079   0.854   2.416 -0.1916  0.7053 -0.5774
  173SAPS  O13B19621   5.193   1.033   2.458 -0.3089 -0.0143  0.0278
  173SAPS   C1119622   5.429   0.850   2.462 -0.1076 -0.3821 -0.4508
  173SAPS  H11A19623   5.383   0.798   2.548  0.6140  0.3012  0.3695
  173SAPS  H11B19624   5.458   0.950   2.501  1.7976 -0.4695 -1.4790
  173SAPS     P19625   5.656   0.893   2.355  0.0601 -0.0960  0.1716
  173SAPS   O1319626   5.779   0.824   2.299  0.0671 -0.3973  0.4377
  173SAPS   O1419627   5.588   1.003   2.281 -0.1675 -0.0211 -0.1745
  173SAPS   O1219628   5.545   0.784   2.400  0.2933  0.6902 -0.0397
  173SAPS   O1119629   5.692   0.939   2.501  0.5346  0.1692  0.1136
  173SAPS    C119630   5.724   1.074   2.532  0.7071  0.4717 -0.0934
  173SAPS    HA19631   5.823   1.113   2.500  0.5025  4.6347  3.4554
  173SAPS    HB19632   5.657   1.143   2.476 -0.8258 -1.0314 -0.1672
  173SAPS    C219633   5.691   1.104   2.681  0.4518  0.1182 -0.5308
  173SAPS    HS19634   5.777   1.054   2.731 -0.3484  0.6707  1.4899
  173SAPS   O2119635   5.565   1.043   2.722  0.5757  0.4740  0.3733
  173SAPS   C2119636   5.557   0.997   2.848 -0.8487 -0.5921  0.3275
  173SAPS   O2219637   5.656   0.977   2.919 -0.6657 -0.0180  0.8536
  173SAPS   C2219638   5.416   0.963   2.880  0.2641 -0.1989 -0.6154
  173SAPS   H2R19639   5.346   1.049   2.866 -1.5954 -1.4698  0.3726
  173SAPS   H2S19640   5.383   0.891   2.803  1.5379 -0.3290 -1.0573
  173SAPS    C319641   5.695   1.254   2.718 -0.3551  0.4270  0.5180
  173SAPS    HX19642   5.611   1.305   2.668 -1.2220 -0.5422  0.9402
  173SAPS    HY19643   5.790   1.285   2.670 -0.4421 -0.8345 -0.5167
  173SAPS   O3119644   5.680   1.284   2.855  0.1122  0.6383 -0.1335
  173SAPS   C3119645   5.783   1.323   2.920 -0.0149  0.0651 -0.9930
  173SAPS   O3219646   5.888   1.355   2.865 -0.5343  0.3830  0.2616
  173SAPS   C3219647   5.754   1.321   3.069  0.2600  0.3042 -0.3138
  173SAPS   H2X19648   5.695   1.229   3.087 -1.0294  1.2806  0.5707
  173SAPS   H2Y19649   5.690   1.407   3.097 -0.3303 -0.6729  1.4726
  173SAPS   C2319650   5.380   0.894   3.015  0.9530 -0.6477  0.7642
  173SAPS   H3R19651   5.432   0.795   3.021  0.7641 -0.9842 -1.9868
  173SAPS   H3S19652   5.276   0.857   3.003  1.3424 -1.0964 -1.8005
  173SAPS   C2419653   5.399   0.987   3.134  0.0704 -0.2182  0.5829
  173SAPS   H4R19654   5.352   1.087   3.123  1.3205  0.3213 -0.0768
  173SAPS   H4S19655   5.507   1.013   3.143  0.1257 -0.2598  0.0645
  173SAPS   C2519656   5.363   0.925   3.263  0.0568 -0.2421 -0.1458
  173SAPS   H5R19657   5.394   0.819   3.268  2.2503  0.3197 -0.4197
  173SAPS   C2619658   5.301   0.988   3.363  0.4770  0.8755 -0.0302
  173SAPS   H6R19659   5.273   0.929   3.452 -3.1230  1.2905 -0.7034
  173SAPS   C2719660   5.274   1.136   3.368  1.1842 -0.1250 -0.4414
  173SAPS   H7R19661   5.339   1.188   3.294  2.9837 -2.1815 -0.4126
  173SAPS   H7S19662   5.307   1.173   3.468 -0.1998 -0.5765  0.2098
  173SAPS   C2819663   5.128   1.180   3.360 -0.1932 -0.4326  0.1802
  173SAPS   H8R19664   5.086   1.190   3.259 -0.8437  4.4125  0.7048
  173SAPS   C2919665   5.042   1.166   3.462 -0.2701 -0.9709  0.8504
  173SAPS   H9R19666   4.938   1.196   3.443  0.3401  0.4581 -0.5256
  173SAPS  C21019667   5.070   1.138   3.609 -0.4847 -0.2654  0.6627
  173SAPS  H10R19668   5.069   1.236   3.661 -0.5933  0.0383  0.1031
  173SAPS  H10S19669   5.178   1.115   3.624 -0.2859 -0.5667 -1.0023
  173SAPS  C21119670   4.973   1.041   3.666 -0.0425 -0.1230 -0.4347
  173SAPS  H11R19671   4.890   1.001   3.605  2.2236 -1.7564 -2.6718
  173SAPS  C21219672   4.971   0.996   3.794  0.1521  0.7292  0.4414
  173SAPS  H12R19673   4.909   0.908   3.817  2.6720 -1.3687 -0.3436
  173SAPS  C21319674   5.075   1.025   3.894  0.2400  0.0429 -0.2074
  173SAPS  H13R19675   5.178   1.041   3.855  0.0913  2.0153  0.1235
  173SAPS  H13S19676   5.085   0.929   3.949 -1.8371  0.0111  0.1812
  173SAPS  C21419677   5.020   1.129   3.995 -0.4185  0.1232  0.2026
  173SAPS  H14R19678   4.993   1.228   3.954  1.0930  0.8831  0.9832
  173SAPS  C21519679   5.003   1.111   4.129 -1.2448 -0.4157 -0.2407
  173SAPS  H15R19680   4.975   1.199   4.189 -0.6973  0.0754 -0.6887
  173SAPS  C21619681   5.023   0.987   4.213  0.6703  0.4721 -0.1387
  173SAPS  H16R19682   5.042   1.010   4.320  1.2729  0.6880 -0.2845
  173SAPS  H16S19683   5.125   0.953   4.183  0.5231 -0.4332  0.3220
  173SAPS  C21719684   4.921   0.868   4.194 -0.1542 -0.1452 -0.5038
  173SAPS  H17R19685   4.932   0.799   4.281  0.8536  1.8417  1.0383
  173SAPS  H17S19686   4.933   0.820   4.094 -1.2935  0.1904 -0.8145
  173SAPS  C21819687   4.776   0.915   4.215 -1.0639 -0.2913  0.1100
  173SAPS  H18R19688   4.747   0.987   4.135  0.5870  0.5505  0.2291
  173SAPS  H18S19689   4.753   0.971   4.308  0.3992  2.1276 -0.8874
  173SAPS  C21919690   4.673   0.809   4.201  1.1552  0.0181 -0.0541
  173SAPS  H19R19691   4.704   0.728   4.270  0.7009  0.9956  1.3387
  173SAPS  H19S19692   4.667   0.770   4.097  0.8995 -4.2051  1.3471
  173SAPS  C22019693   4.532   0.852   4.248 -0.9291  0.6127  0.3186
  173SAPS  H20R19694   4.490   0.933   4.184  1.2185  1.0760 -0.6009
  173SAPS  H20S19695   4.558   0.898   4.345 -0.1160  2.4694 -0.7111
  173SAPS  H20T19696   4.461   0.767   4.256  0.4911 -0.8286 -1.3346
  173SAPS   C3319697   5.885   1.316   3.155 -0.5659 -0.6261 -0.5709
  173SAPS   H3X19698   5.935   1.414   3.144  0.4460 -1.1705 -0.9719
  173SAPS   H3Y19699   5.962   1.246   3.117 -0.5503 -1.8176  1.4705
  173SAPS   C3419700   5.857   1.269   3.304 -0.0404 -0.2876  0.5543
  173SAPS   H4X19701   5.943   1.287   3.373 -1.4907 -0.5197  2.4812
  173SAPS   H4Y19702   5.827   1.163   3.315 -0.1519 -0.2698  0.4124
  173SAPS   C3519703   5.743   1.349   3.362  0.2466  0.2669 -0.4799
  173SAPS   H5X19704   5.647   1.334   3.308 -0.5247  0.1521  0.8522
  173SAPS   H5Y19705   5.754   1.458   3.339 -3.5102  1.1049  0.8321
  173SAPS   C3619706   5.717   1.346   3.508  0.5427  0.2504  0.4876
  173SAPS   H6X19707   5.661   1.439   3.532 -0.4598  0.2606 -1.5833
  173SAPS   H6Y19708   5.810   1.348   3.568  2.2510 -1.2434 -1.9489
  173SAPS   C3719709   5.626   1.228   3.544  0.0300  0.3240  0.4272
  173SAPS   H7X19710   5.666   1.132   3.503 -1.9650  0.2444 -1.5521
  173SAPS   H7Y19711   5.534   1.227   3.481  1.2818  0.3617 -1.4869
  173SAPS   C3819712   5.582   1.220   3.691  0.1749 -0.4842 -0.3268
  173SAPS   H8X19713   5.517   1.308   3.711  3.2633  2.1088 -0.8532
  173SAPS   H8Y19714   5.671   1.237   3.755  1.2155 -1.4590 -1.4616
  173SAPS   C3919715   5.512   1.091   3.738 -0.0407 -0.0316  0.1446
  173SAPS   H9X19716   5.581   1.014   3.695 -0.9861  0.0374 -1.6043
  173SAPS   H9Y19717   5.419   1.057   3.687  1.5445 -3.7853 -0.6447
  173SAPS  C31019718   5.498   1.091   3.892 -0.4799  0.5561 -0.3261
  173SAPS  H10X19719   5.596   1.072   3.941 -1.8828 -0.6071  2.2200
  173SAPS  H10Y19720   5.432   1.005   3.915 -0.6340  0.5441 -0.8059
  173SAPS  C31119721   5.427   1.218   3.951 -0.2588 -0.2116 -0.0778
  173SAPS  H11X19722   5.346   1.235   3.877  0.6046 -0.0122 -1.0105
  173SAPS  H11Y19723   5.498   1.304   3.943  0.3993 -0.6665  0.7640
  173SAPS  C31219724   5.397   1.204   4.105 -0.1943 -0.2848  0.1139
  173SAPS  H12X19725   5.499   1.197   4.147 -0.4734 -0.8346  0.7242
  173SAPS  H12Y19726   5.345   1.108   4.128 -1.6138  0.2141 -0.8546
  173SAPS  C31319727   5.331   1.330   4.166  0.0308  0.3718  0.5816
  173SAPS  H13X19728   5.229   1.352   4.128  0.0944 -0.7589 -0.3009
  173SAPS  H13Y19729   5.380   1.421   4.125 -0.4997 -0.2229 -1.5280
  173SAPS  C31419730   5.338   1.327   4.319  0.3295 -0.5845  0.2447
  173SAPS  H14X19731   5.436   1.293   4.359 -0.2090  0.1601  2.3435
  173SAPS  H14Y19732   5.268   1.248   4.356 -1.0238  0.9172  1.0182
  173SAPS  C31519733   5.295   1.464   4.375 -0.2938  1.1045 -0.3563
  173SAPS  H15X19734   5.224   1.446   4.459 -0.8286  2.4688 -0.4781
  173SAPS  H15Y19735   5.234   1.519   4.300  0.0549  1.7931 -0.1454
  173SAPS  C31619736   5.411   1.545   4.435  0.0289 -0.1531  0.0387
  173SAPS  H16X19737   5.446   1.604   4.347 -0.4730 -0.5228 -0.4155
  173SAPS  H16Y19738   5.491   1.481   4.479 -0.5273 -2.0200 -1.5282
  173SAPS  C31719739   5.359   1.651   4.535 -0.3623  0.1087 -0.4418
  173SAPS  H17X19740   5.453   1.708   4.555 -1.1329  1.1928  0.2274
  173SAPS  H17Y19741   5.322   1.612   4.632 -2.1573 -0.0392 -1.1442
  173SAPS  C31819742   5.257   1.755   4.492 -0.0425 -0.9531  0.8451
  173SAPS  H18X19743   5.257   1.844   4.558 -0.5980 -0.5336  0.2942
  173SAPS  H18Y19744   5.157   1.707   4.496 -0.1524 -0.8165  0.0207
  173SAPS  H18Z19745   5.279   1.792   4.389 -1.9738  1.6079  1.2518
  174SAPS     N19746   3.561   6.186   2.631  0.1416 -0.5497 -0.2402
  174SAPS   HN119747   3.647   6.178   2.572 -0.4486 -1.7498 -0.9802
  174SAPS   HN219748   3.551   6.284   2.662 -1.1305 -0.8843  0.4874
  174SAPS   HN319749   3.578   6.127   2.715 -1.6964 -0.9471 -0.1020
  174SAPS   C1219750   3.433   6.132   2.582 -0.2581  0.3799  0.5542
  174SAPS  H12A19751   3.360   6.123   2.661 -0.0633 -1.1948  0.5983
  174SAPS   C1319752   3.382   6.228   2.467  0.2839  0.1076  0.0761
  174SAPS  O13A19753   3.437   6.338   2.443  0.1096  0.4014 -0.3725
  174SAPS  O13B19754   3.277   6.197   2.410  0.0711  0.4125  0.0034
  174SAPS   C1119755   3.450   5.989   2.523 -0.0521  0.5165 -0.0767
  174SAPS  H11A19756   3.515   5.981   2.434 -1.0518 -0.9166 -0.7187
  174SAPS  H11B19757   3.347   5.953   2.501 -0.6264  1.0660  1.5545
  174SAPS     P19758   3.516   5.747   2.611  0.3962 -0.0950  0.2567
  174SAPS   O1319759   3.459   5.701   2.477 -0.0338  0.0802  0.5869
  174SAPS   O1419760   3.645   5.696   2.646 -0.4981 -0.4550  0.0735
  174SAPS   O1219761   3.508   5.901   2.623 -0.2511  0.3051  0.0384
  174SAPS   O1119762   3.406   5.701   2.718 -0.5941  0.0582 -0.1035
  174SAPS    C119763   3.436   5.663   2.854  0.5298  0.0408  0.1955
  174SAPS    HA19764   3.342   5.614   2.886 -0.1663  1.6934  0.7823
  174SAPS    HB19765   3.513   5.583   2.864 -0.7258 -0.9796  2.4866
  174SAPS    C219766   3.445   5.784   2.953  0.3119  0.9093 -0.1605
  174SAPS    HS19767   3.516   5.854   2.904  0.5232  0.6002 -0.2951
  174SAPS   O2119768   3.490   5.747   3.083  0.4878 -0.7636 -0.9107
  174SAPS   C2119769   3.558   5.841   3.149 -0.1486 -0.0418 -0.0700
  174SAPS   O2219770   3.604   5.941   3.098 -0.7093 -0.1082 -0.0651
  174SAPS   C2219771   3.580   5.793   3.292  0.7384 -0.2087  0.2563
  174SAPS   H2R19772   3.483   5.763   3.337  1.4468 -2.7146  0.2418
  174SAPS   H2S19773   3.641   5.702   3.275 -3.1708 -3.2333  1.0792
  174SAPS    C319774   3.304   5.847   2.958  0.1861 -0.4761 -0.6372
  174SAPS    HX19775   3.242   5.777   3.019  2.5095 -1.5405  0.6357
  174SAPS    HY19776   3.265   5.865   2.855 -0.6831 -1.0209 -0.4201
  174SAPS   O3119777   3.313   5.968   3.039  0.5830 -0.1658  0.4137
  174SAPS   C3119778   3.307   6.085   2.974  0.3332 -0.4970  0.5881
  174SAPS   O3219779   3.285   6.092   2.856 -0.2022 -0.1961  0.1268
  174SAPS   C3219780   3.325   6.196   3.074  0.9499  0.4525  0.1900
  174SAPS   H2X19781   3.433   6.204   3.099  0.6032 -0.2729  2.1572
  174SAPS   H2Y19782   3.266   6.166   3.163  1.1075  1.1324  0.5279
  174SAPS   C2319783   3.662   5.884   3.386 -0.1170 -0.3047 -0.6495
  174SAPS   H3R19784   3.757   5.916   3.337 -0.9378  0.2061 -1.9708
  174SAPS   H3S19785   3.706   5.831   3.473  1.7724 -1.0198 -1.9684
  174SAPS   C2419786   3.572   5.996   3.445  0.3535 -0.3612 -0.6676
  174SAPS   H4R19787   3.589   5.995   3.555  1.4821 -0.2642 -0.8270
  174SAPS   H4S19788   3.464   5.971   3.438 -0.0770  1.0186  0.4130
  174SAPS   C2519789   3.600   6.135   3.395  0.1106  0.5013  0.1417
  174SAPS   H5R19790   3.575   6.147   3.288 -2.6009 -0.2960  0.5994
  174SAPS   C2619791   3.656   6.235   3.469  0.9834 -0.2491  0.5796
  174SAPS   H6R19792   3.663   6.335   3.424 -1.3143  0.0107  0.6720
  174SAPS   C2719793   3.690   6.238   3.619  0.1671 -0.4062  0.7817
  174SAPS   H7R19794   3.755   6.150   3.637  1.7494  0.5147 -0.1743
  174SAPS   H7S19795   3.594   6.234   3.675  0.3584  3.7652  1.7258
  174SAPS   C2819796   3.773   6.359   3.651  0.3886  0.5667  0.7448
  174SAPS   H8R19797   3.856   6.377   3.581 -1.8722 -1.8881 -2.9320
  174SAPS   C2919798   3.751   6.444   3.752 -0.8667  0.1424 -0.5827
  174SAPS   H9R19799   3.818   6.531   3.755  0.3499 -0.7936  1.8032
  174SAPS  C21019800   3.643   6.442   3.860 -0.2493  0.5900  0.1239
  174SAPS  H10R19801   3.601   6.341   3.878  0.4797  0.0269 -1.1922
  174SAPS  H10S19802   3.561   6.504   3.818  0.8431  2.4486  0.6481
  174SAPS  C21119803   3.694   6.507   3.986 -0.6609  0.1328  0.2913
  174SAPS  H11R19804   3.800   6.536   3.980 -0.5297 -0.0764  1.4121
  174SAPS  C21219805   3.634   6.524   4.106  0.2769 -0.7015 -0.5376
  174SAPS  H12R19806   3.687   6.574   4.188  1.7583 -2.4339 -0.3650
  174SAPS  C21319807   3.492   6.476   4.135  0.1521 -0.5330  0.6414
  174SAPS  H13R19808   3.504   6.382   4.193 -1.2899 -1.7588 -0.9701
  174SAPS  H13S19809   3.440   6.443   4.042  3.6727 -1.0622 -1.3163
  174SAPS  C21419810   3.422   6.570   4.238 -0.0150  0.5423 -0.0840
  174SAPS  H14R19811   3.402   6.669   4.195  0.1840  0.1565 -1.1187
  174SAPS  C21519812   3.405   6.547   4.366 -0.9921 -0.7789  0.2245
  174SAPS  H15R19813   3.356   6.619   4.433  0.2348 -1.5009  1.9652
  174SAPS  C21619814   3.436   6.423   4.442  0.0816  0.5077  0.1331
  174SAPS  H16R19815   3.502   6.462   4.522  1.0118 -0.4750 -0.1257
  174SAPS  H16S19816   3.496   6.351   4.382 -0.2637  0.7655 -0.5282
  174SAPS  C21719817   3.316   6.333   4.490 -0.0308  0.2843  0.3955
  174SAPS  H17R19818   3.364   6.253   4.552  0.3931  0.2798  0.0617
  174SAPS  H17S19819   3.258   6.287   4.408 -0.6360  2.3644 -0.3995
  174SAPS  C21819820   3.210   6.402   4.578 -0.1173 -0.1658  0.2719
  174SAPS  H18R19821   3.147   6.469   4.516  0.4101 -1.1834 -1.4387
  174SAPS  H18S19822   3.259   6.466   4.655  2.0025 -2.5782  1.0726
  174SAPS  C21919823   3.114   6.301   4.644 -1.2246 -0.5756  0.0501
  174SAPS  H19R19824   3.150   6.253   4.737 -1.3750  0.0658  0.4509
  174SAPS  H19S19825   3.089   6.227   4.566 -1.6620 -1.1814  0.7555
  174SAPS  C22019826   2.981   6.366   4.678 -0.5930 -0.1858  0.3853
  174SAPS  H20R19827   2.994   6.451   4.749  4.6576 -0.5608  0.2293
  174SAPS  H20S19828   2.918   6.300   4.742  0.2472 -1.0597  0.3278
  174SAPS  H20T19829   2.909   6.401   4.601 -1.2460 -2.5410 -0.1555
  174SAPS   C3319830   3.280   6.338   3.026  1.2105 -0.1717  0.1346
  174SAPS   H3X19831   3.178   6.335   2.981  1.5488 -0.8911 -0.6162
  174SAPS   H3Y19832   3.351   6.371   2.947  2.2533  3.7987  2.4316
  174SAPS   C3419833   3.278   6.456   3.123 -0.3597  0.3394 -0.4465
  174SAPS   H4X19834   3.214   6.437   3.212 -0.2039 -0.1478 -0.4382
  174SAPS   H4Y19835   3.236   6.536   3.058 -0.7317  0.2281 -0.3472
  174SAPS   C3519836   3.415   6.499   3.177  1.0098  0.5210 -0.5092
  174SAPS   H5X19837   3.473   6.548   3.097 -0.1051  0.7047 -1.2234
  174SAPS   H5Y19838   3.484   6.417   3.206  1.6453  0.3905 -2.3153
  174SAPS   C3619839   3.395   6.609   3.282 -0.6184 -0.6699 -0.2871
  174SAPS   H6X19840   3.358   6.575   3.381 -1.0655 -1.0946 -0.5970
  174SAPS   H6Y19841   3.331   6.694   3.248  2.4109  1.3975 -1.2461
  174SAPS   C3719842   3.537   6.680   3.307 -0.6601 -0.1313 -0.8372
  174SAPS   H7X19843   3.581   6.705   3.208  0.8654  0.7640  0.0325
  174SAPS   H7Y19844   3.606   6.603   3.347 -0.7889  0.4098  0.4741
  174SAPS   C3819845   3.537   6.806   3.394  0.0295  0.1201 -0.0191
  174SAPS   H8X19846   3.453   6.876   3.374 -0.1867  0.4112  1.7213
  174SAPS   H8Y19847   3.629   6.866   3.382 -0.5873  0.9616 -0.6635
  174SAPS   C3919848   3.537   6.787   3.547  0.6534 -0.2850  0.0575
  174SAPS   H9X19849   3.560   6.882   3.601  1.1620 -0.0062 -0.6342
  174SAPS   H9Y19850   3.609   6.708   3.577 -2.3013 -3.5452 -0.8629
  174SAPS  C31019851   3.401   6.731   3.592 -0.4896 -0.7051  0.4670
  174SAPS  H10X19852   3.393   6.624   3.565  0.6757 -0.7760  0.3344
  174SAPS  H10Y19853   3.315   6.784   3.546  1.9040  2.2984 -0.9482
  174SAPS  C31119854   3.400   6.722   3.744  0.2797 -0.6895 -0.4350
  174SAPS  H11X19855   3.502   6.702   3.784  0.2586  1.1181  0.6091
  174SAPS  H11Y19856   3.337   6.638   3.781  0.5540 -0.7145 -0.0225
  174SAPS  C31219857   3.354   6.852   3.809 -0.4970  0.3177  0.7627
  174SAPS  H12X19858   3.248   6.875   3.782 -0.3377 -0.8290 -0.9426
  174SAPS  H12Y19859   3.429   6.929   3.783 -0.2977  0.1750  0.9188
  174SAPS  C31319860   3.345   6.838   3.962  0.1319 -0.5686 -0.3718
  174SAPS  H13X19861   3.435   6.784   4.000 -0.7337  0.3811  3.4820
  174SAPS  H13Y19862   3.257   6.772   3.978 -1.7779  2.0090  0.3303
  174SAPS  C31419863   3.323   6.973   4.036 -0.4137  0.4548 -0.7387
  174SAPS  H14X19864   3.276   6.960   4.136 -1.5097 -0.2644 -1.3274
  174SAPS  H14Y19865   3.252   7.026   3.969  0.7967  2.3148 -0.6201
  174SAPS  C31519866   3.461   7.039   4.055 -0.1458  0.3815 -0.3159
  174SAPS  H15X19867   3.451   7.150   4.058 -0.9909  0.2904  1.1267
  174SAPS  H15Y19868   3.526   7.025   3.966  0.1736 -0.2717  0.0161
  174SAPS  C31619869   3.540   6.990   4.186 -0.3672 -0.3985  1.3317
  174SAPS  H16X19870   3.634   7.049   4.193 -0.5224 -0.1948  1.7661
  174SAPS  H16Y19871   3.558   6.881   4.187  0.5518 -0.2852 -0.2479
  174SAPS  C31719872   3.460   7.033   4.304 -0.3048 -0.4144 -0.0323
  174SAPS  H17X19873   3.361   6.984   4.313 -0.9227  1.0209  1.6243
  174SAPS  H17Y19874   3.435   7.141   4.306  1.6195  0.0674  0.1255
  174SAPS  C31819875   3.553   7.008   4.431  0.7490 -0.1298 -0.0674
  174SAPS  H18X19876   3.489   6.998   4.521 -1.1847 -0.4682 -1.4133
  174SAPS  H18Y19877   3.634   7.083   4.441  0.9088 -0.4062  0.7689
  174SAPS  H18Z19878   3.598   6.908   4.414 -0.4819 -0.6219 -0.5686
  175SAPS     N19879   6.809   5.561   2.428 -0.2535  0.1699  0.0979
  175SAPS   HN119880   6.850   5.567   2.524 -0.5935  1.2412  0.1868
  175SAPS   HN219881   6.886   5.590   2.364 -0.8141  1.4800 -0.0053
  175SAPS   HN319882   6.723   5.618   2.421 -1.1528 -1.1429  0.1532
  175SAPS   C1219883   6.774   5.413   2.416 -1.2252  0.4032 -0.5107
  175SAPS  H12A19884   6.729   5.385   2.510  1.4215 -0.9288  0.4741
  175SAPS   C1319885   6.685   5.372   2.299  0.3815 -0.3598  0.2377
  175SAPS  O13A19886   6.658   5.456   2.210  0.2168  0.1710  0.5519
  175SAPS  O13B19887   6.653   5.249   2.288 -0.0635 -0.1607  0.3319
  175SAPS   C1119888   6.912   5.328   2.408  0.0875 -0.3036  0.7339
  175SAPS  H11A19889   6.966   5.356   2.315 -1.9573 -0.7737 -0.6598
  175SAPS  H11B19890   6.895   5.219   2.397 -1.9539  0.0789 -0.2649
  175SAPS     P19891   7.072   5.250   2.613  0.1559 -0.0615 -0.2065
  175SAPS   O1319892   6.961   5.166   2.658 -0.3179 -0.4566 -0.0124
  175SAPS   O1419893   7.191   5.183   2.543  0.4745 -0.6927 -0.4074
  175SAPS   O1219894   7.003   5.357   2.514  0.6888 -0.4868 -0.8024
  175SAPS   O1119895   7.114   5.334   2.735  0.3171 -0.2165  0.2474
  175SAPS    C119896   7.177   5.271   2.844 -0.1975 -0.2256  0.1129
  175SAPS    HA19897   7.263   5.207   2.815  0.8565  1.3199 -0.3030
  175SAPS    HB19898   7.230   5.350   2.901 -2.4675  0.5832  1.2244
  175SAPS    C219899   7.088   5.201   2.945 -0.3839 -0.3457 -0.1135
  175SAPS    HS19900   7.012   5.141   2.891 -1.8670 -0.1660  1.6704
  175SAPS   O2119901   7.019   5.305   3.014 -0.0155 -0.3592  0.3337
  175SAPS   C2119902   6.907   5.264   3.064  0.2601  0.1582 -0.4037
  175SAPS   O2219903   6.861   5.149   3.055  0.2658 -0.3238 -0.1330
  175SAPS   C2219904   6.865   5.387   3.152  0.9595 -0.1840 -0.8894
  175SAPS   H2R19905   6.931   5.395   3.240 -1.2400  1.1367  0.7461
  175SAPS   H2S19906   6.886   5.476   3.089 -1.4972  1.1053 -0.0344
  175SAPS    C319907   7.151   5.094   3.039 -0.2042  0.0317  0.0125
  175SAPS    HX19908   7.179   5.013   2.969 -0.5628 -1.1512  1.1811
  175SAPS    HY19909   7.079   5.037   3.103 -0.5751 -0.0971 -0.5160
  175SAPS   O3119910   7.270   5.153   3.095 -0.3079 -0.6557 -0.3697
  175SAPS   C3119911   7.256   5.179   3.223  0.2100 -0.5073 -0.1735
  175SAPS   O3219912   7.151   5.175   3.284 -0.4806  0.7781 -0.3652
  175SAPS   C3219913   7.394   5.228   3.282  0.0820  0.0181  0.6592
  175SAPS   H2X19914   7.403   5.338   3.268  1.6449 -0.3888 -2.3514
  175SAPS   H2Y19915   7.472   5.179   3.220  1.1322  0.9700  1.1927
  175SAPS   C2319916   6.720   5.373   3.203  0.6771  0.6417 -0.1631
  175SAPS   H3R19917   6.720   5.342   3.310  0.4930  0.1280 -0.3092
  175SAPS   H3S19918   6.660   5.291   3.159  0.0610  1.2531 -0.4888
  175SAPS   C2419919   6.630   5.502   3.190 -0.2942  0.6065  0.2876
  175SAPS   H4R19920   6.535   5.464   3.233 -0.8780  0.9348 -0.6713
  175SAPS   H4S19921   6.619   5.506   3.079  0.5720 -2.8871 -0.0697
  175SAPS   C2519922   6.687   5.625   3.256  0.1204 -0.7020 -0.4990
  175SAPS   H5R19923   6.720   5.702   3.185 -0.1880 -0.2732 -0.1843
  175SAPS   C2619924   6.705   5.648   3.385 -0.4510  0.3163  0.9142
  175SAPS   H6R19925   6.762   5.734   3.423 -1.8647  1.0179  1.5189
  175SAPS   C2719926   6.654   5.567   3.497 -0.1434  0.2659  0.4068
  175SAPS   H7R19927   6.633   5.463   3.465  4.4049 -0.2958 -1.5886
  175SAPS   H7S19928   6.565   5.619   3.538 -0.4514  1.3776 -1.5346
  175SAPS   C2819929   6.753   5.555   3.610 -0.4000 -0.8073  0.5477
  175SAPS   H8R19930   6.845   5.500   3.584  1.4527  2.9877 -1.8644
  175SAPS   C2919931   6.746   5.632   3.719 -0.0977 -1.4368  0.1592
  175SAPS   H9R19932   6.823   5.623   3.797 -0.5167  1.5445  1.0351
  175SAPS  C21019933   6.631   5.727   3.766  0.3379 -0.3373 -0.2021
  175SAPS  H10R19934   6.602   5.700   3.870 -0.9705 -3.2741 -1.2290
  175SAPS  H10S19935   6.539   5.706   3.707  0.6416 -1.7366 -0.1930
  175SAPS  C21119936   6.669   5.874   3.751  0.1178 -0.0724 -0.8407
  175SAPS  H11R19937   6.654   5.922   3.653 -2.1387  0.9134 -0.0782
  175SAPS  C21219938   6.713   5.943   3.860  0.2728  0.4165  0.1532
  175SAPS  H12R19939   6.765   6.039   3.849  0.5307  0.6031  2.4951
  175SAPS  C21319940   6.732   5.887   4.003  0.0191  0.0163 -0.0745
  175SAPS  H13R19941   6.828   5.932   4.036  0.0623  0.0066 -0.1853
  175SAPS  H13S19942   6.758   5.780   3.989 -1.1342 -0.3028  0.0849
  175SAPS  C21419943   6.618   5.891   4.102  0.6934 -0.4597 -0.0182
  175SAPS  H14R19944   6.519   5.881   4.056  0.7471  0.9658 -0.4805
  175SAPS  C21519945   6.629   5.911   4.233  0.4133  0.7970 -0.3135
  175SAPS  H15R19946   6.543   5.910   4.301  1.6721  2.6369  1.4146
  175SAPS  C21619947   6.759   5.932   4.305  0.0004  0.7601  0.0069
  175SAPS  H16R19948   6.816   6.019   4.267  2.5235 -1.1357 -0.7857
  175SAPS  H16S19949   6.823   5.842   4.310  0.8538  1.4137  3.0486
  175SAPS  C21719950   6.732   5.964   4.453  0.5705 -0.3158  0.1753
  175SAPS  H17R19951   6.648   6.036   4.461  1.5699  1.3063 -2.5426
  175SAPS  H17S19952   6.815   6.003   4.515 -1.3802 -2.6956  4.7494
  175SAPS  C21819953   6.674   5.846   4.541  0.4187  0.2404  0.4757
  175SAPS  H18R19954   6.747   5.763   4.532  1.5901  1.1777  0.9907
  175SAPS  H18S19955   6.587   5.805   4.486  0.8296  0.5616 -0.4311
  175SAPS  C21919956   6.646   5.896   4.690 -0.0779 -0.3089  0.2234
  175SAPS  H19R19957   6.575   5.981   4.681  0.0238 -0.3657 -1.4743
  175SAPS  H19S19958   6.728   5.951   4.741 -1.3274  1.8026  0.0845
  175SAPS  C22019959   6.598   5.782   4.776  0.1122  0.7214 -0.1643
  175SAPS  H20R19960   6.672   5.700   4.776  0.2334  0.8302 -0.0772
  175SAPS  H20S19961   6.501   5.751   4.731 -0.5579 -0.4609  1.9305
  175SAPS  H20T19962   6.578   5.818   4.880  0.3298 -0.5716  0.3507
  175SAPS   C3319963   7.450   5.170   3.419  0.0837  0.0310  0.4114
  175SAPS   H3X19964   7.383   5.213   3.496 -2.8246 -0.6550 -1.5880
  175SAPS   H3Y19965   7.555   5.204   3.434  0.1637 -0.9586  2.3628
  175SAPS   C3419966   7.464   5.013   3.433  0.5706 -0.6051  0.1423
  175SAPS   H4X19967   7.495   4.970   3.336  0.1349 -0.1985 -0.1842
  175SAPS   H4Y19968   7.356   4.986   3.434  0.5904 -0.7446 -0.8430
  175SAPS   C3519969   7.555   4.968   3.540 -0.2229  0.5475  0.0993
  175SAPS   H5X19970   7.533   5.018   3.637  2.1229  0.0275  0.9644
  175SAPS   H5Y19971   7.652   5.013   3.511  0.5730 -0.5512  0.9889
  175SAPS   C3619972   7.568   4.823   3.565  0.9719 -0.0897 -0.1421
  175SAPS   H6X19973   7.581   4.758   3.477 -2.1035 -3.2516  1.4742
  175SAPS   H6Y19974   7.465   4.795   3.594  0.1377  1.1714 -1.7039
  175SAPS   C3719975   7.664   4.774   3.680  0.0562 -0.0738  0.5071
  175SAPS   H7X19976   7.761   4.761   3.627 -0.5909  0.3005 -0.7989
  175SAPS   H7Y19977   7.622   4.678   3.717  0.9541  0.1179  2.1162
  175SAPS   C3819978   7.660   4.863   3.801 -0.0991  0.6012  0.5861
  175SAPS   H8X19979   7.560   4.867   3.849 -0.1410 -1.1664  0.7163
  175SAPS   H8Y19980   7.696   4.964   3.772  2.0319 -0.2541  0.0523
  175SAPS   C3919981   7.752   4.811   3.910 -0.0652 -0.2499 -0.2946
  175SAPS   H9X19982   7.856   4.815   3.869  0.0759 -1.2378 -0.0600
  175SAPS   H9Y19983   7.729   4.702   3.921  4.4323 -1.5533 -1.5565
  175SAPS  C31019984   7.739   4.893   4.039  0.4036  0.1620  0.0859
  175SAPS  H10X19985   7.674   4.980   4.015  2.2377  1.1860 -1.4840
  175SAPS  H10Y19986   7.840   4.923   4.074  0.5532  0.2590 -0.4165
  175SAPS  C31119987   7.667   4.816   4.152  0.1297 -0.0550  0.6008
  175SAPS  H11X19988   7.575   4.765   4.116 -0.7866  2.4860 -0.8719
  175SAPS  H11Y19989   7.629   4.871   4.241 -0.0093 -1.6635  1.5657
  175SAPS  C31219990   7.754   4.700   4.210 -0.3758 -0.9087 -0.2804
  175SAPS  H12X19991   7.862   4.719   4.229 -0.6614 -1.7019  2.5430
  175SAPS  H12Y19992   7.749   4.620   4.133 -1.0971 -2.5550  1.3938
  175SAPS  C31319993   7.698   4.634   4.335  0.5784 -0.2387  0.0327
  175SAPS  H13X19994   7.698   4.524   4.321 -0.7489 -0.3536  0.7315
  175SAPS  H13Y19995   7.592   4.668   4.340  1.2072  2.0661 -0.7123
  175SAPS  C31419996   7.778   4.679   4.458  0.6701 -0.1854  0.5502
  175SAPS  H14X19997   7.773   4.790   4.450 -1.9487 -0.2472  0.4190
  175SAPS  H14Y19998   7.886   4.658   4.440  0.1162 -0.7513 -2.5776
  175SAPS  C31519999   7.726   4.622   4.582  0.6081  0.3698 -0.6487
  175SAPS  H15X20000   7.728   4.511   4.588 -0.0256  0.3905  0.3559
  175SAPS  H15Y20001   7.619   4.650   4.593 -0.0008 -0.8033 -3.0918
  175SAPS  C31620002   7.799   4.672   4.709 -0.0024 -0.4819  0.7514
  175SAPS  H16X20003   7.788   4.783   4.706  1.0953 -0.3758 -1.3478
  175SAPS  H16Y20004   7.905   4.641   4.692 -0.2637 -0.4985 -1.0745
  175SAPS  C31720005   7.740   4.624   4.842 -0.5660 -0.0287 -0.3842
  175SAPS  H17X20006   7.734   4.515   4.820  2.1540  0.0911 -2.0966
  175SAPS  H17Y20007   7.631   4.649   4.846 -0.8056 -1.0440 -0.3181
  175SAPS  C31820008   7.823   4.643   4.967  0.8618  0.0553  0.1050
  175SAPS  H18X20009   7.787   4.743   4.998 -0.4085 -0.9750  2.1526
  175SAPS  H18Y20010   7.934   4.642   4.955  1.1263 -1.3199  2.2350
  175SAPS  H18Z20011   7.799   4.583   5.057  1.7186  2.7079  2.2344
  176SAPS     N20012   6.412   1.693   2.503 -0.1973 -0.4853 -0.4691
  176SAPS   HN120013   6.491   1.715   2.567 -1.3227 -0.3652  0.9357
  176SAPS   HN220014   6.327   1.705   2.562  1.1144  0.9404  1.2664
  176SAPS   HN320015   6.415   1.592   2.480  2.8100  0.0271 -3.1109
  176SAPS   C1220016   6.413   1.767   2.373 -0.6819  0.3091 -0.1035
  176SAPS  H12A20017   6.407   1.867   2.411  0.8133 -0.0674  1.2223
  176SAPS   C1320018   6.543   1.761   2.297 -0.0588  0.2122 -0.1474
  176SAPS  O13A20019   6.631   1.676   2.330  0.1654  0.1981 -0.0201
  176SAPS  O13B20020   6.557   1.827   2.188  0.2654 -0.3381 -0.1710
  176SAPS   C1120021   6.278   1.727   2.288 -0.8301  0.3726 -0.0858
  176SAPS  H11A20022   6.287   1.623   2.250 -1.3088  1.0697 -2.2488
  176SAPS  H11B20023   6.276   1.780   2.190 -0.4877  0.5081 -0.0216
  176SAPS     P20024   6.072   1.873   2.370  0.4887  0.0016  0.3462
  176SAPS   O1320025   6.171   1.977   2.401  0.0206  0.2312 -0.1476
  176SAPS   O1420026   5.989   1.887   2.246 -0.1105 -0.3674  0.1103
  176SAPS   O1220027   6.155   1.741   2.361  0.2680  0.2938 -0.2181
  176SAPS   O1120028   5.977   1.852   2.504 -0.0509 -0.2457 -0.1045
  176SAPS    C120029   6.046   1.794   2.612 -0.5944  0.2080 -0.2076
  176SAPS    HA20030   6.091   1.695   2.589  0.4412  0.7430 -0.5478
  176SAPS    HB20031   6.115   1.872   2.651 -1.2636  0.7183 -0.0127
  176SAPS    C220032   5.951   1.754   2.731  0.8820 -0.4849  0.5556
  176SAPS    HS20033   5.879   1.683   2.685  0.4512 -0.2081  0.7918
  176SAPS   O2120034   5.886   1.871   2.788 -0.2508  0.1117  0.2734
  176SAPS   C2120035   5.777   1.845   2.861 -0.4099 -0.5607  0.3108
  176SAPS   O2220036   5.728   1.738   2.879  0.0390  0.0881 -0.3775
  176SAPS   C2220037   5.724   1.976   2.910  0.4497  0.2469 -0.8645
  176SAPS   H2R20038   5.768   2.069   2.869 -0.8201  1.8854  1.2671
  176SAPS   H2S20039   5.618   1.988   2.880  0.1099  0.6848  0.4562
  176SAPS    C320040   6.036   1.691   2.852 -0.2136 -0.6660  0.0312
  176SAPS    HX20041   6.082   1.597   2.815  1.9284  0.2029  0.3875
  176SAPS    HY20042   5.968   1.656   2.933 -1.2994  0.7668 -0.2123
  176SAPS   O3120043   6.134   1.772   2.909 -0.3127  0.2176  0.4657
  176SAPS   C3120044   6.266   1.771   2.866  0.4637  0.0143  0.7941
  176SAPS   O3220045   6.304   1.721   2.761 -0.0203 -0.7221 -0.3590
  176SAPS   C3220046   6.368   1.829   2.966 -0.8340 -0.6772  0.6463
  176SAPS   H2X20047   6.433   1.895   2.905 -1.1410  0.6611  1.7104
  176SAPS   H2Y20048   6.421   1.745   3.015 -0.9238  0.1100  2.1587
  176SAPS   C2320049   5.733   1.993   3.069 -0.3743 -0.7604 -0.1769
  176SAPS   H3R20050   5.684   2.091   3.084  2.5778  0.5424  2.0015
  176SAPS   H3S20051   5.842   2.008   3.086 -0.5549  1.3653 -0.6643
  176SAPS   C2420052   5.666   1.898   3.166  0.1688  0.1033  0.3549
  176SAPS   H4R20053   5.676   1.953   3.262 -0.6273  0.2717  0.3515
  176SAPS   H4S20054   5.722   1.802   3.165 -0.2728 -0.1623 -1.0133
  176SAPS   C2520055   5.512   1.881   3.144 -0.4622  0.0221 -0.7006
  176SAPS   H5R20056   5.457   1.947   3.075  0.9092 -0.0445 -1.9027
  176SAPS   C2620057   5.443   1.801   3.225  0.4495 -0.0039 -0.8937
  176SAPS   H6R20058   5.336   1.781   3.214  0.8281 -3.3369  0.4906
  176SAPS   C2720059   5.505   1.720   3.332  0.5324  0.2113 -0.3682
  176SAPS   H7R20060   5.464   1.758   3.428 -1.6783 -2.0129 -0.3345
  176SAPS   H7S20061   5.616   1.725   3.341  0.8387 -1.8310 -2.1292
  176SAPS   C2820062   5.470   1.576   3.320 -0.0475 -0.3004 -0.0482
  176SAPS   H8R20063   5.507   1.511   3.240 -0.3827 -0.1456 -0.3326
  176SAPS   C2920064   5.369   1.519   3.392 -0.6178 -0.2627  0.3036
  176SAPS   H9R20065   5.337   1.416   3.368 -0.7257 -0.1200 -0.1590
  176SAPS  C21020066   5.297   1.589   3.502  0.0182 -0.1636  0.6651
  176SAPS  H10R20067   5.215   1.644   3.452 -0.3013 -2.8078 -1.9915
  176SAPS  H10S20068   5.367   1.660   3.551  2.5772 -2.5447  0.7611
  176SAPS  C21120069   5.232   1.506   3.605 -0.1348 -0.0098 -0.4611
  176SAPS  H11R20070   5.179   1.415   3.574  0.0816 -0.5357  0.6683
  176SAPS  C21220071   5.229   1.531   3.734 -0.3417 -0.1516 -0.6319
  176SAPS  H12R20072   5.162   1.473   3.800  1.4979  0.1323  1.6203
  176SAPS  C21320073   5.289   1.649   3.806  0.8853 -0.1458  0.2821
  176SAPS  H13R20074   5.329   1.722   3.732  1.5945 -0.3931  0.4103
  176SAPS  H13S20075   5.376   1.602   3.856  0.3000 -1.3829  0.1937
  176SAPS  C21420076   5.182   1.709   3.896  0.5680  0.1293 -0.8779
  176SAPS  H14R20077   5.082   1.729   3.854 -0.2419 -0.1036  0.8637
  176SAPS  C21520078   5.206   1.750   4.021  0.0282  0.1099  0.4765
  176SAPS  H15R20079   5.118   1.778   4.080 -0.0942  0.9424 -0.0839
  176SAPS  C21620080   5.338   1.757   4.096 -0.4786 -0.1642  0.7186
  176SAPS  H16R20081   5.408   1.675   4.068 -0.8570 -0.1862 -0.1786
  176SAPS  H16S20082   5.318   1.743   4.205  1.5761 -1.3801  0.9989
  176SAPS  C21720083   5.421   1.884   4.073 -0.1704 -0.7048  0.2832
  176SAPS  H17R20084   5.435   1.902   3.964 -1.3935  1.6287  0.4346
  176SAPS  H17S20085   5.519   1.865   4.121  0.5995 -0.7896 -1.2358
  176SAPS  C21820086   5.359   2.013   4.138 -0.4917 -0.1795 -0.1072
  176SAPS  H18R20087   5.330   1.987   4.242  1.2182  2.2975  1.0781
  176SAPS  H18S20088   5.271   2.042   4.076  0.0061  1.1262 -0.2136
  176SAPS  C21920089   5.448   2.142   4.137 -0.3771  0.8318 -0.2388
  176SAPS  H19R20090   5.398   2.206   4.213  0.9610 -2.3300  3.7087
  176SAPS  H19S20091   5.455   2.187   4.036  2.6955  0.2852 -0.3720
  176SAPS  C22020092   5.599   2.128   4.169  0.6925  0.4994 -0.8949
  176SAPS  H20R20093   5.641   2.230   4.153 -0.0034  0.6001 -2.2785
  176SAPS  H20S20094   5.657   2.049   4.117  1.7080 -0.1851  1.1866
  176SAPS  H20T20095   5.611   2.098   4.275  0.2898 -0.5736 -1.1398
  176SAPS   C3320096   6.308   1.904   3.084 -0.5326  0.2204  0.8011
  176SAPS   H3X20097   6.248   1.834   3.146 -1.5243 -0.7926 -1.2121
  176SAPS   H3Y20098   6.232   1.974   3.045  0.3761  1.1419  0.6517
  176SAPS   C3420099   6.412   1.979   3.165 -0.3077 -0.0482 -0.3639
  176SAPS   H4X20100   6.419   2.088   3.142  0.4893  0.2021  0.9636
  176SAPS   H4Y20101   6.510   1.928   3.156 -0.0194  0.2949  0.6538
  176SAPS   C3520102   6.380   1.979   3.316 -0.4985 -0.0942 -0.2619
  176SAPS   H5X20103   6.353   1.874   3.338  2.0067 -1.2972 -2.3388
  176SAPS   H5Y20104   6.288   2.041   3.319 -0.5309 -0.1677  0.4029
  176SAPS   C3620105   6.497   2.032   3.397  0.8627  0.9670 -0.8563
  176SAPS   H6X20106   6.517   2.135   3.360 -1.0993  0.9022 -2.2198
  176SAPS   H6Y20107   6.587   1.970   3.377 -1.5066 -2.8059 -0.7456
  176SAPS   C3720108   6.464   2.029   3.549  0.2719  0.0269  0.1089
  176SAPS   H7X20109   6.359   2.054   3.575  0.0162 -1.0927  0.2227
  176SAPS   H7Y20110   6.539   2.098   3.594  0.0801  1.0121 -1.0452
  176SAPS   C3820111   6.485   1.891   3.610  0.2239 -0.0143 -0.9027
  176SAPS   H8X20112   6.590   1.855   3.605  1.3233  2.9170 -0.5655
  176SAPS   H8Y20113   6.414   1.821   3.561  0.2742 -1.9713  1.5983
  176SAPS   C3920114   6.442   1.881   3.763 -0.0172 -0.1910  0.0261
  176SAPS   H9X20115   6.494   1.965   3.813  2.2546 -0.3638 -1.8835
  176SAPS   H9Y20116   6.496   1.794   3.806 -1.8319 -1.3845  0.0198
  176SAPS  C31020117   6.294   1.874   3.804 -0.4321  0.5020  0.1643
  176SAPS  H10X20118   6.236   1.807   3.737  0.1399  1.5944 -1.5044
  176SAPS  H10Y20119   6.254   1.976   3.785  1.1102  0.9531 -0.8281
  176SAPS  C31120120   6.279   1.838   3.946 -0.3857 -0.3543 -0.7776
  176SAPS  H11X20121   6.348   1.900   4.007  0.0290 -1.7791  0.2598
  176SAPS  H11Y20122   6.321   1.739   3.974 -0.7056 -0.1549  0.4759
  176SAPS  C31220123   6.141   1.827   4.004 -0.1526 -0.4280  0.4198
  176SAPS  H12X20124   6.128   1.727   4.049  0.5163 -0.7298 -0.0478
  176SAPS  H12Y20125   6.071   1.826   3.917  1.6326 -0.0734 -1.0965
  176SAPS  C31320126   6.117   1.939   4.105  0.2734 -0.9593  0.2149
  176SAPS  H13X20127   6.125   2.037   4.053  0.5880 -1.1076 -0.0175
  176SAPS  H13Y20128   6.197   1.936   4.181 -0.4881 -0.6789  1.0438
  176SAPS  C31420129   5.983   1.910   4.185  0.7174  0.0730 -0.9994
  176SAPS  H14X20130   5.977   1.802   4.212 -0.3157  0.7688  1.9664
  176SAPS  H14Y20131   5.898   1.938   4.119 -1.6316 -2.5179  0.6707
  176SAPS  C31520132   5.962   1.997   4.312  1.0847 -0.5035 -0.6259
  176SAPS  H15X20133   5.951   2.105   4.290  2.9159  0.0218  0.8227
  176SAPS  H15Y20134   6.059   1.979   4.363  0.3166 -2.8513  0.1224
  176SAPS  C31620135   5.853   1.950   4.411 -0.2851  0.5094  0.2975
  176SAPS  H16X20136   5.892   1.871   4.479  0.7262 -0.4303 -1.3042
  176SAPS  H16Y20137   5.763   1.915   4.356  0.5189 -1.1051 -0.0612
  176SAPS  C31720138   5.806   2.056   4.512  0.7747  0.0738 -0.7074
  176SAPS  H17X20139   5.706   2.025   4.550  1.1650  0.0559  0.3369
  176SAPS  H17Y20140   5.797   2.155   4.462  1.1928  0.7417  0.5127
  176SAPS  C31820141   5.900   2.091   4.624 -0.5799 -0.1363  0.1467
  176SAPS  H18X20142   5.908   2.016   4.706 -0.1596 -2.5643 -2.0136
  176SAPS  H18Y20143   5.855   2.180   4.673 -0.6715 -1.4363  2.5795
  176SAPS  H18Z20144   6.002   2.116   4.588 -1.1202 -0.4282 -1.6949
  177SAPS     N20145   0.851   6.759   2.532 -0.0463  0.1155  0.6140
  177SAPS   HN120146   0.878   6.844   2.585  1.2878 -0.2697  0.5765
  177SAPS   HN220147   0.899   6.775   2.441  1.3179 -1.5125  0.9997
  177SAPS   HN320148   0.749   6.766   2.511  0.1128  0.8052  0.0326
  177SAPS   C1220149   0.901   6.635   2.594  0.2950 -0.3512  0.2444
  177SAPS  H12A20150   0.828   6.610   2.669 -1.2003  0.8396 -0.7550
  177SAPS   C1320151   0.910   6.514   2.498  0.5069 -0.7051 -0.2858
  177SAPS  O13A20152   0.857   6.501   2.385  0.9822  0.3612  0.2805
  177SAPS  O13B20153   0.947   6.405   2.557  0.4264 -0.1699  0.4307
  177SAPS   C1120154   1.048   6.662   2.661  0.4527 -0.7559  0.0588
  177SAPS  H11A20155   1.122   6.677   2.581 -0.0820 -0.2562 -0.3478
  177SAPS  H11B20156   1.077   6.568   2.713  0.1799 -0.8494  0.0460
  177SAPS     P20157   1.135   6.904   2.727  0.7475 -0.2870  0.6683
  177SAPS   O1320158   1.111   6.946   2.582 -0.2891 -0.3560 -0.4759
  177SAPS   O1420159   1.110   7.017   2.821 -0.3854  0.9838 -0.0125
  177SAPS   O1220160   1.047   6.774   2.751 -0.2128 -0.1406  0.4820
  177SAPS   O1120161   1.282   6.855   2.738 -0.1258 -0.4827  0.5583
  177SAPS    C120162   1.333   6.749   2.824 -0.1871  0.1320 -0.0011
  177SAPS    HA20163   1.272   6.658   2.810  0.0224  0.0548 -0.4133
  177SAPS    HB20164   1.427   6.720   2.773 -1.3698 -0.9390 -1.6314
  177SAPS    C220165   1.354   6.801   2.968  0.0060  0.0327 -0.2216
  177SAPS    HS20166   1.402   6.727   3.035 -2.3952 -1.2476  0.2003
  177SAPS   O2120167   1.231   6.845   3.020 -0.9242  0.1623 -0.1024
  177SAPS   C2120168   1.150   6.754   3.054  0.5372 -0.1933 -0.1369
  177SAPS   O2220169   1.172   6.635   3.061  0.2089  0.1824  0.4643
  177SAPS   C2220170   1.015   6.815   3.090 -0.1846  0.2081  0.1030
  177SAPS   H2R20171   1.000   6.909   3.033 -0.4643 -1.4405 -2.6903
  177SAPS   H2S20172   0.941   6.750   3.039  0.6600 -0.2664 -0.5578
  177SAPS    C320173   1.450   6.920   2.974  0.0336  0.1644 -0.9829
  177SAPS    HX20174   1.389   7.003   2.931  0.4297  0.9444 -0.0758
  177SAPS    HY20175   1.537   6.894   2.909  1.3591  0.9966  0.3867
  177SAPS   O3120176   1.500   6.944   3.107 -0.1487 -0.6445 -0.3148
  177SAPS   C3120177   1.438   7.037   3.183  0.0642 -0.4686  0.0522
  177SAPS   O3220178   1.338   7.101   3.155 -0.1752  0.6585  0.4937
  177SAPS   C3220179   1.521   7.063   3.304  0.5008 -1.2850  0.2273
  177SAPS   H2X20180   1.591   7.140   3.267  0.0649 -0.5130  0.9713
  177SAPS   H2Y20181   1.575   6.970   3.332  0.0225 -2.2049 -1.7278
  177SAPS   C2320182   1.002   6.835   3.244  0.1731 -0.4811  0.8518
  177SAPS   H3R20183   1.062   6.925   3.269  2.1406 -1.8601  1.3133
  177SAPS   H3S20184   1.048   6.748   3.296 -1.5267 -1.2475  1.1420
  177SAPS   C2420185   0.862   6.847   3.304  0.2972  0.1681  1.0237
  177SAPS   H4R20186   0.863   6.834   3.415  0.1293  0.5094  1.0665
  177SAPS   H4S20187   0.813   6.761   3.254  3.0626 -2.7186  2.8911
  177SAPS   C2520188   0.792   6.971   3.263 -0.1919  0.0086 -0.0560
  177SAPS   H5R20189   0.798   6.998   3.156  0.3083  2.0137  0.4253
  177SAPS   C2620190   0.724   7.050   3.349 -0.6596  0.2888  0.6984
  177SAPS   H6R20191   0.675   7.134   3.297 -3.8849 -1.5527  0.5506
  177SAPS   C2720192   0.709   7.037   3.496  0.0771 -0.0520 -0.5566
  177SAPS   H7R20193   0.675   7.138   3.529  0.8007  0.7909 -2.2407
  177SAPS   H7S20194   0.808   7.010   3.538  1.5273  1.8270 -2.5230
  177SAPS   C2820195   0.611   6.925   3.535  0.1794  0.3768  0.2544
  177SAPS   H8R20196   0.641   6.825   3.501  0.4572  0.6681 -0.3571
  177SAPS   C2920197   0.501   6.943   3.614  0.0639  0.3343 -0.8035
  177SAPS   H9R20198   0.432   6.862   3.641 -0.7811  0.9065 -1.1934
  177SAPS  C21020199   0.457   7.076   3.674 -1.0135  0.1204 -0.5039
  177SAPS  H10R20200   0.399   7.144   3.607  0.3112  1.2192 -0.5736
  177SAPS  H10S20201   0.542   7.140   3.706 -2.6101  0.9143  2.5625
  177SAPS  C21120202   0.366   7.064   3.797 -0.5387 -0.0580  0.1840
  177SAPS  H11R20203   0.269   7.027   3.762 -0.0304  0.7928 -2.3431
  177SAPS  C21220204   0.395   7.086   3.927 -0.2070  0.4660  0.3722
  177SAPS  H12R20205   0.314   7.076   4.000 -1.0333  2.0925 -0.2849
  177SAPS  C21320206   0.527   7.123   3.993  0.6961 -0.3377  0.3233
  177SAPS  H13R20207   0.498   7.180   4.084 -1.2381 -1.0850  0.2069
  177SAPS  H13S20208   0.594   7.184   3.928  1.5305  0.9107  2.2738
  177SAPS  C21420209   0.615   7.009   4.027  0.4636 -0.7907 -0.3931
  177SAPS  H14R20210   0.640   6.949   3.938 -1.2644 -0.4584 -1.1502
  177SAPS  C21520211   0.662   6.974   4.151  0.2381 -0.6529  0.8492
  177SAPS  H15R20212   0.692   6.868   4.151  2.0932 -0.1781 -0.4934
  177SAPS  C21620213   0.620   7.036   4.281  0.4501 -0.0838  0.1221
  177SAPS  H16R20214   0.649   7.141   4.301  0.4296 -0.3753  1.7837
  177SAPS  H16S20215   0.679   6.983   4.359 -0.0733 -1.0858 -0.1463
  177SAPS  C21720216   0.475   6.998   4.326 -0.3839 -0.2228  0.9849
  177SAPS  H17R20217   0.470   6.890   4.352  0.6888 -1.0301 -1.7629
  177SAPS  H17S20218   0.403   7.018   4.244 -1.0533  1.4270  1.9169
  177SAPS  C21820219   0.418   7.078   4.450  0.0659  0.2209 -0.3004
  177SAPS  H18R20220   0.309   7.064   4.462  0.1634  1.2562  2.3199
  177SAPS  H18S20221   0.439   7.186   4.432  1.2081 -0.1116 -1.0773
  177SAPS  C21920222   0.482   7.030   4.588 -0.7270 -0.0016 -0.5456
  177SAPS  H19R20223   0.589   7.058   4.583  0.1258 -2.8751 -0.1219
  177SAPS  H19S20224   0.463   6.925   4.618 -1.3038  0.0312 -0.7815
  177SAPS  C22020225   0.407   7.103   4.705  0.4349 -0.0947  0.1656
  177SAPS  H20R20226   0.298   7.086   4.696  0.2317  1.7685 -1.6856
  177SAPS  H20S20227   0.424   7.212   4.693 -1.7443  0.0669 -2.3508
  177SAPS  H20T20228   0.447   7.069   4.803  1.6306  0.0512 -0.2544
  177SAPS   C3320229   1.456   7.127   3.427 -0.1704 -0.1989 -0.0791
  177SAPS   H3X20230   1.365   7.065   3.440 -0.1923  0.1447  1.6996
  177SAPS   H3Y20231   1.424   7.233   3.417 -1.8377 -0.6843 -0.1522
  177SAPS   C3420232   1.556   7.137   3.552  0.2969  0.0245 -0.0891
  177SAPS   H4X20233   1.641   7.203   3.524 -0.3575  1.0595  0.2984
  177SAPS   H4Y20234   1.598   7.037   3.575 -0.4996 -0.6273 -1.3770
  177SAPS   C3520235   1.484   7.188   3.673 -0.5624 -0.1593  0.5023
  177SAPS   H5X20236   1.420   7.109   3.717 -1.1158 -0.3561 -0.6216
  177SAPS   H5Y20237   1.423   7.278   3.650  0.3716  0.3223 -0.1152
  177SAPS   C3620238   1.585   7.263   3.763 -1.3362 -0.1126  1.0533
  177SAPS   H6X20239   1.632   7.347   3.709 -0.5362 -1.3307 -0.1988
  177SAPS   H6Y20240   1.675   7.199   3.772 -1.3756 -0.2749  0.3550
  177SAPS   C3720241   1.536   7.294   3.904 -0.0121  0.2659  0.1351
  177SAPS   H7X20242   1.450   7.364   3.900  0.2152  0.5358 -0.0675
  177SAPS   H7Y20243   1.614   7.356   3.953 -0.0264  0.7792 -0.4856
  177SAPS   C3820244   1.499   7.169   3.990  0.1278  0.3334  0.4985
  177SAPS   H8X20245   1.586   7.100   3.999  0.5877  1.1407  2.8327
  177SAPS   H8Y20246   1.411   7.135   3.931  0.3940  2.6393 -1.4064
  177SAPS   C3920247   1.454   7.207   4.127 -0.7433 -0.5318  0.2296
  177SAPS   H9X20248   1.386   7.133   4.174 -1.0290 -0.3704  0.0709
  177SAPS   H9Y20249   1.401   7.304   4.123  3.3082  2.0460  1.8072
  177SAPS  C31020250   1.577   7.234   4.223 -0.3147  0.0989  0.0102
  177SAPS  H10X20251   1.656   7.294   4.173  0.6563 -0.0113  1.3502
  177SAPS  H10Y20252   1.633   7.139   4.238  0.1623  0.6979  2.7283
  177SAPS  C31120253   1.529   7.299   4.355 -0.4853 -0.1380 -0.6544
  177SAPS  H11X20254   1.447   7.373   4.340 -0.8007 -0.2151  0.5414
  177SAPS  H11Y20255   1.607   7.354   4.412 -0.7431  0.9985 -1.3774
  177SAPS  C31220256   1.462   7.198   4.454 -0.4474  0.2314 -0.1819
  177SAPS  H12X20257   1.530   7.114   4.480 -0.4186  0.3138  0.0088
  177SAPS  H12Y20258   1.377   7.156   4.395 -0.3258  0.8824 -0.8351
  177SAPS  C31320259   1.409   7.263   4.581  0.2846 -0.5047 -0.1682
  177SAPS  H13X20260   1.370   7.360   4.543  3.8351  1.6092  1.0907
  177SAPS  H13Y20261   1.495   7.282   4.649  0.0799  2.0890 -0.5441
  177SAPS  C31420262   1.293   7.179   4.648 -0.4521  0.1054  0.2075
  177SAPS  H14X20263   1.217   7.156   4.571  0.7170  2.2746 -1.7038
  177SAPS  H14Y20264   1.246   7.240   4.728 -0.0211  0.2849  0.3290
  177SAPS  C31520265   1.340   7.051   4.714 -0.0574  0.0451 -0.0868
  177SAPS  H15X20266   1.399   7.069   4.806 -0.6845 -0.6056  0.4527
  177SAPS  H15Y20267   1.417   7.016   4.641  1.8477  3.6389 -0.0241
  177SAPS  C31620268   1.226   6.963   4.764  0.4307 -0.0141  0.8476
  177SAPS  H16X20269   1.270   6.871   4.809 -0.6504 -0.8690  0.2054
  177SAPS  H16Y20270   1.164   6.938   4.675  0.2911  4.3424 -0.5194
  177SAPS  C31720271   1.141   7.025   4.870 -0.7512 -0.7945 -0.8863
  177SAPS  H17X20272   1.062   6.950   4.892  0.7163 -2.1347  0.0596
  177SAPS  H17Y20273   1.096   7.122   4.842  1.5306  0.5751 -0.0515
  177SAPS  C31820274   1.222   7.056   4.999 -0.3820  0.8307 -0.0768
  177SAPS  H18X20275   1.157   7.112   5.070 -1.5318 -0.6466  0.0922
  177SAPS  H18Y20276   1.310   7.121   4.981 -0.2320  0.4268 -0.8242
  177SAPS  H18Z20277   1.247   6.961   5.051  0.0990  1.1207  0.2239
  178SAPS     N20278   6.839   2.138   2.486 -0.3488  0.9252 -0.0217
  178SAPS   HN120279   6.868   2.210   2.555  0.1875  1.1838 -0.5060
  178SAPS   HN220280   6.861   2.183   2.395  0.6358 -0.6999 -0.6378
  178SAPS   HN320281   6.741   2.104   2.495  0.2874 -0.7010  1.5062
  178SAPS   C1220282   6.947   2.025   2.487  0.9216  0.0588 -0.7795
  178SAPS  H12A20283   6.927   1.956   2.407 -0.2123 -0.7060  0.1245
  178SAPS   C1320284   7.095   2.061   2.463  0.1841  0.2401 -0.7541
  178SAPS  O13A20285   7.135   2.175   2.433 -0.3225 -0.1399 -0.4530
  178SAPS  O13B20286   7.179   1.966   2.456 -0.3611 -0.2089 -0.6496
  178SAPS   C1120287   6.937   1.933   2.614 -0.6347 -0.8908  0.4099
  178SAPS  H11A20288   6.936   1.998   2.705  1.7285 -0.6974  0.3510
  178SAPS  H11B20289   7.029   1.872   2.623  1.3162  1.8841  0.3264
  178SAPS     P20290   6.685   1.883   2.668 -0.6563  0.0001 -0.2680
  178SAPS   O1320291   6.635   2.002   2.600 -0.2151 -0.3805  0.2464
  178SAPS   O1420292   6.608   1.756   2.668 -0.3372 -0.3278 -0.0670
  178SAPS   O1220293   6.823   1.849   2.601  0.2766  0.2538 -0.1144
  178SAPS   O1120294   6.728   1.931   2.815  0.4196  0.5701 -0.1350
  178SAPS    C120295   6.805   1.851   2.905  0.5866  0.5237  0.0084
  178SAPS    HA20296   6.751   1.755   2.916  0.3718  0.5972 -0.3961
  178SAPS    HB20297   6.907   1.827   2.867  1.8640 -0.0287  3.3990
  178SAPS    C220298   6.824   1.908   3.048 -0.3081 -0.8109  0.0747
  178SAPS    HS20299   6.738   1.959   3.094  0.5564 -0.0320  0.8654
  178SAPS   O2120300   6.934   2.007   3.044  0.1099 -0.2492 -0.3888
  178SAPS   C2120301   6.894   2.133   3.038  0.8994  0.5114  0.3329
  178SAPS   O2220302   6.779   2.178   3.018 -0.1046  1.2199  0.2147
  178SAPS   C2220303   7.018   2.213   3.065 -0.3276 -0.4403 -1.3219
  178SAPS   H2R20304   7.114   2.189   3.015  1.2703  1.8627  0.4102
  178SAPS   H2S20305   7.013   2.321   3.039 -0.6726  0.1073  0.8024
  178SAPS    C320306   6.885   1.798   3.147  0.3471 -0.8203  0.4168
  178SAPS    HX20307   6.909   1.847   3.243 -0.1953 -0.5223  0.4063
  178SAPS    HY20308   6.979   1.764   3.098  0.9214  2.6193 -1.2494
  178SAPS   O3120309   6.776   1.705   3.167 -0.3827 -0.0884 -0.5721
  178SAPS   C3120310   6.823   1.586   3.199 -0.4734  0.0411 -0.6355
  178SAPS   O3220311   6.940   1.554   3.195 -0.0218  0.8468 -0.3999
  178SAPS   C3220312   6.707   1.488   3.221 -0.3972 -0.1606 -0.5942
  178SAPS   H2X20313   6.750   1.405   3.161  4.0231 -0.6312  2.7388
  178SAPS   H2Y20314   6.613   1.526   3.177  0.5408 -1.1277 -3.7022
  178SAPS   C2320315   7.052   2.207   3.219 -0.0136 -0.1392 -1.2623
  178SAPS   H3R20316   7.147   2.264   3.234 -1.0211  1.7752 -1.9262
  178SAPS   H3S20317   7.102   2.112   3.248  0.1222  0.3812  0.3067
  178SAPS   C2420318   6.949   2.254   3.321 -0.0844  0.3006 -0.8781
  178SAPS   H4R20319   6.908   2.340   3.264  0.1815  0.2140 -1.2014
  178SAPS   H4S20320   6.999   2.285   3.416 -2.2336 -0.5552  0.5839
  178SAPS   C2520321   6.841   2.155   3.356  0.1016  0.2889 -0.2695
  178SAPS   H5R20322   6.749   2.161   3.295  1.5442  1.9008 -2.4077
  178SAPS   C2620323   6.858   2.048   3.440 -0.1187 -0.0969 -0.2994
  178SAPS   H6R20324   6.777   1.974   3.455  0.3294 -0.2204  1.7670
  178SAPS   C2720325   6.985   2.006   3.515  0.2541 -0.3539  0.8292
  178SAPS   H7R20326   6.955   1.984   3.619  3.1001  1.9482  2.2599
  178SAPS   H7S20327   7.061   2.086   3.524 -1.5081  1.5657 -0.3292
  178SAPS   C2820328   7.064   1.891   3.454  0.2917  0.5803 -0.6784
  178SAPS   H8R20329   7.146   1.907   3.382 -0.8466 -0.8001 -2.3735
  178SAPS   C2920330   7.058   1.760   3.495  0.1797 -0.3037 -0.6556
  178SAPS   H9R20331   7.117   1.692   3.431 -2.1547 -0.3457 -2.9611
  178SAPS  C21020332   6.968   1.687   3.593 -0.2669 -0.6783 -0.1396
  178SAPS  H10R20333   6.937   1.592   3.545 -2.0293  0.2871 -1.0093
  178SAPS  H10S20334   6.876   1.747   3.610  0.2217 -0.1740  0.8685
  178SAPS  C21120335   7.043   1.667   3.724  0.1250  0.2922  0.1618
  178SAPS  H11R20336   7.145   1.626   3.710  0.6430  0.4644  2.9189
  178SAPS  C21220337   6.996   1.694   3.850 -0.2579  1.0020 -0.2057
  178SAPS  H12R20338   7.057   1.659   3.934 -0.6375  0.9002  0.0305
  178SAPS  C21320339   6.862   1.761   3.886 -0.2369  0.0012 -0.2579
  178SAPS  H13R20340   6.829   1.712   3.980 -1.4510  0.5845 -0.3603
  178SAPS  H13S20341   6.788   1.755   3.804 -1.4822  1.0724  0.7443
  178SAPS  C21420342   6.889   1.907   3.911 -0.0055  0.2385 -0.3885
  178SAPS  H14R20343   6.940   1.951   3.824  1.7403 -0.4505  0.2337
  178SAPS  C21520344   6.849   1.982   4.018 -0.0330  0.1114 -0.0077
  178SAPS  H15R20345   6.879   2.087   4.020  0.2057  0.0471  2.0599
  178SAPS  C21620346   6.774   1.927   4.139 -0.3522 -0.0262 -0.9349
  178SAPS  H16R20347   6.706   1.842   4.119  0.5917 -1.4379  1.5142
  178SAPS  H16S20348   6.710   2.003   4.188 -0.6063  0.1474 -1.5258
  178SAPS  C21720349   6.872   1.892   4.256  0.0866 -0.4917  0.1826
  178SAPS  H17R20350   6.960   1.959   4.260  0.1330 -0.4235 -1.3027
  178SAPS  H17S20351   6.919   1.798   4.218 -0.0818 -0.6532  0.3725
  178SAPS  C21820352   6.811   1.864   4.395 -0.6020 -0.2646  0.5495
  178SAPS  H18R20353   6.705   1.843   4.371 -0.2116 -2.2073  0.3489
  178SAPS  H18S20354   6.814   1.951   4.463 -2.4000  0.9875 -0.9045
  178SAPS  C21920355   6.862   1.744   4.466 -0.0011  0.3735  0.5692
  178SAPS  H19R20356   6.968   1.755   4.498 -0.0944 -1.5745  1.7584
  178SAPS  H19S20357   6.861   1.658   4.395  1.3889  1.5406 -0.9323
  178SAPS  C22020358   6.785   1.704   4.593  0.3414  0.7238  0.0616
  178SAPS  H20R20359   6.679   1.680   4.568  0.8095  0.9045 -2.4001
  178SAPS  H20S20360   6.777   1.797   4.654 -0.1193  1.0043 -0.4140
  178SAPS  H20T20361   6.841   1.623   4.643  1.5010  0.5171 -1.4945
  178SAPS   C3320362   6.700   1.456   3.370  0.2929  0.3444  0.6111
  178SAPS   H3X20363   6.803   1.448   3.413  1.1811 -0.7486 -1.5689
  178SAPS   H3Y20364   6.639   1.363   3.371 -0.0567  0.4685 -2.4043
  178SAPS   C3420365   6.618   1.555   3.447  0.5784 -0.0318  0.2550
  178SAPS   H4X20366   6.542   1.597   3.377  0.4873 -0.5515  0.0359
  178SAPS   H4Y20367   6.676   1.647   3.471 -1.4773  1.2321  0.6282
  178SAPS   C3520368   6.559   1.493   3.571 -0.0786 -0.5190  0.4285
  178SAPS   H5X20369   6.482   1.415   3.552  1.2957 -1.7560 -0.1928
  178SAPS   H5Y20370   6.507   1.572   3.630 -0.6642 -0.5482 -0.0364
  178SAPS   C3620371   6.664   1.424   3.663 -0.2966 -0.2699 -0.4392
  178SAPS   H6X20372   6.746   1.496   3.683  0.2993 -1.1925  0.5132
  178SAPS   H6Y20373   6.711   1.340   3.607 -0.2796 -0.3228 -0.3467
  178SAPS   C3720374   6.606   1.376   3.795  0.5757  0.6634  0.0856
  178SAPS   H7X20375   6.621   1.266   3.794  0.2486  0.5975 -2.2125
  178SAPS   H7Y20376   6.495   1.385   3.800  0.3301 -1.6794 -0.1401
  178SAPS   C3820377   6.680   1.446   3.909 -0.0495  0.0294 -0.2161
  178SAPS   H8X20378   6.646   1.548   3.881  0.1488 -0.2881 -1.7082
  178SAPS   H8Y20379   6.790   1.449   3.891  0.0136  3.2939  0.0853
  178SAPS   C3920380   6.636   1.394   4.046  0.0503 -0.4979  0.4448
  178SAPS   H9X20381   6.707   1.310   4.064  0.6675  0.3541  2.2382
  178SAPS   H9Y20382   6.533   1.354   4.048  0.0219 -0.5450 -0.9620
  178SAPS  C31020383   6.638   1.507   4.155  0.1082 -0.5015  0.2745
  178SAPS  H10X20384   6.744   1.540   4.160  0.7236 -2.5661  2.2361
  178SAPS  H10Y20385   6.613   1.466   4.255 -3.7027  0.7162 -0.0190
  178SAPS  C31120386   6.528   1.616   4.115 -0.0515  0.7573  0.2269
  178SAPS  H11X20387   6.441   1.561   4.072 -0.1566  0.7697  0.4207
  178SAPS  H11Y20388   6.577   1.674   4.034  3.1565 -2.9487 -0.8139
  178SAPS  C31220389   6.465   1.695   4.235  0.2862  0.2716 -0.6179
  178SAPS  H12X20390   6.393   1.768   4.193 -0.7017 -0.7042 -0.6459
  178SAPS  H12Y20391   6.558   1.742   4.274  0.2800 -1.0098  1.0643
  178SAPS  C31320392   6.399   1.602   4.338 -1.0072 -0.6176  0.3850
  178SAPS  H13X20393   6.467   1.530   4.389 -0.7644  0.5133  1.7147
  178SAPS  H13Y20394   6.318   1.546   4.286 -2.5189 -1.6303  3.5614
  178SAPS  C31420395   6.338   1.680   4.459 -0.1998 -0.0394  0.7477
  178SAPS  H14X20396   6.275   1.763   4.420  0.7286 -0.3231 -1.4724
  178SAPS  H14Y20397   6.419   1.735   4.511 -0.6988  1.2373  0.1990
  178SAPS  C31520398   6.251   1.595   4.541  0.2164  0.5636  0.1875
  178SAPS  H15X20399   6.308   1.517   4.597  0.5622  0.6029 -0.1101
  178SAPS  H15Y20400   6.174   1.543   4.480  1.7899 -0.0954 -1.3118
  178SAPS  C31620401   6.165   1.673   4.646 -0.0797 -0.0229 -0.3993
  178SAPS  H16X20402   6.097   1.746   4.596 -3.6983 -0.8061  2.9123
  178SAPS  H16Y20403   6.234   1.734   4.707  0.0185 -0.8297  0.3103
  178SAPS  C31720404   6.077   1.607   4.747  0.9470  0.3677  0.5369
  178SAPS  H17X20405   6.145   1.562   4.823 -2.5970 -1.2245  3.0768
  178SAPS  H17Y20406   6.026   1.532   4.683 -3.0571  1.3909  2.1717
  178SAPS  C31820407   5.967   1.692   4.803  0.1609  0.1597  0.1761
  178SAPS  H18X20408   5.930   1.758   4.721 -0.1251  0.0490  0.2146
  178SAPS  H18Y20409   6.000   1.755   4.889  0.5819 -0.5347  0.5278
  178SAPS  H18Z20410   5.882   1.630   4.839 -0.0174 -0.9940 -2.0923
  179SAPS     N20411   3.519   5.603   2.242  0.0531 -0.5634 -0.4399
  179SAPS   HN120412   3.505   5.635   2.341  2.5237 -1.2471  0.1800
  179SAPS   HN220413   3.621   5.583   2.238  0.3867 -0.1913  2.9493
  179SAPS   HN320414   3.501   5.688   2.184  0.6663 -1.7541 -2.4641
  179SAPS   C1220415   3.428   5.494   2.186  0.2268  0.3346  0.0389
  179SAPS  H12A20416   3.323   5.512   2.204 -1.0778 -4.3567 -1.5013
  179SAPS   C1320417   3.450   5.471   2.032 -0.7555  0.0892 -0.5438
  179SAPS  O13A20418   3.499   5.563   1.958  0.5984  0.2841  0.6539
  179SAPS  O13B20419   3.408   5.366   1.975  0.2738  0.3292  0.1663
  179SAPS   C1120420   3.455   5.354   2.255  0.1287 -0.6553 -0.1545
  179SAPS  H11A20421   3.392   5.271   2.216  0.8062 -2.6931  2.6908
  179SAPS  H11B20422   3.423   5.356   2.361  1.3699 -0.1741  0.2353
  179SAPS     P20423   3.647   5.181   2.300 -0.2634 -0.1695  0.2199
  179SAPS   O1320424   3.583   5.064   2.240 -0.3777  0.0083 -0.0363
  179SAPS   O1420425   3.792   5.196   2.269 -0.2253 -0.0855  0.1653
  179SAPS   O1220426   3.592   5.316   2.240  0.1815 -0.2917 -0.4253
  179SAPS   O1120427   3.628   5.194   2.457  0.2533 -0.2057  0.0750
  179SAPS    C120428   3.666   5.313   2.523 -0.3458 -0.2661 -0.3697
  179SAPS    HA20429   3.774   5.333   2.505  0.4377 -0.9832  2.8943
  179SAPS    HB20430   3.623   5.406   2.480 -1.3267  0.0932  1.3242
  179SAPS    C220431   3.627   5.317   2.672  0.0781  0.3602 -0.6389
  179SAPS    HS20432   3.642   5.420   2.710  2.4881 -0.1209 -0.0877
  179SAPS   O2120433   3.706   5.219   2.742  0.3672  0.7383  0.6937
  179SAPS   C2120434   3.824   5.256   2.767 -0.2946 -0.3259 -0.2116
  179SAPS   O2220435   3.872   5.364   2.756 -0.2996 -0.0184  0.7286
  179SAPS   C2220436   3.899   5.129   2.802 -0.0043  0.1007 -0.0796
  179SAPS   H2R20437   3.842   5.057   2.864 -0.5646  0.7668  0.1910
  179SAPS   H2S20438   3.939   5.082   2.710  1.2274  0.7015  0.1175
  179SAPS    C320439   3.474   5.283   2.693 -0.6025 -0.3782  0.4426
  179SAPS    HX20440   3.475   5.175   2.668  0.6447  0.2724 -2.9724
  179SAPS    HY20441   3.425   5.335   2.608 -0.9378  0.4953  1.1618
  179SAPS   O3120442   3.436   5.333   2.819  0.1309  0.4476  0.3275
  179SAPS   C3120443   3.305   5.317   2.835 -0.1011  0.0939 -0.6290
  179SAPS   O3220444   3.227   5.265   2.758  0.2694 -0.0356  0.3207
  179SAPS   C3220445   3.266   5.368   2.969  0.2443 -0.0230  0.0758
  179SAPS   H2X20446   3.205   5.459   2.954  0.4094 -0.0754 -1.0200
  179SAPS   H2Y20447   3.348   5.385   3.041  0.0452 -1.0665  0.5749
  179SAPS   C2320448   4.028   5.168   2.872  0.2298 -0.2220 -0.1954
  179SAPS   H3R20449   4.095   5.240   2.820  1.1526 -0.5943  0.4466
  179SAPS   H3S20450   4.082   5.071   2.869 -0.1776 -0.4318 -0.9022
  179SAPS   C2420451   4.018   5.210   3.022 -0.2566  0.7773  0.0289
  179SAPS   H4R20452   4.124   5.218   3.054  0.6674 -2.4502 -1.8097
  179SAPS   H4S20453   3.976   5.126   3.081  0.8715  0.1504 -0.0343
  179SAPS   C2520454   3.942   5.340   3.041 -0.1187 -0.1849 -0.3124
  179SAPS   H5R20455   3.982   5.435   3.001  1.4252 -0.1685  1.1408
  179SAPS   C2620456   3.819   5.348   3.096 -0.2494 -0.1949  0.4620
  179SAPS   H6R20457   3.773   5.445   3.119 -1.6530 -0.8208  0.4472
  179SAPS   C2720458   3.750   5.230   3.165  0.2132 -0.0297 -0.8425
  179SAPS   H7R20459   3.819   5.183   3.239  0.0333 -0.0088 -0.6599
  179SAPS   H7S20460   3.743   5.149   3.089  0.1671 -0.0719 -0.7931
  179SAPS   C2820461   3.612   5.258   3.227 -0.3409  0.5545 -0.1695
  179SAPS   H8R20462   3.521   5.221   3.176 -0.2539 -1.3569  0.9422
  179SAPS   C2920463   3.598   5.301   3.356 -0.8603  0.4565  0.5961
  179SAPS   H9R20464   3.499   5.300   3.405 -0.7300 -0.6010  0.8580
  179SAPS  C21020465   3.711   5.329   3.461  0.5331 -0.1236  0.3559
  179SAPS  H10R20466   3.799   5.261   3.453  0.3439 -0.2474 -1.0587
  179SAPS  H10S20467   3.676   5.312   3.565  1.0378  1.9281  0.8887
  179SAPS  C21120468   3.766   5.467   3.439  0.2496 -0.0102 -0.9963
  179SAPS  H11R20469   3.802   5.477   3.335 -0.4163 -0.3341 -1.2610
  179SAPS  C21220470   3.784   5.572   3.526  0.6005  0.1890  0.1226
  179SAPS  H12R20471   3.820   5.670   3.493  0.5349 -0.5572 -2.3414
  179SAPS  C21320472   3.756   5.570   3.674  0.7960 -0.2843  0.2861
  179SAPS  H13R20473   3.839   5.624   3.725  0.7327  0.5578 -0.4845
  179SAPS  H13S20474   3.742   5.467   3.712  1.7084 -1.1435 -1.6045
  179SAPS  C21420475   3.625   5.649   3.698 -0.6232 -0.3271 -0.6036
  179SAPS  H14R20476   3.555   5.637   3.614 -1.1942  0.0614 -0.1943
  179SAPS  C21520477   3.600   5.736   3.798 -0.0984  0.3592  0.3423
  179SAPS  H15R20478   3.507   5.794   3.788 -0.9328 -1.3181 -2.9277
  179SAPS  C21620479   3.683   5.785   3.906  0.4302  0.2620  0.1149
  179SAPS  H16R20480   3.782   5.734   3.906  1.2408  1.4474 -3.9780
  179SAPS  H16S20481   3.623   5.746   3.991 -0.5681 -2.2055 -1.6108
  179SAPS  C21720482   3.692   5.935   3.926  0.1980  0.4616  0.1644
  179SAPS  H17R20483   3.587   5.971   3.919  0.1322  0.0210 -1.6442
  179SAPS  H17S20484   3.747   5.980   3.841 -1.1240  2.4937  0.2964
  179SAPS  C21820485   3.734   5.967   4.068 -0.3522  0.4488  0.2426
  179SAPS  H18R20486   3.844   5.949   4.069 -0.6565 -1.9879  2.4037
  179SAPS  H18S20487   3.692   5.898   4.145  2.0913  1.5256  2.7286
  179SAPS  C21920488   3.702   6.108   4.110  0.2798 -0.2849  0.3418
  179SAPS  H19R20489   3.593   6.125   4.097  0.3678 -0.4620 -0.7271
  179SAPS  H19S20490   3.752   6.168   4.031 -0.8231 -1.7747 -1.5844
  179SAPS  C22020491   3.733   6.147   4.251 -0.2543  0.1558 -0.3845
  179SAPS  H20R20492   3.678   6.241   4.276  0.1202 -0.0169  1.2173
  179SAPS  H20S20493   3.843   6.164   4.258 -0.3191  0.1303  0.9031
  179SAPS  H20T20494   3.721   6.068   4.328  1.3413  1.0087  0.8010
  179SAPS   C3320495   3.164   5.269   3.047  0.6760  0.0894 -1.2488
  179SAPS   H3X20496   3.201   5.165   3.058  1.3315  0.2839 -1.5522
  179SAPS   H3Y20497   3.079   5.261   2.976  0.1429 -0.4133 -0.5693
  179SAPS   C3420498   3.114   5.320   3.186  0.3396  0.0765 -0.4262
  179SAPS   H4X20499   3.033   5.255   3.225 -0.4881  0.3144 -1.6879
  179SAPS   H4Y20500   3.063   5.415   3.162  1.3637  1.3770  2.1329
  179SAPS   C3520501   3.224   5.357   3.281 -0.2722  0.7826 -0.8249
  179SAPS   H5X20502   3.275   5.451   3.250  0.0667  1.3915  1.3571
  179SAPS   H5Y20503   3.304   5.285   3.306 -2.0919 -1.0507  0.0413
  179SAPS   C3620504   3.162   5.401   3.424 -0.2648 -0.1034  0.3906
  179SAPS   H6X20505   3.121   5.309   3.469 -0.7588  0.8309  1.9090
  179SAPS   H6Y20506   3.074   5.469   3.417  0.1458  0.4416  0.4275
  179SAPS   C3720507   3.260   5.471   3.519  0.0100 -0.6223  0.3724
  179SAPS   H7X20508   3.300   5.566   3.479  1.1045 -0.8494  0.9032
  179SAPS   H7Y20509   3.351   5.412   3.543  0.3080 -0.6563 -0.7792
  179SAPS   C3820510   3.192   5.493   3.656 -0.2703  0.6105  0.1445
  179SAPS   H8X20511   3.157   5.397   3.701  0.1165  0.2803 -0.2546
  179SAPS   H8Y20512   3.102   5.554   3.635 -0.5045  0.5632  0.9609
  179SAPS   C3920513   3.283   5.578   3.751  0.2927  0.4704 -0.2249
  179SAPS   H9X20514   3.312   5.673   3.702 -0.7382  0.9560  0.0632
  179SAPS   H9Y20515   3.364   5.518   3.798 -2.2233 -2.0029  1.3084
  179SAPS  C31020516   3.200   5.625   3.871  0.2290 -0.0089 -0.5561
  179SAPS  H10X20517   3.158   5.533   3.917 -2.2929  2.3657  2.3989
  179SAPS  H10Y20518   3.110   5.683   3.840 -0.3079  0.3398  1.4725
  179SAPS  C31120519   3.298   5.695   3.967 -0.2697  0.0005  0.2353
  179SAPS  H11X20520   3.327   5.791   3.920 -0.2971 -1.0309 -2.0348
  179SAPS  H11Y20521   3.387   5.630   3.983  0.6259  0.8287 -1.1759
  179SAPS  C31220522   3.239   5.711   4.104 -0.0497 -0.2551  0.3984
  179SAPS  H12X20523   3.208   5.613   4.148  2.3511 -1.8078 -1.1337
  179SAPS  H12Y20524   3.151   5.779   4.109  0.2161  0.6273 -3.5814
  179SAPS  C31320525   3.342   5.768   4.204 -0.5695  0.8312 -0.4707
  179SAPS  H13X20526   3.332   5.874   4.174 -0.2838  0.4254 -2.0661
  179SAPS  H13Y20527   3.445   5.730   4.190 -0.6839 -0.2086  1.2004
  179SAPS  C31420528   3.292   5.749   4.352  0.0274 -0.2912  0.2215
  179SAPS  H14X20529   3.255   5.649   4.383 -1.9849  0.6001  0.8899
  179SAPS  H14Y20530   3.202   5.813   4.361 -0.2015 -0.0268 -2.9715
  179SAPS  C31520531   3.406   5.790   4.448 -0.4732 -0.4406 -0.0811
  179SAPS  H15X20532   3.500   5.739   4.416  1.2267  3.3087 -1.6096
  179SAPS  H15Y20533   3.385   5.759   4.552  0.0267  1.6199  0.6730
  179SAPS  C31620534   3.440   5.943   4.430  0.5860  0.8657 -0.6553
  179SAPS  H16X20535   3.356   6.015   4.439  0.8433  1.3287 -1.7554
  179SAPS  H16Y20536   3.481   5.953   4.327  0.7345  0.7495 -0.6080
  179SAPS  C31720537   3.549   5.985   4.529 -0.1255 -0.2308 -0.4679
  179SAPS  H17X20538   3.582   6.089   4.505  0.5432 -0.1488  0.7234
  179SAPS  H17Y20539   3.625   5.913   4.493 -0.0416 -0.5013  0.2485
  179SAPS  C31820540   3.524   5.965   4.672 -0.4998 -0.4317 -1.1082
  179SAPS  H18X20541   3.417   5.983   4.694 -0.8055 -2.2395 -0.9990
  179SAPS  H18Y20542   3.585   6.033   4.735 -0.4277 -1.2907 -0.2181
  179SAPS  H18Z20543   3.547   5.862   4.706 -0.0913  0.7555  2.7811
  180SAPS     N20544   1.231   3.752   2.352 -0.3500 -0.0724 -0.0552
  180SAPS   HN120545   1.226   3.667   2.412  0.0618 -2.8068 -3.6187
  180SAPS   HN220546   1.238   3.721   2.253  1.6984 -1.8360  0.5689
  180SAPS   HN320547   1.325   3.792   2.374 -0.8675  0.0656  2.2301
  180SAPS   C1220548   1.125   3.856   2.370 -0.1045 -0.2093  0.1902
  180SAPS  H12A20549   1.133   3.935   2.297 -0.0046 -1.2416 -0.9373
  180SAPS   C1320550   0.987   3.792   2.361 -0.1246  0.6766  0.7824
  180SAPS  O13A20551   0.978   3.671   2.320  0.1417 -0.4490  0.0187
  180SAPS  O13B20552   0.882   3.862   2.368 -0.1470 -0.2390  1.3822
  180SAPS   C1120553   1.126   3.935   2.503 -0.0019 -0.1860 -0.1869
  180SAPS  H11A20554   1.076   3.875   2.582 -3.2500  1.1394 -1.0697
  180SAPS  H11B20555   1.059   4.023   2.495 -0.1347 -0.0913  1.5931
  180SAPS     P20556   1.274   4.124   2.605  0.1022  0.3072  0.4212
  180SAPS   O1320557   1.417   4.129   2.650 -0.0721  0.4970 -0.1342
  180SAPS   O1420558   1.238   4.230   2.505 -0.4317  0.2636  0.1196
  180SAPS   O1220559   1.256   3.972   2.550  0.2905 -0.9333  0.2772
  180SAPS   O1120560   1.183   4.128   2.729 -0.0378 -0.4575 -0.8893
  180SAPS    C120561   1.187   4.049   2.843 -0.2348  0.0870 -0.7845
  180SAPS    HA20562   1.182   3.940   2.825  3.1506 -1.3137  4.2921
  180SAPS    HB20563   1.275   4.068   2.909 -1.1259  2.6673 -0.2189
  180SAPS    C220564   1.046   4.069   2.916 -0.1258  0.0238  0.0937
  180SAPS    HS20565   0.978   4.073   2.828 -0.1090  1.0320  0.1066
  180SAPS   O2120566   1.063   4.193   2.987 -0.3095  0.5147  0.2877
  180SAPS   C2120567   0.941   4.250   2.999 -0.5088 -0.2057 -0.4293
  180SAPS   O2220568   0.840   4.214   2.940  0.2598 -0.1903  0.4784
  180SAPS   C2220569   0.956   4.371   3.085  0.4644  0.6163  0.1259
  180SAPS   H2R20570   1.064   4.396   3.093  0.6099  0.4333 -1.0966
  180SAPS   H2S20571   0.898   4.443   3.024  0.4075 -0.4694 -1.1473
  180SAPS    C320572   1.013   3.947   3.010  0.6700  0.2010  0.4043
  180SAPS    HX20573   1.005   3.864   2.937 -0.2455  1.3649 -0.8763
  180SAPS    HY20574   0.916   3.964   3.061 -1.5543 -1.4202 -2.9018
  180SAPS   O3120575   1.128   3.912   3.095  0.3871 -0.7076  0.4604
  180SAPS   C3120576   1.090   3.829   3.191  0.2283  0.1495  0.0874
  180SAPS   O3220577   0.975   3.806   3.226 -0.0575 -0.2235 -0.1334
  180SAPS   C3220578   1.219   3.778   3.265 -0.2026  0.2787 -0.6574
  180SAPS   H2X20579   1.289   3.862   3.287 -0.8176  0.5396  0.3738
  180SAPS   H2Y20580   1.281   3.708   3.206  0.4059 -0.7779  1.1629
  180SAPS   C2320581   0.890   4.345   3.227  0.2959  0.2705 -0.2793
  180SAPS   H3R20582   0.785   4.311   3.226  0.1199  0.8046 -1.0294
  180SAPS   H3S20583   0.889   4.437   3.289 -1.0832  2.0740 -2.8178
  180SAPS   C2420584   0.969   4.243   3.310  0.3691 -0.1339 -0.3972
  180SAPS   H4R20585   0.942   4.141   3.274 -0.6941  0.3469 -0.9925
  180SAPS   H4S20586   0.913   4.250   3.406 -3.3387 -0.6887 -2.3332
  180SAPS   C2520587   1.122   4.258   3.329  0.3459  0.2029 -0.2593
  180SAPS   H5R20588   1.176   4.291   3.239  0.4399 -0.5628 -0.4931
  180SAPS   C2620589   1.193   4.226   3.433 -1.0387  0.6871 -0.0378
  180SAPS   H6R20590   1.301   4.244   3.433 -0.9139  0.0331  0.9845
  180SAPS   C2720591   1.139   4.168   3.561 -0.7954 -0.1507 -0.5263
  180SAPS   H7R20592   1.219   4.113   3.615  0.6733  1.5507 -0.8716
  180SAPS   H7S20593   1.055   4.099   3.537  0.5581 -2.2808  0.5747
  180SAPS   C2820594   1.068   4.274   3.647 -0.1704  0.9588  0.1568
  180SAPS   H8R20595   1.021   4.355   3.590 -0.9560 -1.1073 -2.3549
  180SAPS   C2920596   1.067   4.273   3.781 -0.6999  0.1680 -0.5578
  180SAPS   H9R20597   1.014   4.353   3.833 -0.3755 -0.5445  0.9015
  180SAPS  C21020598   1.132   4.163   3.865  0.6151 -0.2865  0.6660
  180SAPS  H10R20599   1.150   4.068   3.809 -2.5467  0.2568 -1.5688
  180SAPS  H10S20600   1.055   4.138   3.941 -1.8256 -0.7982 -1.7861
  180SAPS  C21120601   1.255   4.200   3.938 -0.5321 -0.1729  0.8355
  180SAPS  H11R20602   1.353   4.198   3.888  0.7224 -2.2987  3.1352
  180SAPS  C21220603   1.266   4.239   4.066  0.4580  0.0100 -0.6425
  180SAPS  H12R20604   1.366   4.265   4.102  0.5150 -1.5477  0.4061
  180SAPS  C21320605   1.153   4.229   4.162 -0.3565  1.0815 -0.3195
  180SAPS  H13R20606   1.162   4.125   4.200  1.0802  0.5853 -1.9022
  180SAPS  H13S20607   1.048   4.233   4.126 -0.6140  0.7057  0.3794
  180SAPS  C21420608   1.154   4.331   4.271  0.1431  0.7131  0.0212
  180SAPS  H14R20609   1.115   4.425   4.229  0.6401  0.9357  0.0475
  180SAPS  C21520610   1.192   4.323   4.397 -0.1698  0.1458 -0.3665
  180SAPS  H15R20611   1.180   4.412   4.460 -0.5522 -0.9734  1.1958
  180SAPS  C21620612   1.242   4.200   4.473 -0.5499 -0.6290 -0.1922
  180SAPS  H16R20613   1.299   4.230   4.564  0.3006 -0.0135 -0.9232
  180SAPS  H16S20614   1.312   4.139   4.413 -1.1584 -1.5195 -0.0167
  180SAPS  C21720615   1.127   4.113   4.530  0.5109 -0.5883  0.4229
  180SAPS  H17R20616   1.184   4.021   4.554  0.0499 -0.4670  2.0917
  180SAPS  H17S20617   1.056   4.106   4.445 -0.3894 -1.0385  1.1914
  180SAPS  C21820618   1.049   4.164   4.653  0.6797 -0.3340  0.3190
  180SAPS  H18R20619   0.958   4.106   4.680  0.9744  0.4694  3.3993
  180SAPS  H18S20620   1.018   4.271   4.647 -0.6695 -0.5840  2.1131
  180SAPS  C21920621   1.130   4.161   4.781  0.1259 -0.3029  0.3514
  180SAPS  H19R20622   1.224   4.221   4.781  0.7886 -1.2271 -1.8972
  180SAPS  H19S20623   1.157   4.055   4.800  0.9898 -0.2389 -0.4444
  180SAPS  C22020624   1.048   4.203   4.906 -0.0087 -0.1608  0.3728
  180SAPS  H20R20625   0.948   4.154   4.900 -0.3302  0.5192  0.0376
  180SAPS  H20S20626   1.095   4.164   4.999 -1.7767 -1.8304  0.6308
  180SAPS  H20T20627   1.042   4.314   4.917  2.1201 -0.0470  0.9031
  180SAPS   C3320628   1.187   3.709   3.400  0.1480 -0.3714 -0.1794
  180SAPS   H3X20629   1.265   3.636   3.430 -0.3778  0.4941  3.8210
  180SAPS   H3Y20630   1.101   3.640   3.386 -0.0496 -0.2000  0.1766
  180SAPS   C3420631   1.179   3.800   3.519 -0.0243  0.3768 -0.2931
  180SAPS   H4X20632   1.090   3.864   3.500 -0.1414  0.0963 -0.7075
  180SAPS   H4Y20633   1.273   3.859   3.520  0.5591 -0.5137 -1.1512
  180SAPS   C3520634   1.158   3.704   3.644 -0.4087  0.5631  0.2573
  180SAPS   H5X20635   1.230   3.619   3.638 -1.0442  0.0999 -1.2888
  180SAPS   H5Y20636   1.061   3.656   3.619  1.1296 -2.2104 -0.8160
  180SAPS   C3620637   1.150   3.783   3.771 -1.4171  0.2148  0.5417
  180SAPS   H6X20638   1.046   3.824   3.766 -1.1352  0.7753 -1.3314
  180SAPS   H6Y20639   1.217   3.871   3.757 -0.7541 -0.0832  1.6594
  180SAPS   C3720640   1.181   3.709   3.910  0.2787  0.3502 -0.2332
  180SAPS   H7X20641   1.274   3.651   3.895  0.0252  0.3789 -2.1750
  180SAPS   H7Y20642   1.097   3.639   3.932 -1.5609  1.9671 -1.7622
  180SAPS   C3820643   1.190   3.819   4.009  0.3851 -0.5320  0.0301
  180SAPS   H8X20644   1.103   3.878   3.973  1.8247 -0.2070 -3.2012
  180SAPS   H8Y20645   1.286   3.873   3.997 -0.3542  1.4451  2.2463
  180SAPS   C3920646   1.172   3.777   4.157 -0.5247 -0.2318  0.6876
  180SAPS   H9X20647   1.186   3.871   4.214  0.9129 -1.0747  1.8147
  180SAPS   H9Y20648   1.262   3.720   4.189 -0.5560  0.3498  1.8752
  180SAPS  C31020649   1.043   3.707   4.188  0.4188  0.6689 -0.3494
  180SAPS  H10X20650   1.036   3.612   4.131 -1.2982 -0.2630  1.3179
  180SAPS  H10Y20651   0.953   3.765   4.162  0.3204  1.9284  2.4174
  180SAPS  C31120652   1.007   3.657   4.331  0.5827  0.4284  0.6301
  180SAPS  H11X20653   1.074   3.576   4.367 -0.6169  0.0061  2.0516
  180SAPS  H11Y20654   0.903   3.619   4.319 -1.2900  3.6519  4.4893
  180SAPS  C31220655   0.990   3.767   4.432 -0.1707 -0.3266  0.3709
  180SAPS  H12X20656   0.908   3.838   4.411 -3.3788 -3.2899  1.8999
  180SAPS  H12Y20657   1.081   3.830   4.427  0.4795 -1.2557  0.0056
  180SAPS  C31320658   0.964   3.717   4.569  0.1654  0.2108  0.0291
  180SAPS  H13X20659   1.042   3.641   4.594  0.4016  0.7923  1.1439
  180SAPS  H13Y20660   0.866   3.666   4.577 -0.6932  1.8840  0.5599
  180SAPS  C31420661   0.985   3.832   4.673  0.0170 -0.0233  0.0386
  180SAPS  H14X20662   0.941   3.923   4.627 -1.0242 -0.8891 -0.7246
  180SAPS  H14Y20663   1.095   3.848   4.676 -0.1912  1.8944 -1.0955
  180SAPS  C31520664   0.930   3.805   4.816  0.3153  0.2247 -0.4816
  180SAPS  H15X20665   0.994   3.848   4.896 -1.3285  0.9924  0.4867
  180SAPS  H15Y20666   0.916   3.696   4.836 -0.7850  0.5714  0.7683
  180SAPS  C31620667   0.789   3.866   4.843  0.0029 -0.4799  0.0626
  180SAPS  H16X20668   0.710   3.834   4.772 -0.0153  1.1201 -0.6816
  180SAPS  H16Y20669   0.797   3.976   4.837  2.5170 -0.5553  0.6550
  180SAPS  C31720670   0.747   3.834   4.988 -0.3252 -0.7562  0.1944
  180SAPS  H17X20671   0.768   3.728   5.014  1.6231 -0.8531 -1.5234
  180SAPS  H17Y20672   0.637   3.845   5.003 -0.0962 -1.6346  3.4069
  180SAPS  C31820673   0.800   3.926   5.089 -0.5256 -0.5551 -0.7301
  180SAPS  H18X20674   0.910   3.928   5.098 -0.4669  0.6514 -1.4795
  180SAPS  H18Y20675   0.757   3.912   5.191 -1.6425  1.0320 -0.9386
  180SAPS  H18Z20676   0.770   4.030   5.063  1.1107  0.7233  2.0307
  181POPC     N20677   1.415   6.150   7.635 -0.3368 -0.1059 -0.0873
  181POPC   C1220678   1.379   6.204   7.490  0.1522  0.1500  0.3954
  181POPC  H12A20679   1.326   6.298   7.487 -0.4878 -0.2241 -0.7378
  181POPC  H12B20680   1.304   6.142   7.444  1.5809 -0.3458 -1.3907
  181POPC   C1320681   1.505   6.249   7.702  0.4253  0.5322 -0.0965
  181POPC  H13A20682   1.595   6.262   7.643 -0.6475  0.9782 -1.7119
  181POPC  H13B20683   1.459   6.347   7.711  2.6689  1.5380  1.3016
  181POPC  H13C20684   1.533   6.215   7.800  1.4692  2.0445  0.1636
  181POPC   C1420685   1.297   6.122   7.726 -0.0194 -0.1962  0.0377
  181POPC  H14A20686   1.212   6.077   7.679 -0.0444 -0.2617  0.1459
  181POPC  H14B20687   1.314   6.077   7.823  1.2263  3.2993  1.6401
  181POPC  H14C20688   1.254   6.215   7.761 -1.4793 -0.2261 -1.5882
  181POPC   C1520689   1.487   6.018   7.628  0.7359 -0.4819  0.2646
  181POPC  H15A20690   1.419   5.939   7.600  2.2382 -2.9390  2.9925
  181POPC  H15B20691   1.540   5.991   7.718  1.3139 -1.7513 -0.4406
  181POPC  H15C20692   1.568   6.029   7.558  0.9240  2.7446  0.8459
  181POPC   C1120693   1.500   6.211   7.389 -0.1414 -0.2768 -0.4387
  181POPC  H11A20694   1.584   6.250   7.449 -0.6241 -1.0704  0.8009
  181POPC  H11B20695   1.477   6.282   7.307 -1.1358  1.3406  1.1535
  181POPC     P20696   1.481   6.011   7.211 -0.1251  0.2100  0.3337
  181POPC   O1320697   1.329   6.028   7.211 -0.3620 -0.1193  0.1256
  181POPC   O1420698   1.526   5.873   7.232 -0.0079 -0.2927  0.1267
  181POPC   O1220699   1.538   6.087   7.341 -0.3351  0.1018 -0.3624
  181POPC   O1120700   1.556   6.087   7.096  0.2978 -0.5902  0.2574
  181POPC    C120701   1.544   6.061   6.952  0.7442  0.0817  0.4696
  181POPC    HA20702   1.529   5.953   6.932 -1.0741 -0.3910  3.6396
  181POPC    HB20703   1.641   6.086   6.904 -0.1634 -1.1886 -2.1885
  181POPC    C220704   1.448   6.149   6.876  0.0502 -0.3575 -0.0180
  181POPC    HS20705   1.343   6.141   6.910 -0.8372  4.0105 -1.1167
  181POPC   O2120706   1.470   6.120   6.736 -0.0215  0.6687 -0.6638
  181POPC   C2120707   1.400   6.026   6.684  0.6092  0.2850 -0.2372
  181POPC   O2220708   1.311   5.959   6.742 -0.0594  0.4999 -0.0710
  181POPC   C2220709   1.428   6.003   6.538 -0.3008  0.7098  0.4151
  181POPC   H2R20710   1.410   5.897   6.512  0.6327  1.3227 -3.3399
  181POPC   H2S20711   1.534   6.023   6.508 -0.2593 -0.1876 -0.0685
  181POPC    C320712   1.482   6.296   6.912 -0.2892  0.7517 -0.0492
  181POPC    HX20713   1.496   6.302   7.022  1.4779  0.3895 -0.2243
  181POPC    HY20714   1.393   6.355   6.883 -1.6313 -1.3222 -0.4177
  181POPC   O3120715   1.601   6.330   6.846  0.0831 -0.7133 -0.1151
  181POPC   C3120716   1.578   6.388   6.730 -0.2425  0.1834  0.1434
  181POPC   O3220717   1.474   6.432   6.683  0.0261 -0.0426 -0.0812
  181POPC   C3220718   1.712   6.360   6.652 -0.6069  0.1219 -0.3278
  181POPC   H2X20719   1.706   6.252   6.627 -0.6833 -0.3797  1.6846
  181POPC   H2Y20720   1.795   6.365   6.726  1.1164 -1.1161 -2.0730
  181POPC   C2320721   1.351   6.101   6.448 -0.0105 -0.5522  0.2345
  181POPC   H3R20722   1.372   6.209   6.463  1.7497 -0.6517 -1.1147
  181POPC   H3S20723   1.241   6.090   6.449  0.0408 -1.2166 -0.3142
  181POPC   C2420724   1.392   6.066   6.304  0.5646  0.1550  0.0101
  181POPC   H4R20725   1.354   5.972   6.260  0.4217 -0.9421  2.3163
  181POPC   H4S20726   1.501   6.047   6.297  0.3940 -0.3601 -1.6415
  181POPC   C2520727   1.361   6.174   6.203  1.0505 -0.7345  0.4444
  181POPC   H5R20728   1.421   6.264   6.225 -2.4328  1.9195 -0.0766
  181POPC   H5S20729   1.254   6.203   6.205  1.4109  0.5973  0.8892
  181POPC   C2620730   1.400   6.135   6.057  0.6675 -0.5001 -0.3068
  181POPC   H6R20731   1.345   6.047   6.018  0.3687  0.6685 -2.6784
  181POPC   H6S20732   1.508   6.114   6.049  0.7417 -2.3204  3.3263
  181POPC   C2720733   1.381   6.262   5.968 -0.1271  0.4853 -0.6446
  181POPC   H7R20734   1.418   6.346   6.030 -0.0316 -1.5159  2.1951
  181POPC   H7S20735   1.272   6.271   5.953 -0.2874  0.9976  0.6886
  181POPC   C2820736   1.465   6.262   5.840  0.5386  0.0871 -0.3610
  181POPC   H8R20737   1.570   6.235   5.864  1.4761  1.0672 -2.9629
  181POPC   H8S20738   1.469   6.364   5.795  0.6463 -0.1656 -0.9345
  181POPC   C2920739   1.415   6.159   5.748  0.8488 -0.4511  0.0129
  181POPC   H9120740   1.399   6.057   5.788 -0.9010 -0.2393 -0.0550
  181POPC  C21020741   1.395   6.167   5.618 -0.3368  0.2617 -0.3143
  181POPC  H10120742   1.353   6.084   5.560 -1.9815  0.3275  0.7276
  181POPC  C21120743   1.438   6.278   5.524 -0.2184 -1.2080 -0.2583
  181POPC  H11R20744   1.535   6.325   5.550 -1.4773  0.6685  1.3768
  181POPC  H11S20745   1.358   6.355   5.530 -0.0707 -1.1281  0.9819
  181POPC  C21220746   1.463   6.237   5.377  0.1166 -0.3601 -0.0621
  181POPC  H12R20747   1.531   6.150   5.391  0.4296 -0.0888  0.1153
  181POPC  H12S20748   1.504   6.317   5.311  0.3775 -1.7580 -1.6735
  181POPC  C21320749   1.340   6.188   5.297 -0.2162 -0.1106  0.2395
  181POPC  H13R20750   1.261   6.264   5.278 -1.8471 -0.8497  3.3826
  181POPC  H13S20751   1.292   6.103   5.349  0.7792 -0.2482  0.9403
  181POPC  C21420752   1.378   6.135   5.151  0.1265  0.1957  0.2145
  181POPC  H14R20753   1.451   6.052   5.163  0.5906  0.4785 -0.6042
  181POPC  H14S20754   1.431   6.216   5.096 -0.2747  2.6521  3.1712
  181POPC  C21520755   1.259   6.081   5.072  0.0365 -0.4579 -0.5953
  181POPC  H15R20756   1.194   6.017   5.136  1.4442 -1.4532 -0.1306
  181POPC  H15S20757   1.284   6.006   4.994  2.4799  0.7292 -1.0397
  181POPC  C21620758   1.171   6.188   4.992 -0.0768  0.4095 -0.4484
  181POPC  H16R20759   1.230   6.273   4.952  0.2481  1.2363  1.6958
  181POPC  H16S20760   1.100   6.220   5.071  0.4614  0.3783  0.0538
  181POPC  C21720761   1.113   6.132   4.867  0.7160  0.1612 -0.1478
  181POPC  H17R20762   1.185   6.098   4.789  2.7414 -3.8796  3.1115
  181POPC  H17S20763   1.056   6.216   4.821 -1.9298 -1.5614 -0.2471
  181POPC  C21820764   1.010   6.016   4.896 -0.3362 -0.1177  0.4922
  181POPC  H18R20765   1.076   5.932   4.927  1.0966  0.1365 -1.5908
  181POPC  H18S20766   0.956   5.994   4.801  1.3177  0.7497 -0.7010
  181POPC  H18T20767   0.949   6.052   4.981  0.0896  0.6598  0.4726
  181POPC   C3320768   1.742   6.453   6.537 -0.9950 -0.7126  0.5128
  181POPC   H3X20769   1.849   6.484   6.531 -1.1142 -0.3976 -0.0200
  181POPC   H3Y20770   1.681   6.546   6.535  1.2987  0.9103 -2.6160
  181POPC   C3420771   1.715   6.375   6.406 -0.4284  0.0752 -0.3511
  181POPC   H4X20772   1.611   6.337   6.403  0.0948 -1.5509  0.9068
  181POPC   H4Y20773   1.777   6.283   6.409 -3.4081 -2.0606  0.6826
  181POPC   C3520774   1.737   6.458   6.278  0.1475  0.1138  0.5560
  181POPC   H5X20775   1.827   6.523   6.281  0.1583  0.6634 -4.2607
  181POPC   H5Y20776   1.652   6.530   6.279  1.3091  1.5333  0.4843
  181POPC   C3620777   1.732   6.368   6.147  0.7715  0.0344  1.0447
  181POPC   H6X20778   1.643   6.303   6.157 -0.3572  1.6160  1.8516
  181POPC   H6Y20779   1.819   6.301   6.138  0.6352 -0.0233  0.0130
  181POPC   C3720780   1.716   6.450   6.017  0.1073  0.1012  0.4967
  181POPC   H7X20781   1.748   6.554   6.037 -0.1284  0.3112 -0.1775
  181POPC   H7Y20782   1.610   6.462   5.986  0.6942  0.9732 -1.3359
  181POPC   C3820783   1.791   6.392   5.898  0.2768 -0.5017 -0.8850
  181POPC   H8X20784   1.757   6.289   5.873 -1.2338 -0.0707 -0.7279
  181POPC   H8Y20785   1.901   6.398   5.912  0.0139  2.6522  0.7945
  181POPC   C3920786   1.776   6.480   5.777  0.4940  0.2470  0.2987
  181POPC   H9X20787   1.839   6.570   5.791 -0.4348  0.7952  1.1468
  181POPC   H9Y20788   1.669   6.511   5.769  0.2467 -0.8055 -0.7527
  181POPC  C31020789   1.816   6.407   5.652  0.0453  0.0512  0.9488
  181POPC  H10X20790   1.755   6.319   5.623  0.6113  0.1420 -0.6208
  181POPC  H10Y20791   1.920   6.371   5.669 -0.3620 -1.2485  0.8018
  181POPC  C31120792   1.809   6.496   5.527  0.4487 -0.3967  0.2283
  181POPC  H11X20793   1.874   6.581   5.556 -0.2115 -0.8164  3.3059
  181POPC  H11Y20794   1.703   6.529   5.528  0.2919 -0.8909  0.2502
  181POPC  C31220795   1.840   6.424   5.397 -0.2095 -0.6729  0.0001
  181POPC  H12X20796   1.771   6.338   5.385 -2.0689  1.0453 -2.9190
  181POPC  H12Y20797   1.945   6.386   5.386 -0.2779 -1.0136  0.5126
  181POPC  C31320798   1.809   6.505   5.270 -0.2275 -0.1066  0.2111
  181POPC  H13X20799   1.889   6.581   5.254 -0.1811 -0.5853 -2.2114
  181POPC  H13Y20800   1.708   6.545   5.289  0.0553  0.2880  0.9380
  181POPC  C31420801   1.793   6.411   5.145 -0.2249 -0.5253  0.0225
  181POPC  H14X20802   1.725   6.328   5.173  1.7530 -1.2115  3.2416
  181POPC  H14Y20803   1.892   6.366   5.124  1.1394  2.3450 -0.1017
  181POPC  C31520804   1.738   6.479   5.026  0.2702 -0.0990  0.8601
  181POPC  H15X20805   1.796   6.571   5.008 -1.8211  0.6607 -3.3168
  181POPC  H15Y20806   1.632   6.499   5.052 -0.8371 -3.8578 -0.0643
  181POPC  C31620807   1.733   6.389   4.901 -0.1931 -0.0015  0.1961
  181POPC  H16X20808   1.723   6.449   4.808  2.3431 -1.4040 -1.0942
  181POPC  H16Y20809   1.655   6.312   4.912 -1.1736  0.7252 -1.2980
  181POPC  H16Z20810   1.832   6.341   4.883  0.4900  0.9064  1.3319
  182POPC     N20811   4.943   6.739   6.942  0.2743 -0.1821 -1.0296
  182POPC   C1220812   4.807   6.705   6.891  0.0674  0.4691  0.1964
  182POPC  H12A20813   4.801   6.710   6.784 -1.2061 -0.1406  0.2188
  182POPC  H12B20814   4.734   6.771   6.934 -1.5576 -0.1386 -1.5447
  182POPC   C1320815   4.948   6.726   7.087  0.3762  0.0817 -0.1360
  182POPC  H13A20816   4.886   6.802   7.133 -1.4402 -0.9302 -0.7864
  182POPC  H13B20817   4.924   6.624   7.114 -2.3552  0.6067 -0.2681
  182POPC  H13C20818   5.048   6.746   7.121 -0.0418  1.6090  0.2766
  182POPC   C1420819   5.050   6.662   6.877  1.2553  0.7629 -0.4509
  182POPC  H14A20820   5.143   6.716   6.871  0.6667  2.0190  1.0510
  182POPC  H14B20821   5.082   6.580   6.940 -2.0757  0.9451  1.7007
  182POPC  H14C20822   5.022   6.614   6.785 -1.8420  1.2472  0.1413
  182POPC   C1520823   4.975   6.887   6.906  0.1249  0.9145 -0.3224
  182POPC  H15A20824   4.955   6.913   6.803  0.8950 -0.1995 -0.7710
  182POPC  H15B20825   5.081   6.908   6.910  0.6684 -1.3455 -1.3062
  182POPC  H15C20826   4.935   6.955   6.980  0.0722  0.3887  0.1379
  182POPC   C1120827   4.756   6.560   6.916  0.3789  0.3347  0.6592
  182POPC  H11A20828   4.831   6.489   6.874  0.0156  0.2545  0.1401
  182POPC  H11B20829   4.660   6.558   6.860  1.4119 -1.1535 -1.1587
  182POPC     P20830   4.702   6.381   7.089 -0.1645 -0.3669  0.2387
  182POPC   O1320831   4.652   6.375   7.225 -0.0130 -0.2608  0.0606
  182POPC   O1420832   4.824   6.297   7.067 -0.0458  0.4805  0.4019
  182POPC   O1220833   4.726   6.536   7.054 -0.2522  0.1540 -1.0477
  182POPC   O1120834   4.583   6.348   6.988  0.2153 -0.0115  0.3479
  182POPC    C120835   4.558   6.214   6.952  0.3690  0.7795  0.0543
  182POPC    HA20836   4.463   6.187   7.002  1.3318  1.6625  2.4830
  182POPC    HB20837   4.639   6.144   6.981  0.9198  2.2998  2.4571
  182POPC    C220838   4.541   6.191   6.801  0.1395 -0.0414  1.3730
  182POPC    HS20839   4.641   6.204   6.755  0.3854 -2.2161  1.2002
  182POPC   O2120840   4.449   6.287   6.753  0.3993 -0.6101 -0.7141
  182POPC   C2120841   4.462   6.328   6.630 -0.1869 -0.5487  0.2016
  182POPC   O2220842   4.559   6.304   6.552 -0.8257 -0.3098  0.1941
  182POPC   C2220843   4.343   6.417   6.601  0.6709  0.3247  0.5885
  182POPC   H2R20844   4.338   6.500   6.675 -1.0922  0.2522  0.5974
  182POPC   H2S20845   4.246   6.363   6.609 -0.1165  1.9011  2.4038
  182POPC    C320846   4.492   6.054   6.763 -0.6975  0.1986  0.2340
  182POPC    HX20847   4.396   6.039   6.817 -0.1348  0.2770  1.2778
  182POPC    HY20848   4.556   5.971   6.799  1.4249  0.8721 -1.7573
  182POPC   O3120849   4.474   6.039   6.623 -0.1617  0.4920  0.0235
  182POPC   C3120850   4.576   5.986   6.555 -1.0765  0.3356  0.9012
  182POPC   O3220851   4.685   5.960   6.598 -0.2413 -0.1864 -0.0780
  182POPC   C3220852   4.536   5.969   6.411  0.0994  0.0814 -0.0100
  182POPC   H2X20853   4.470   6.058   6.396  0.0708  0.2628  1.1449
  182POPC   H2Y20854   4.478   5.874   6.413  1.5031 -0.8232 -0.8036
  182POPC   C2320855   4.356   6.489   6.457  0.0880  0.0714  0.3806
  182POPC   H3R20856   4.441   6.560   6.455  0.4512 -0.2652 -3.9195
  182POPC   H3S20857   4.268   6.557   6.449 -0.2611 -0.2477  1.2809
  182POPC   C2420858   4.360   6.400   6.328  0.1293 -0.0057  0.2454
  182POPC   H4R20859   4.262   6.349   6.329 -0.6894  1.2887 -2.9998
  182POPC   H4S20860   4.440   6.324   6.323  2.3246  2.2030 -0.5013
  182POPC   C2520861   4.365   6.482   6.197  0.0674  0.3548 -0.4901
  182POPC   H5R20862   4.452   6.552   6.203 -0.1287  0.5916 -0.4229
  182POPC   H5S20863   4.269   6.534   6.176 -1.3602 -2.3781 -1.2519
  182POPC   C2620864   4.374   6.387   6.067 -0.4036 -0.2079 -0.3184
  182POPC   H6R20865   4.305   6.302   6.084 -0.3952 -0.4937 -1.6152
  182POPC   H6S20866   4.478   6.350   6.071  0.0683  0.7676 -2.3786
  182POPC   C2720867   4.349   6.454   5.931 -0.4650 -0.0525  0.1611
  182POPC   H7R20868   4.434   6.523   5.910  1.5020 -1.5901  2.4387
  182POPC   H7S20869   4.257   6.514   5.945  0.3847  1.3887 -0.2349
  182POPC   C2820870   4.336   6.357   5.816  0.1782  0.2487 -0.0871
  182POPC   H8R20871   4.318   6.420   5.726  1.7305 -1.5205 -1.7433
  182POPC   H8S20872   4.256   6.282   5.836  1.7956 -1.2405  1.0383
  182POPC   C2920873   4.469   6.278   5.796  0.2144  0.8441 -0.2283
  182POPC   H9120874   4.469   6.191   5.864 -0.3713  0.6879 -0.4188
  182POPC  C21020875   4.564   6.297   5.703 -0.1722  0.4482 -0.2473
  182POPC  H10120876   4.652   6.232   5.715 -1.3772 -1.2449 -0.0749
  182POPC  C21120877   4.573   6.410   5.606 -0.1082 -0.4157  0.3393
  182POPC  H11R20878   4.676   6.451   5.600 -0.3117  0.0132 -0.2935
  182POPC  H11S20879   4.509   6.495   5.638 -0.9811 -0.8766 -0.1529
  182POPC  C21220880   4.528   6.369   5.463  0.1082  0.9047  0.4506
  182POPC  H12R20881   4.422   6.336   5.451  0.7521 -0.4740 -2.4797
  182POPC  H12S20882   4.588   6.281   5.430 -2.2405 -1.3185  1.6887
  182POPC  C21320883   4.550   6.490   5.363 -0.2633  0.1447 -0.4097
  182POPC  H13R20884   4.468   6.562   5.384  0.9721  1.1178  1.3486
  182POPC  H13S20885   4.545   6.458   5.256  2.8715  3.5851 -1.8079
  182POPC  C21420886   4.683   6.582   5.379 -0.3726 -0.5375 -0.1317
  182POPC  H14R20887   4.765   6.510   5.360 -0.7593 -0.5560 -1.9210
  182POPC  H14S20888   4.677   6.621   5.483 -2.1005 -0.0180 -0.3851
  182POPC  C21520889   4.685   6.689   5.270  0.8398 -0.8436  0.9979
  182POPC  H15R20890   4.690   6.785   5.327  2.3153 -0.1923 -0.1775
  182POPC  H15S20891   4.585   6.703   5.222  1.3443 -0.8846 -0.0894
  182POPC  C21620892   4.791   6.674   5.162 -0.7196  0.3421  0.4181
  182POPC  H16R20893   4.788   6.569   5.126 -0.8283 -0.3129  2.2360
  182POPC  H16S20894   4.892   6.683   5.207 -0.8802 -0.0716  0.8754
  182POPC  C21720895   4.769   6.760   5.043 -0.5336 -0.3468  0.2898
  182POPC  H17R20896   4.806   6.862   5.065 -0.1009 -0.6820  1.1356
  182POPC  H17S20897   4.659   6.774   5.032 -0.7115 -1.1369  0.9738
  182POPC  C21820898   4.838   6.714   4.916  0.1325  0.1597  0.0431
  182POPC  H18R20899   4.838   6.801   4.847 -1.7534 -0.2955 -0.5854
  182POPC  H18S20900   4.778   6.638   4.861  0.0568  0.1862  0.0886
  182POPC  H18T20901   4.940   6.681   4.945 -0.2656 -2.1764 -0.9584
  182POPC   C3320902   4.650   5.966   6.305  0.8703 -0.3062  0.1980
  182POPC   H3X20903   4.732   5.895   6.333  2.2399  0.3964 -1.8454
  182POPC   H3Y20904   4.699   6.065   6.299  0.9047 -0.3360 -0.0284
  182POPC   C3420905   4.589   5.933   6.168 -0.0861 -0.7273  0.4281
  182POPC   H4X20906   4.520   6.017   6.144  1.0892 -0.0360 -0.6449
  182POPC   H4Y20907   4.531   5.838   6.174  0.7481 -1.3572 -1.0015
  182POPC   C3520908   4.685   5.934   6.044  0.0290 -0.7647 -0.0101
  182POPC   H5X20909   4.770   5.863   6.048  1.6245  1.1118  0.8037
  182POPC   H5Y20910   4.734   6.033   6.054  0.5352 -1.0030 -0.0885
  182POPC   C3620911   4.596   5.916   5.924 -0.2572 -0.4243  0.1652
  182POPC   H6X20912   4.518   5.994   5.913 -0.3177 -0.6541 -1.2527
  182POPC   H6Y20913   4.541   5.820   5.936 -3.0942  1.0401 -0.3289
  182POPC   C3720914   4.683   5.903   5.798  0.1865 -0.3241 -0.6501
  182POPC   H7X20915   4.761   5.825   5.809  1.9466  1.2883 -1.1503
  182POPC   H7Y20916   4.738   5.998   5.782  1.3362 -0.5639  1.4039
  182POPC   C3820917   4.600   5.859   5.680  0.8079  0.9396  0.0544
  182POPC   H8X20918   4.534   5.948   5.669  2.4320  1.9742 -2.0153
  182POPC   H8Y20919   4.536   5.769   5.689 -0.3810  1.7379 -0.1801
  182POPC   C3920920   4.669   5.840   5.543 -0.0891 -0.0003 -0.4879
  182POPC   H9X20921   4.598   5.809   5.464  2.0271 -0.9516 -2.1135
  182POPC   H9Y20922   4.738   5.753   5.551 -0.7778 -0.4714  0.6219
  182POPC  C31020923   4.733   5.967   5.493 -0.2827 -0.5168 -0.2629
  182POPC  H10X20924   4.816   6.011   5.553 -1.1511  1.3465 -0.3944
  182POPC  H10Y20925   4.653   6.043   5.482  0.6028  1.2769  3.9037
  182POPC  C31120926   4.792   5.945   5.349  0.1821  0.0208  0.0399
  182POPC  H11X20927   4.713   5.883   5.302 -0.7008 -0.3518  1.9314
  182POPC  H11Y20928   4.891   5.897   5.336 -0.2728 -0.8001 -0.4350
  182POPC  C31220929   4.793   6.065   5.260 -0.4953 -0.9493  1.1256
  182POPC  H12X20930   4.854   6.147   5.301  0.0495 -0.3335 -0.8230
  182POPC  H12Y20931   4.693   6.111   5.247  0.2223  0.3025 -0.2907
  182POPC  C31320932   4.856   6.047   5.122 -0.6689  0.4232 -0.4123
  182POPC  H13X20933   4.799   5.959   5.085  1.7278 -2.9845  3.0823
  182POPC  H13Y20934   4.964   6.024   5.137 -0.6677  0.5649 -0.1977
  182POPC  C31420935   4.855   6.165   5.033  0.9656 -0.5106  0.4365
  182POPC  H14X20936   4.935   6.237   5.060  2.7469 -2.8278  1.7516
  182POPC  H14Y20937   4.765   6.224   5.060  2.1334  0.1885  3.1265
  182POPC  C31520938   4.851   6.126   4.879 -0.3306  0.0555 -0.0021
  182POPC  H15X20939   4.766   6.054   4.877 -0.7013  0.2524  3.0080
  182POPC  H15Y20940   4.929   6.059   4.839 -0.9722  0.3636 -1.8642
  182POPC  C31620941   4.835   6.249   4.793  0.4739  0.1991  0.0967
  182POPC  H16X20942   4.928   6.305   4.768  0.5150  0.0636 -0.0588
  182POPC  H16Y20943   4.758   6.315   4.838  0.6720 -0.3924  1.3344
  182POPC  H16Z20944   4.790   6.221   4.695  0.0726 -0.1768  0.3830
  183POPC     N20945   2.185   2.310   7.192 -0.0387 -1.2821 -0.1277
  183POPC   C1220946   2.283   2.339   7.075  0.4164  0.0715  0.0932
  183POPC  H12A20947   2.254   2.288   6.985  0.2947  2.5983 -1.4178
  183POPC  H12B20948   2.377   2.297   7.106 -0.0120 -0.7835  0.2532
  183POPC   C1320949   2.047   2.364   7.154  0.2205 -0.4195  1.0433
  183POPC  H13A20950   1.970   2.333   7.223  0.6287 -1.9324  0.8552
  183POPC  H13B20951   2.040   2.472   7.154  0.1543 -0.4239  0.9977
  183POPC  H13C20952   2.013   2.321   7.061 -1.2523 -2.1356  2.3092
  183POPC   C1420953   2.175   2.160   7.219  0.1169 -0.1242  0.2893
  183POPC  H14A20954   2.095   2.120   7.157  1.4741 -1.1963 -0.8336
  183POPC  H14B20955   2.264   2.102   7.202  1.3115  1.4070  1.1079
  183POPC  H14C20956   2.152   2.149   7.324 -0.8796  2.0581  0.3608
  183POPC   C1520957   2.227   2.373   7.322  0.6310 -0.1809 -0.0464
  183POPC  H15A20958   2.246   2.478   7.308 -1.6383  0.1716 -1.0030
  183POPC  H15B20959   2.320   2.323   7.344  0.9550  0.0007 -0.9346
  183POPC  H15C20960   2.158   2.356   7.403  0.3442  0.9272 -0.0507
  183POPC   C1120961   2.312   2.482   7.026  0.0951 -0.4805 -0.2511
  183POPC  H11A20962   2.401   2.484   6.959 -1.1882  0.7426 -2.0114
  183POPC  H11B20963   2.341   2.539   7.117  0.1008  1.3620 -1.3438
  183POPC     P20964   2.209   2.686   6.902 -0.0106  0.1745  0.4512
  183POPC   O1320965   2.299   2.769   6.992  0.0485 -0.2098  0.0428
  183POPC   O1420966   2.067   2.739   6.876 -0.5512  0.2444  0.0365
  183POPC   O1220967   2.197   2.543   6.965 -0.2009  0.2267  0.2592
  183POPC   O1120968   2.278   2.660   6.759 -0.7691 -0.1075  0.0059
  183POPC    C120969   2.230   2.571   6.655 -0.4587 -0.2077 -0.0494
  183POPC    HA20970   2.183   2.480   6.699 -0.9662  0.6046  1.1281
  183POPC    HB20971   2.317   2.540   6.594  0.1550 -0.4082  0.8966
  183POPC    C220972   2.123   2.624   6.552 -0.1900  0.3296  0.2201
  183POPC    HS20973   2.099   2.541   6.482 -1.2040  0.3503  0.5301
  183POPC   O2120974   2.171   2.738   6.474  0.2320  0.0991 -0.3162
  183POPC   C2120975   2.273   2.728   6.395  0.0848 -0.3004  0.9884
  183POPC   O2220976   2.353   2.639   6.376 -0.5661  0.0719 -0.4819
  183POPC   C2220977   2.274   2.865   6.315  0.6387 -0.3560 -0.2715
  183POPC   H2R20978   2.303   2.945   6.386 -0.1457 -0.7519  0.5035
  183POPC   H2S20979   2.168   2.868   6.282  0.7619 -0.5970 -0.7042
  183POPC    C320980   1.981   2.672   6.602 -0.3524 -0.0732 -0.3712
  183POPC    HX20981   1.976   2.771   6.651 -1.1238 -0.1457 -0.2900
  183POPC    HY20982   1.961   2.593   6.678  0.9721 -0.6502 -0.5937
  183POPC   O3120983   1.890   2.672   6.497 -0.4475  0.1161  0.0612
  183POPC   C3120984   1.766   2.633   6.521 -0.1840  0.2301  0.2670
  183POPC   O3220985   1.727   2.592   6.627  0.5410 -0.5069 -0.0366
  183POPC   C3220986   1.685   2.649   6.392 -0.4941 -0.5158  0.4345
  183POPC   H2X20987   1.749   2.694   6.313  1.0498  0.3892  2.1311
  183POPC   H2Y20988   1.623   2.735   6.425  1.8554  0.7412  1.8092
  183POPC   C2320989   2.369   2.873   6.196 -0.3112  0.6088 -0.5635
  183POPC   H3R20990   2.361   2.785   6.129 -0.3014  1.5432 -1.8290
  183POPC   H3S20991   2.477   2.869   6.223 -0.4341  1.6769  0.1613
  183POPC   C2420992   2.357   3.000   6.098 -0.9853  0.4626  0.6360
  183POPC   H4R20993   2.435   2.973   6.023 -0.4543 -0.9908  1.6780
  183POPC   H4S20994   2.386   3.093   6.152  1.0083 -0.7233  1.7175
  183POPC   C2520995   2.220   3.008   6.030  0.0879 -1.0982  0.5969
  183POPC   H5R20996   2.149   3.060   6.099  0.8421  0.7989  0.0064
  183POPC   H5S20997   2.192   2.904   6.004  1.1039 -1.4761  0.9887
  183POPC   C2620998   2.223   3.101   5.907 -0.2008 -0.2445  0.2879
  183POPC   H6R20999   2.284   3.046   5.833  0.1673  1.1277 -0.4765
  183POPC   H6S21000   2.267   3.198   5.941 -1.1326 -0.2387  1.5971
  183POPC   C2721001   2.078   3.114   5.841  0.1655  0.6498  0.7410
  183POPC   H7R21002   2.026   3.186   5.908 -0.2705 -0.0758  1.2062
  183POPC   H7S21003   2.049   3.006   5.843  0.6523  0.5210  1.9367
  183POPC   C2821004   2.106   3.177   5.698 -0.9463  0.2769  0.0200
  183POPC   H8R21005   2.151   3.097   5.635 -4.1059 -1.5667 -0.1166
  183POPC   H8S21006   2.186   3.253   5.711 -0.4796 -0.5844  2.7708
  183POPC   C2921007   1.979   3.215   5.628 -0.1014 -0.7529  0.4703
  183POPC   H9121008   1.923   3.300   5.672 -0.1667 -0.2382 -0.5727
  183POPC  C21021009   1.918   3.154   5.523  0.0831  0.0840 -0.4387
  183POPC  H10121010   1.838   3.204   5.465  1.2697  1.4439 -0.9819
  183POPC  C21121011   1.956   3.040   5.434  0.2857  0.4778 -0.7354
  183POPC  H11R21012   1.862   2.982   5.420 -0.2149  0.5255  1.9608
  183POPC  H11S21013   2.031   2.976   5.486 -0.7330 -0.3515 -0.2544
  183POPC  C21221014   2.023   3.075   5.299  0.0544  0.0695  0.1072
  183POPC  H12R21015   2.070   2.988   5.249  0.0172 -0.2537  0.6232
  183POPC  H12S21016   2.109   3.142   5.319  0.6762 -0.8613  0.6520
  183POPC  C21321017   1.926   3.135   5.196 -0.1756 -0.5629 -0.1171
  183POPC  H13R21018   1.974   3.168   5.101 -1.8690  1.0596 -0.4509
  183POPC  H13S21019   1.889   3.233   5.231 -0.5771 -0.3725 -1.0262
  183POPC  C21421020   1.812   3.027   5.165 -0.2834 -0.0046 -0.3242
  183POPC  H14R21021   1.741   3.015   5.249 -0.5149 -1.0161 -0.6510
  183POPC  H14S21022   1.861   2.927   5.165 -3.7821 -1.8518  0.1860
  183POPC  C21521023   1.744   3.053   5.034  0.2688  0.1821 -0.8833
  183POPC  H15R21024   1.807   3.017   4.951  0.9077 -0.0668 -0.3017
  183POPC  H15S21025   1.732   3.163   5.023  0.4779  0.4749  1.3154
  183POPC  C21621026   1.600   2.999   5.032 -0.4643  0.5435  0.1274
  183POPC  H16R21027   1.544   3.042   5.118  1.4774 -0.4806  1.9845
  183POPC  H16S21028   1.614   2.892   5.057  0.7809  0.9218  1.1552
  183POPC  C21721029   1.533   3.015   4.895  0.0067  0.1459 -0.3707
  183POPC  H17R21030   1.571   2.956   4.810 -0.0600 -0.5997  0.1075
  183POPC  H17S21031   1.552   3.122   4.872  1.3860 -0.1452 -0.6700
  183POPC  C21821032   1.377   2.993   4.900  0.1130 -0.8643 -0.7262
  183POPC  H18R21033   1.332   3.069   4.967  0.3934  0.5100 -2.0442
  183POPC  H18S21034   1.363   2.892   4.943 -0.3352 -1.4513 -2.1799
  183POPC  H18T21035   1.313   2.993   4.809  0.5812  1.0232 -1.0900
  183POPC   C3321036   1.622   2.518   6.350  0.0968  0.4942 -0.1043
  183POPC   H3X21037   1.597   2.452   6.435 -1.4177  0.1324 -0.7982
  183POPC   H3Y21038   1.700   2.460   6.295 -0.7568 -2.0737  1.2455
  183POPC   C3421039   1.497   2.536   6.264  0.2651 -0.3571  0.0757
  183POPC   H4X21040   1.440   2.626   6.296 -0.7230 -0.2696 -1.8633
  183POPC   H4Y21041   1.440   2.442   6.275  2.0152 -1.3076  1.8283
  183POPC   C3521042   1.543   2.572   6.122  0.1246 -0.0879  0.1110
  183POPC   H5X21043   1.598   2.482   6.088 -1.4621 -0.8083 -0.6818
  183POPC   H5Y21044   1.605   2.664   6.128  2.2449 -1.5364  2.7684
  183POPC   C3621045   1.429   2.581   6.024  0.8378  0.3574 -0.1899
  183POPC   H6X21046   1.342   2.526   6.066  1.5598  0.1393  1.0747
  183POPC   H6Y21047   1.464   2.521   5.938  1.0549 -0.6258  0.5734
  183POPC   C3721048   1.382   2.715   5.975  0.0995  0.2527  0.0270
  183POPC   H7X21049   1.457   2.765   5.910  0.3492 -0.0482  0.0790
  183POPC   H7Y21050   1.377   2.783   6.063  0.3606  2.0497 -1.2925
  183POPC   C3821051   1.245   2.708   5.912  0.3089 -0.3457  0.6016
  183POPC   H8X21052   1.179   2.797   5.922 -0.4114 -0.8635  0.5975
  183POPC   H8Y21053   1.191   2.620   5.951  2.0210 -1.7367 -0.0423
  183POPC   C3921054   1.253   2.665   5.761  0.4115  0.9152  0.3869
  183POPC   H9X21055   1.321   2.577   5.753  3.0204  2.9144 -0.9520
  183POPC   H9Y21056   1.311   2.749   5.717 -2.1668  1.4158 -2.3701
  183POPC  C31021057   1.113   2.635   5.713 -0.8358 -0.0456  0.0276
  183POPC  H10X21058   1.058   2.730   5.727  0.5909  0.8764 -0.4073
  183POPC  H10Y21059   1.061   2.562   5.779 -0.8583  0.2889  0.3856
  183POPC  C31121060   1.102   2.598   5.566  0.6682 -0.8461 -0.7551
  183POPC  H11X21061   1.127   2.692   5.511 -1.8975  0.5934  0.3755
  183POPC  H11Y21062   0.995   2.581   5.543  0.6968 -0.9856 -0.7888
  183POPC  C31221063   1.180   2.473   5.513  0.2571  0.8801  0.6684
  183POPC  H12X21064   1.187   2.392   5.589 -1.2659  0.4331  0.3773
  183POPC  H12Y21065   1.284   2.498   5.483  0.2787  0.0227 -0.0024
  183POPC  C31321066   1.117   2.411   5.390  0.2191 -0.5510  0.5622
  183POPC  H13X21067   1.101   2.489   5.313  1.8362 -0.6229  0.1110
  183POPC  H13Y21068   1.026   2.354   5.416 -1.1325  0.6299 -1.2817
  183POPC  C31421069   1.201   2.311   5.310 -0.2669  0.2137 -0.3181
  183POPC  H14X21070   1.220   2.217   5.365 -0.6831  0.7012  0.6851
  183POPC  H14Y21071   1.303   2.355   5.312  0.0216 -0.4649  0.1413
  183POPC  C31521072   1.149   2.286   5.165  0.3707 -0.2844  0.1662
  183POPC  H15X21073   1.149   2.381   5.106 -3.6285 -0.3647 -0.2329
  183POPC  H15Y21074   1.041   2.263   5.179 -0.1810  2.1016  0.4075
  183POPC  C31621075   1.224   2.176   5.087 -0.3618  0.8594 -0.2635
  183POPC  H16X21076   1.166   2.166   4.993 -2.4377  2.2326  0.7969
  183POPC  H16Y21077   1.211   2.086   5.151 -0.0632  0.1680 -1.1618
  183POPC  H16Z21078   1.333   2.196   5.081 -0.3528  1.4240  1.2891
  184POPC     N21079   1.100   4.538   7.630 -0.4970 -0.0107  0.4341
  184POPC   C1221080   1.094   4.588   7.487 -0.1319  0.0879  0.1535
  184POPC  H12A21081   1.100   4.695   7.475  1.1541 -0.1301 -1.5132
  184POPC  H12B21082   1.000   4.557   7.446 -0.4106 -0.1165  0.9331
  184POPC   C1321083   1.229   4.581   7.705 -0.3427 -0.6545 -0.0573
  184POPC  H13A21084   1.324   4.548   7.665  0.5844  0.0627  1.4435
  184POPC  H13B21085   1.237   4.689   7.713  2.4427 -0.6805 -1.2248
  184POPC  H13C21086   1.223   4.543   7.806  1.5828 -1.6479 -0.2682
  184POPC   C1421087   0.983   4.582   7.708  0.3746  0.3796  0.2127
  184POPC  H14A21088   0.974   4.524   7.798 -1.9873 -1.3544 -1.0360
  184POPC  H14B21089   0.978   4.689   7.726  0.3459  0.0392  2.4883
  184POPC  H14C21090   0.891   4.561   7.655  2.0616 -0.4575 -2.6243
  184POPC   C1521091   1.103   4.392   7.621 -0.1395  0.8116  0.9695
  184POPC  H15A21092   1.110   4.349   7.720  0.4530 -1.2658  0.0825
  184POPC  H15B21093   1.189   4.365   7.561  1.0404  0.4756  2.7274
  184POPC  H15C21094   1.017   4.348   7.573 -0.9160 -1.1770  3.9584
  184POPC   C1121095   1.197   4.520   7.390  0.7628  0.2761 -0.4253
  184POPC  H11A21096   1.170   4.567   7.293 -1.4041  1.5828  0.7325
  184POPC  H11B21097   1.187   4.409   7.385 -0.7465  0.2537  1.6021
  184POPC     P21098   1.409   4.681   7.380 -0.2531  0.0887  0.4331
  184POPC   O1321099   1.534   4.698   7.456  0.0649 -0.9618  0.3229
  184POPC   O1421100   1.316   4.797   7.372 -0.2746 -0.0757 -0.1790
  184POPC   O1221101   1.336   4.545   7.420 -0.0403  0.2746  0.4200
  184POPC   O1121102   1.455   4.652   7.226  0.2282 -0.4607  0.3024
  184POPC    C121103   1.403   4.554   7.138 -0.9047  0.2316  0.3357
  184POPC    HA21104   1.299   4.574   7.107 -0.8205 -1.1298 -0.9292
  184POPC    HB21105   1.396   4.451   7.178  1.8617 -1.1854 -2.4399
  184POPC    C221106   1.493   4.522   7.017 -0.3136 -0.4302 -0.0465
  184POPC    HS21107   1.447   4.445   6.952 -1.1341  0.8062 -0.9668
  184POPC   O2121108   1.625   4.479   7.063  0.1834  0.0316 -0.4935
  184POPC   C2121109   1.632   4.348   7.086  0.0782  0.2834 -0.4882
  184POPC   O2221110   1.546   4.266   7.082  0.2156 -0.2501 -0.0442
  184POPC   C2221111   1.764   4.313   7.145  0.6729  0.9317 -0.7451
  184POPC   H2R21112   1.748   4.239   7.226 -1.1172  0.6893 -1.2854
  184POPC   H2S21113   1.817   4.401   7.188 -0.5990  1.5520 -0.4119
  184POPC    C321114   1.522   4.651   6.936 -0.2375 -0.2602  0.3732
  184POPC    HX21115   1.579   4.728   6.992  0.1497  0.6225 -1.1962
  184POPC    HY21116   1.424   4.696   6.913 -1.0141 -1.4392  1.2781
  184POPC   O3121117   1.598   4.619   6.819  0.3816  0.2234  0.1121
  184POPC   C3121118   1.531   4.592   6.709 -0.1552 -1.0101  0.1748
  184POPC   O3221119   1.413   4.576   6.697  0.1236 -0.4674  0.4308
  184POPC   C3221120   1.639   4.590   6.604 -0.1791 -0.1583  0.2096
  184POPC   H2X21121   1.719   4.516   6.628 -0.2258  0.1766  1.4829
  184POPC   H2Y21122   1.684   4.690   6.585 -0.0364 -0.5427 -1.6291
  184POPC   C2321123   1.846   4.253   7.029  0.7509  0.4470  0.1724
  184POPC   H3R21124   1.807   4.160   6.983  2.3694 -1.0084  1.6011
  184POPC   H3S21125   1.948   4.224   7.062 -0.4320 -3.2764  1.0996
  184POPC   C2421126   1.864   4.356   6.916 -0.4111  0.2075 -0.1530
  184POPC   H4R21127   1.883   4.460   6.950 -0.3058 -0.0971  0.7358
  184POPC   H4S21128   1.773   4.357   6.852 -0.7256 -0.3110  0.2781
  184POPC   C2521129   1.989   4.336   6.825  0.1573  0.0821  0.1744
  184POPC   H5R21130   2.074   4.304   6.889  0.6755 -1.5195 -1.2197
  184POPC   H5S21131   2.011   4.436   6.781 -1.7843  1.0531  1.2957
  184POPC   C2621132   1.962   4.228   6.727 -0.1655  0.1101  0.5122
  184POPC   H6R21133   1.908   4.144   6.774 -0.3954  0.1872  0.3876
  184POPC   H6S21134   2.058   4.196   6.680 -1.8050 -0.3075 -2.8584
  184POPC   C2721135   1.905   4.275   6.598  0.2820  0.2130  0.1771
  184POPC   H7R21136   1.941   4.379   6.580 -0.1158  0.1825 -0.8142
  184POPC   H7S21137   1.796   4.294   6.600  0.3084  0.7192 -1.7331
  184POPC   C2821138   1.933   4.185   6.480 -0.8835 -0.0756 -0.4072
  184POPC   H8R21139   1.894   4.084   6.508 -3.2816  0.8047 -0.3407
  184POPC   H8S21140   2.041   4.162   6.468 -1.1693 -2.6399  1.1187
  184POPC   C2921141   1.872   4.231   6.348 -0.4068  0.0841 -0.4396
  184POPC   H9121142   1.766   4.259   6.359 -0.4501 -0.5899  1.0125
  184POPC  C21021143   1.940   4.237   6.235  1.0216 -1.0832  0.6160
  184POPC  H10121144   1.880   4.271   6.150  2.8783  2.6474  0.5941
  184POPC  C21121145   2.086   4.209   6.209  0.0617  0.3889 -0.5344
  184POPC  H11R21146   2.133   4.146   6.287  1.6270 -1.0131 -2.4853
  184POPC  H11S21147   2.147   4.299   6.187 -0.0281  0.6568  0.2796
  184POPC  C21221148   2.089   4.109   6.095 -0.0478  0.8744 -0.1955
  184POPC  H12R21149   2.016   4.025   6.090  1.0249 -0.1147  0.1881
  184POPC  H12S21150   2.182   4.047   6.097 -0.6055 -0.1444 -2.4349
  184POPC  C21321151   2.073   4.163   5.956  0.1518 -0.2120 -0.0852
  184POPC  H13R21152   2.155   4.238   5.947 -0.9630  1.1738  0.8817
  184POPC  H13S21153   1.980   4.222   5.950  1.2113  1.6728  1.1048
  184POPC  C21421154   2.098   4.063   5.836  0.2385 -0.1660 -0.2244
  184POPC  H14R21155   1.998   4.020   5.812 -0.4065  0.9701  0.3145
  184POPC  H14S21156   2.166   3.977   5.852 -1.1321 -1.3537 -0.6079
  184POPC  C21521157   2.134   4.128   5.708  0.3127 -0.3973  0.0194
  184POPC  H15R21158   2.158   4.038   5.646 -0.7337  0.1486 -1.2076
  184POPC  H15S21159   2.227   4.179   5.740  1.5937 -1.8342 -1.2501
  184POPC  C21621160   2.024   4.219   5.656  0.8619 -0.8380 -0.5590
  184POPC  H16R21161   2.004   4.293   5.736  1.9738  1.0275 -1.9520
  184POPC  H16S21162   1.927   4.169   5.634  0.0964 -0.9319  2.5030
  184POPC  C21721163   2.076   4.308   5.541 -0.1771 -0.4859  0.0364
  184POPC  H17R21164   2.185   4.319   5.560 -0.3078  1.2898 -0.0606
  184POPC  H17S21165   2.030   4.409   5.535 -0.9269 -0.8890 -1.5154
  184POPC  C21821166   2.063   4.261   5.403  0.3338  0.0045  0.2526
  184POPC  H18R21167   2.122   4.322   5.331 -1.1001  1.7450  0.4830
  184POPC  H18S21168   1.955   4.261   5.376  0.2945 -0.8433  0.3865
  184POPC  H18T21169   2.097   4.156   5.413 -1.4173 -0.6492 -0.2892
  184POPC   C3321170   1.572   4.530   6.481  0.7594  0.0734 -0.1447
  184POPC   H3X21171   1.475   4.580   6.461 -1.0404 -2.6505  1.1726
  184POPC   H3Y21172   1.550   4.422   6.492 -0.2147  0.0996 -1.5228
  184POPC   C3421173   1.658   4.556   6.362  0.4253 -0.0553  0.3553
  184POPC   H4X21174   1.760   4.519   6.388 -1.1627 -3.4471  2.4538
  184POPC   H4Y21175   1.672   4.664   6.340  0.1753  0.1096  1.0093
  184POPC   C3521176   1.631   4.495   6.223  1.0506  0.0673  0.2612
  184POPC   H5X21177   1.522   4.496   6.201  1.1746 -0.7753 -0.4542
  184POPC   H5Y21178   1.669   4.391   6.229  0.0665 -0.5059 -2.2948
  184POPC   C3621179   1.700   4.566   6.110 -0.3874  0.1142  0.0854
  184POPC   H6X21180   1.800   4.593   6.151 -0.5099  0.6388  0.0552
  184POPC   H6Y21181   1.645   4.662   6.098  0.9729  0.6236 -3.5007
  184POPC   C3721182   1.695   4.483   5.978 -0.1296 -0.2629 -0.0959
  184POPC   H7X21183   1.592   4.459   5.943 -0.3247  2.6784 -1.9165
  184POPC   H7Y21184   1.757   4.398   6.013 -0.4336 -0.4076  0.0981
  184POPC   C3821185   1.747   4.578   5.870 -0.2976  0.7174  0.0477
  184POPC   H8X21186   1.857   4.580   5.889 -0.3378 -0.6883  0.5039
  184POPC   H8Y21187   1.697   4.676   5.886 -0.1988  0.8955 -0.6895
  184POPC   C3921188   1.710   4.531   5.729 -0.0051 -1.2513  0.9698
  184POPC   H9X21189   1.605   4.563   5.710  0.8938  3.6076  2.6673
  184POPC   H9Y21190   1.712   4.420   5.732 -1.2543 -1.3078  0.3334
  184POPC  C31021191   1.812   4.586   5.627 -0.2383 -1.3549 -0.9854
  184POPC  H10X21192   1.916   4.548   5.640  1.0547  1.9996 -0.5620
  184POPC  H10Y21193   1.816   4.696   5.640  0.0616 -1.6574  2.5450
  184POPC  C31121194   1.770   4.567   5.478  0.1281  0.2054 -0.0990
  184POPC  H11X21195   1.660   4.577   5.465 -0.4985 -3.5684  0.9531
  184POPC  H11Y21196   1.789   4.463   5.444  2.3968  0.4238  0.2993
  184POPC  C31221197   1.846   4.664   5.392 -0.1645 -0.3430  0.1545
  184POPC  H12X21198   1.956   4.659   5.406 -0.1900 -1.2484  0.1262
  184POPC  H12Y21199   1.818   4.767   5.422 -0.0992 -0.3643  0.2934
  184POPC  C31321200   1.815   4.637   5.243 -0.0368  0.1148  0.2386
  184POPC  H13X21201   1.710   4.668   5.226 -0.0541 -1.1974 -2.7427
  184POPC  H13Y21202   1.819   4.530   5.212 -0.4993  0.0850  0.2744
  184POPC  C31421203   1.917   4.717   5.157  0.1942 -0.2619  0.5740
  184POPC  H14X21204   2.017   4.671   5.176  1.0074  0.9522 -0.6015
  184POPC  H14Y21205   1.924   4.820   5.199  2.9952 -0.0234 -0.2258
  184POPC  C31521206   1.891   4.716   5.010 -0.1487 -0.2844  0.1952
  184POPC  H15X21207   1.786   4.745   4.986  0.4688  0.3001 -2.0086
  184POPC  H15Y21208   1.898   4.610   4.979 -1.8355 -0.2466 -0.4233
  184POPC  C31621209   1.990   4.810   4.936  1.2987  0.0210 -0.3453
  184POPC  H16X21210   2.100   4.792   4.936  1.6930  1.8846  1.9057
  184POPC  H16Y21211   1.971   4.909   4.984 -0.0048 -0.3873  0.0220
  184POPC  H16Z21212   1.959   4.808   4.830  0.7349 -2.0672 -0.1792
  185POPC     N21213   0.057   5.961   2.091  1.1788  0.3405  0.1181
  185POPC   C1221214   0.075   5.931   2.234 -0.0491 -0.8524 -0.1525
  185POPC  H12A21215   0.008   5.854   2.270 -1.8896  1.2090  1.1157
  185POPC  H12B21216   0.038   6.020   2.284  1.2974 -0.0724 -0.4937
  185POPC   C1321217  -0.092   6.003   2.061  0.0680  0.5788  0.0285
  185POPC  H13A21218  -0.147   5.911   2.070  0.6483  0.2810  0.6508
  185POPC  H13B21219  -0.138   6.071   2.131 -2.6503 -1.1768  0.0856
  185POPC  H13C21220  -0.109   6.034   1.959 -1.5633 -0.3735 -0.0097
  185POPC   C1421221   0.140   6.075   2.043 -0.3205  0.6398 -0.7034
  185POPC  H14A21222   0.141   6.070   1.935 -0.0432  1.3103 -0.7373
  185POPC  H14B21223   0.104   6.172   2.075 -1.0781  1.2170 -3.1090
  185POPC  H14C21224   0.245   6.067   2.066 -0.3960  1.0563 -0.1946
  185POPC   C1521225   0.096   5.835   2.015  0.3983 -0.3473  0.7143
  185POPC  H15A21226   0.067   5.746   2.070  1.3834 -2.2071 -1.5779
  185POPC  H15B21227   0.203   5.828   2.018  0.4441  0.0109  4.0359
  185POPC  H15C21228   0.042   5.826   1.922 -0.1415  1.4796  0.8198
  185POPC   C1121229   0.217   5.913   2.297 -0.0962  0.7867 -0.6481
  185POPC  H11A21230   0.221   5.917   2.408 -0.0594  4.3497 -0.6724
  185POPC  H11B21231   0.280   6.003   2.283  1.1922  0.3757  1.9066
  185POPC     P21232   0.263   5.650   2.279 -0.2306  0.1815 -0.2408
  185POPC   O1321233   0.357   5.564   2.209 -0.0888  0.2598 -0.0246
  185POPC   O1421234   0.118   5.629   2.265 -0.0956  0.0104 -0.3014
  185POPC   O1221235   0.299   5.804   2.244  0.1006  0.0391  0.2382
  185POPC   O1121236   0.295   5.640   2.430 -0.4063 -0.7979  0.4648
  185POPC    C121237   0.434   5.658   2.476  0.3751 -0.2460 -0.3990
  185POPC    HA21238   0.493   5.724   2.409  1.8991 -0.9753  0.1694
  185POPC    HB21239   0.486   5.560   2.478 -1.9908 -1.5512  1.0447
  185POPC    C221240   0.448   5.729   2.613 -0.2002 -0.5068 -0.5460
  185POPC    HS21241   0.543   5.698   2.662 -1.3404 -1.1014  1.4243
  185POPC   O2121242   0.334   5.700   2.702  0.3576 -0.3817 -0.9168
  185POPC   C2121243   0.363   5.638   2.817  0.1188  0.1431 -0.2831
  185POPC   O2221244   0.472   5.588   2.841 -0.2186 -0.5094 -0.5887
  185POPC   C2221245   0.250   5.658   2.919  0.0018  0.8315  1.0177
  185POPC   H2R21246   0.167   5.595   2.880  0.9637  1.1024 -1.7168
  185POPC   H2S21247   0.227   5.767   2.914 -0.2354  0.7394 -1.7885
  185POPC    C321248   0.458   5.880   2.601  0.0632 -1.5372 -0.5391
  185POPC    HX21249   0.363   5.911   2.551 -0.3624 -0.7425  0.7089
  185POPC    HY21250   0.540   5.916   2.535  0.3378 -0.0811  0.5495
  185POPC   O3121251   0.489   5.955   2.722  0.1404 -0.2829  0.7704
  185POPC   C3121252   0.388   5.984   2.803 -0.1616  0.2152 -0.4090
  185POPC   O3221253   0.269   5.955   2.784  0.0093 -0.1852  0.1712
  185POPC   C3221254   0.451   6.054   2.933  0.0872 -0.5723  0.1173
  185POPC   H2X21255   0.508   6.136   2.886  2.2100 -2.2791 -0.4156
  185POPC   H2Y21256   0.513   5.982   2.990 -1.6480 -3.1036 -1.0080
  185POPC   C2321257   0.271   5.603   3.060  0.2995  0.1722  0.7143
  185POPC   H3R21258   0.315   5.501   3.064 -0.7175 -0.3637 -0.7257
  185POPC   H3S21259   0.167   5.592   3.100 -0.9046  2.0766 -1.6286
  185POPC   C2421260   0.341   5.712   3.143 -0.8277  0.4534 -0.3655
  185POPC   H4R21261   0.277   5.802   3.157 -1.3057 -0.0855  1.1466
  185POPC   H4S21262   0.417   5.750   3.072 -0.8668 -0.9860 -1.2197
  185POPC   C2521263   0.411   5.656   3.261  0.0469 -0.4186 -1.1753
  185POPC   H5R21264   0.473   5.733   3.310  0.8365 -1.8468  0.1637
  185POPC   H5S21265   0.472   5.566   3.237 -1.6975 -1.4548 -2.0003
  185POPC   C2621266   0.306   5.612   3.371  0.3363  0.2933  0.0535
  185POPC   H6R21267   0.237   5.535   3.330  0.6076  0.1052 -0.0507
  185POPC   H6S21268   0.244   5.703   3.387 -0.5098  0.0702 -1.7649
  185POPC   C2721269   0.377   5.574   3.504  0.3356  0.0407 -0.1590
  185POPC   H7R21270   0.456   5.649   3.527  1.0984 -0.7986 -0.0005
  185POPC   H7S21271   0.417   5.473   3.480  1.6651  0.8965 -1.7471
  185POPC   C2821272   0.267   5.553   3.612  0.9380 -0.7563  0.2434
  185POPC   H8R21273   0.170   5.522   3.566 -0.7263 -0.0280  2.9714
  185POPC   H8S21274   0.231   5.650   3.651 -2.8272 -1.3787 -1.1954
  185POPC   C2921275   0.306   5.459   3.724  0.0274  0.2514  0.2254
  185POPC   H9121276   0.366   5.372   3.691 -0.5995  0.0871 -0.5211
  185POPC  C21021277   0.296   5.483   3.858  1.0034  0.0372 -0.6083
  185POPC  H10121278   0.328   5.408   3.932  0.2220  1.0637  0.8460
  185POPC  C21121279   0.238   5.606   3.924 -0.3648 -0.7974  0.2039
  185POPC  H11R21280   0.207   5.683   3.849  0.5253 -2.3622 -1.8681
  185POPC  H11S21281   0.312   5.654   3.992 -1.3395  0.5721  0.3499
  185POPC  C21221282   0.118   5.569   4.003  0.0979 -0.3595  0.4463
  185POPC  H12R21283   0.049   5.506   3.943  0.5595  1.8198 -2.6180
  185POPC  H12S21284   0.070   5.669   4.002  1.2863  0.2821  2.0938
  185POPC  C21321285   0.145   5.512   4.142 -0.7279 -0.0482  0.5031
  185POPC  H13R21286   0.189   5.601   4.192 -2.2993  1.9898 -1.5321
  185POPC  H13S21287   0.210   5.423   4.131 -0.0944  0.7047 -3.0181
  185POPC  C21421288   0.020   5.491   4.220  0.1599  0.9015 -0.3822
  185POPC  H14R21289  -0.055   5.430   4.165  1.6266 -0.9261 -0.4299
  185POPC  H14S21290  -0.028   5.591   4.229 -1.0065  0.2646  0.8241
  185POPC  C21521291   0.039   5.426   4.359 -0.1429 -0.4524  0.8543
  185POPC  H15R21292   0.062   5.317   4.356 -2.6968 -1.0606  0.3907
  185POPC  H15S21293  -0.060   5.439   4.409  0.4822  0.4382  1.8840
  185POPC  C21621294   0.158   5.488   4.441 -0.3831  0.0928  0.2405
  185POPC  H16R21295   0.252   5.484   4.382  0.1655 -3.1043  1.1812
  185POPC  H16S21296   0.170   5.424   4.531  1.1706 -0.3437 -0.2472
  185POPC  C21721297   0.121   5.623   4.504  1.1433 -0.0253  0.0465
  185POPC  H17R21298   0.024   5.620   4.559 -0.4223 -0.1332 -2.5502
  185POPC  H17S21299   0.103   5.694   4.419 -0.7966 -1.1161 -0.5272
  185POPC  C21821300   0.241   5.673   4.583 -0.0052 -0.3651 -0.4235
  185POPC  H18R21301   0.283   5.588   4.641 -1.5079 -0.7669  0.1240
  185POPC  H18S21302   0.207   5.759   4.644 -0.4526 -1.2073  0.5416
  185POPC  H18T21303   0.321   5.712   4.516 -0.8771  3.5530  0.5425
  185POPC   C3321304   0.354   6.103   3.048  0.4689 -0.4754  0.9986
  185POPC   H3X21305   0.292   6.020   3.087  0.9128 -1.1777  0.2564
  185POPC   H3Y21306   0.276   6.170   3.007 -1.3571 -3.6788 -1.1814
  185POPC   C3421307   0.426   6.166   3.174  0.4084 -0.3883 -0.8480
  185POPC   H4X21308   0.344   6.206   3.238 -0.1627 -0.6274 -1.4219
  185POPC   H4Y21309   0.485   6.251   3.134  0.5162  1.4567  2.7967
  185POPC   C3521310   0.509   6.072   3.265 -0.1091  0.1474  0.2594
  185POPC   H5X21311   0.588   6.022   3.203 -1.5157 -1.4750 -0.3032
  185POPC   H5Y21312   0.433   5.996   3.295 -0.7019  1.1102  1.2433
  185POPC   C3621313   0.557   6.140   3.398 -0.1481  0.1009  0.1884
  185POPC   H6X21314   0.480   6.207   3.441 -0.0205  0.4076 -0.0608
  185POPC   H6Y21315   0.644   6.200   3.365  0.6410 -0.8663  0.4252
  185POPC   C3721316   0.591   6.033   3.506 -0.5121 -0.0561  0.4090
  185POPC   H7X21317   0.595   5.934   3.454 -0.4541  1.5314 -2.8584
  185POPC   H7Y21318   0.510   6.041   3.581  0.4007  0.3025  1.3773
  185POPC   C3821319   0.734   6.051   3.567  0.4462  0.2650  0.1296
  185POPC   H8X21320   0.758   6.159   3.578  0.0848  0.1722  2.2696
  185POPC   H8Y21321   0.813   6.000   3.509  0.1524 -0.6323  0.5029
  185POPC   C3921322   0.741   6.007   3.719 -0.3942  0.5994  0.1798
  185POPC   H9X21323   0.710   5.901   3.734  1.0070  0.4334  2.3704
  185POPC   H9Y21324   0.670   6.063   3.784 -0.0800 -0.0353  1.0894
  185POPC  C31021325   0.887   6.026   3.780  0.0782 -0.5825  0.3429
  185POPC  H10X21326   0.949   6.094   3.718 -0.3545  0.5404  1.0939
  185POPC  H10Y21327   0.930   5.924   3.775 -0.1837 -0.6419 -1.3745
  185POPC  C31121328   0.891   6.084   3.918 -0.6873  0.2932  0.2959
  185POPC  H11X21329   0.852   6.188   3.915 -0.4773  0.4284  1.6934
  185POPC  H11Y21330   0.997   6.080   3.951 -0.6361 -2.7568  0.0543
  185POPC  C31221331   0.810   6.005   4.020  0.9745 -0.4912  0.4387
  185POPC  H12X21332   0.868   5.911   4.034  0.5525 -0.9928 -0.9698
  185POPC  H12Y21333   0.711   5.973   3.980  1.4327  0.1370 -1.2697
  185POPC  C31321334   0.786   6.082   4.149  0.3190 -0.2078 -0.7774
  185POPC  H13X21335   0.715   6.165   4.131  2.4035  2.1096  1.1032
  185POPC  H13Y21336   0.880   6.139   4.169  0.5857 -0.4876 -1.2022
  185POPC  C31421337   0.748   5.991   4.265  0.0657 -0.3331  0.0585
  185POPC  H14X21338   0.825   5.914   4.285 -1.0038 -1.6292 -0.6286
  185POPC  H14Y21339   0.649   5.941   4.257  0.0545 -1.0987  3.5154
  185POPC  C31521340   0.729   6.077   4.400 -0.1579  0.6684 -0.0718
  185POPC  H15X21341   0.651   6.153   4.379 -0.0966  0.0930 -2.6115
  185POPC  H15Y21342   0.824   6.128   4.427  1.0924  0.7648 -4.0105
  185POPC  C31621343   0.687   5.984   4.515 -0.3868 -0.1662 -0.0828
  185POPC  H16X21344   0.690   6.033   4.615  0.1722  0.7305 -0.5252
  185POPC  H16Y21345   0.736   5.885   4.519 -2.6457 -1.3926 -0.9934
  185POPC  H16Z21346   0.583   5.958   4.484 -1.0047  2.8113 -0.8654
  186POPC     N21347   1.654   2.890   2.336 -0.1168 -0.6641  0.0095
  186POPC   C1221348   1.549   2.819   2.425 -0.6228 -0.1057 -0.0898
  186POPC  H12A21349   1.572   2.714   2.422 -0.2478 -0.0666  0.9508
  186POPC  H12B21350   1.450   2.838   2.388  0.0405  2.4939 -0.7707
  186POPC   C1321351   1.789   2.865   2.396 -0.0033 -0.6799 -0.4791
  186POPC  H13A21352   1.778   2.870   2.503  1.3777 -0.3386 -0.3345
  186POPC  H13B21353   1.825   2.764   2.390 -3.5285 -2.0000 -2.1845
  186POPC  H13C21354   1.868   2.932   2.364  1.8098 -2.1237  0.7491
  186POPC   C1421355   1.653   2.843   2.204 -0.1452 -0.2418 -0.6567
  186POPC  H14A21356   1.684   2.741   2.193  1.6159  0.2753 -0.7392
  186POPC  H14B21357   1.559   2.855   2.152  0.0730 -0.3856 -1.0885
  186POPC  H14C21358   1.728   2.891   2.143 -0.3789  0.7941 -0.1520
  186POPC   C1521359   1.627   3.039   2.340  0.0515 -0.0060 -0.0968
  186POPC  H15A21360   1.545   3.071   2.277  2.1235  0.9828 -2.4626
  186POPC  H15B21361   1.709   3.103   2.315 -0.7620  1.8000  1.6230
  186POPC  H15C21362   1.589   3.068   2.437 -5.4990 -0.4179 -1.7880
  186POPC   C1121363   1.554   2.865   2.568  0.3489 -0.5778 -0.2114
  186POPC  H11A21364   1.465   2.828   2.622 -0.7625  0.6196 -1.1717
  186POPC  H11B21365   1.547   2.976   2.575 -1.1520 -0.5398 -1.6409
  186POPC     P21366   1.690   2.673   2.680  0.0367  0.0147  0.3581
  186POPC   O1321367   1.811   2.656   2.758 -0.0767  0.1106  0.4089
  186POPC   O1421368   1.690   2.592   2.557  0.9898 -0.2870  0.2217
  186POPC   O1221369   1.668   2.825   2.645 -0.4392 -0.4967  0.1840
  186POPC   O1121370   1.569   2.631   2.762  0.3367 -0.0407  0.6090
  186POPC    C121371   1.549   2.656   2.902 -0.0725 -0.8140  0.2843
  186POPC    HA21372   1.473   2.737   2.909  1.1845  0.7919 -2.8302
  186POPC    HB21373   1.644   2.674   2.956  2.3993 -2.1086 -3.2262
  186POPC    C221374   1.470   2.539   2.955 -0.4309 -0.0756  0.3273
  186POPC    HS21375   1.369   2.545   2.910  0.0327 -0.8762 -0.8763
  186POPC   O2121376   1.474   2.550   3.097 -1.0848 -0.1732 -0.1742
  186POPC   C2121377   1.351   2.572   3.162 -0.1989 -0.2262  0.5245
  186POPC   O2221378   1.246   2.571   3.102  0.7562  0.1087  0.0638
  186POPC   C2221379   1.378   2.581   3.310 -0.0886 -0.0712 -0.2903
  186POPC   H2R21380   1.374   2.689   3.334  1.9091 -0.0494  0.0872
  186POPC   H2S21381   1.483   2.553   3.331  0.3288  0.0558 -2.0859
  186POPC    C321382   1.544   2.410   2.922  0.0456 -0.0965 -0.0748
  186POPC    HX21383   1.654   2.419   2.937 -0.1641  1.9695  0.5764
  186POPC    HY21384   1.537   2.400   2.812  1.0912  1.6561 -0.3328
  186POPC   O3121385   1.498   2.293   3.008  0.4956 -0.4010  0.1873
  186POPC   C3121386   1.387   2.247   2.963 -0.1904 -0.4161  0.0994
  186POPC   O3221387   1.335   2.277   2.858 -0.4922 -0.0445  0.2132
  186POPC   C3221388   1.342   2.131   3.051 -0.2687  0.5482  0.2532
  186POPC   H2X21389   1.429   2.084   3.102 -0.9211 -1.4679 -0.3873
  186POPC   H2Y21390   1.311   2.052   2.980  0.4526 -1.0992  1.6956
  186POPC   C2321391   1.274   2.498   3.395  0.1346 -0.1416  0.4199
  186POPC   H3R21392   1.312   2.394   3.401 -2.5268 -1.1739  0.5908
  186POPC   H3S21393   1.177   2.499   3.341  1.4687  2.0078 -2.1864
  186POPC   C2421394   1.270   2.563   3.538 -0.1235  0.2200  0.5464
  186POPC   H4R21395   1.206   2.654   3.546 -1.8429 -0.9043  0.2662
  186POPC   H4S21396   1.377   2.587   3.554  0.1895  1.8187 -3.0082
  186POPC   C2521397   1.210   2.460   3.642 -0.4527 -0.6724  0.0171
  186POPC   H5R21398   1.289   2.383   3.647  0.3986  0.1968  0.2767
  186POPC   H5S21399   1.129   2.416   3.581  0.0157 -1.1099 -0.2949
  186POPC   C2621400   1.154   2.506   3.774 -0.4987  0.1965  0.0809
  186POPC   H6R21401   1.101   2.424   3.827 -1.4303  0.2852 -0.7082
  186POPC   H6S21402   1.081   2.588   3.757 -1.2270  0.1016  2.3949
  186POPC   C2721403   1.254   2.540   3.883  0.3595 -0.4333  0.2881
  186POPC   H7R21404   1.306   2.626   3.835 -1.3556  0.7083  0.3677
  186POPC   H7S21405   1.328   2.457   3.887  0.3127 -0.4948 -0.1331
  186POPC   C2821406   1.202   2.584   4.024  0.2908 -0.2308 -0.0184
  186POPC   H8R21407   1.134   2.670   4.005 -1.8583 -1.8504 -0.0403
  186POPC   H8S21408   1.291   2.621   4.078 -0.8237  0.4809  1.4080
  186POPC   C2921409   1.133   2.470   4.109 -0.4759  0.8061  0.0957
  186POPC   H9121410   1.090   2.389   4.049  0.5108  0.4368 -0.1359
  186POPC  C21021411   1.121   2.453   4.241  0.0782 -0.0001  0.0251
  186POPC  H10121412   1.055   2.379   4.289 -0.0773  1.0339  1.4583
  186POPC  C21121413   1.163   2.554   4.341 -0.1694  0.0201 -0.9901
  186POPC  H11R21414   1.066   2.581   4.390  1.5959  1.6909  1.8519
  186POPC  H11S21415   1.201   2.647   4.293  1.2618 -0.3145 -0.5421
  186POPC  C21221416   1.271   2.505   4.437 -0.3762 -0.8549 -0.4507
  186POPC  H12R21417   1.375   2.508   4.398  0.1578  1.2491  0.9361
  186POPC  H12S21418   1.255   2.403   4.478  2.4386 -0.9196  0.7687
  186POPC  C21321419   1.287   2.586   4.569  0.0639  0.2862 -0.3441
  186POPC  H13R21420   1.185   2.625   4.587  0.4346  0.7179  0.9157
  186POPC  H13S21421   1.355   2.671   4.546 -2.2670  1.6705 -2.6381
  186POPC  C21421422   1.347   2.501   4.688  0.5653 -0.0231  0.0869
  186POPC  H14R21423   1.433   2.442   4.650 -0.4376 -0.0549 -2.3572
  186POPC  H14S21424   1.274   2.423   4.717  1.5195 -0.6792  0.7645
  186POPC  C21521425   1.378   2.586   4.812  0.5554  1.3563 -0.0148
  186POPC  H15R21426   1.300   2.664   4.823 -1.0316  0.5614 -3.9107
  186POPC  H15S21427   1.474   2.639   4.794  1.7525  0.2074  2.4767
  186POPC  C21621428   1.407   2.498   4.931 -0.3248  0.2777  0.7945
  186POPC  H16R21429   1.504   2.445   4.919  1.3316  3.0232  1.2017
  186POPC  H16S21430   1.337   2.413   4.944  1.7160 -1.2932  2.0367
  186POPC  C21721431   1.421   2.582   5.058  0.6868 -0.5598  0.0349
  186POPC  H17R21432   1.316   2.611   5.080  0.4068 -2.0563  0.8124
  186POPC  H17S21433   1.486   2.668   5.032 -2.0252  2.9586  3.6418
  186POPC  C21821434   1.474   2.503   5.175 -0.2743 -0.5554 -0.2959
  186POPC  H18R21435   1.411   2.528   5.263 -0.3781 -0.5140 -0.3819
  186POPC  H18S21436   1.472   2.393   5.159  0.5292 -0.6688  0.3607
  186POPC  H18T21437   1.579   2.528   5.199 -0.0225 -1.1491 -0.7577
  186POPC   C3321438   1.227   2.154   3.155 -0.3547  0.2739  0.0857
  186POPC   H3X21439   1.160   2.221   3.098 -2.3113 -0.3457  1.5271
  186POPC   H3Y21440   1.254   2.220   3.240  1.2695  0.0056 -0.1998
  186POPC   C3421441   1.148   2.028   3.193 -0.1465 -0.3089  0.0071
  186POPC   H4X21442   1.220   1.965   3.249 -0.0413  0.9349  1.3286
  186POPC   H4Y21443   1.118   1.979   3.098  0.3918 -0.4798 -0.0794
  186POPC   C3521444   1.030   2.055   3.283  0.5155 -0.1509 -0.3112
  186POPC   H5X21445   0.958   1.971   3.274 -1.0573  1.2393 -1.2638
  186POPC   H5Y21446   0.975   2.149   3.260  1.1189  0.6925  1.5090
  186POPC   C3621447   1.082   2.066   3.434  0.3029 -0.0565 -0.2600
  186POPC   H6X21448   1.159   2.145   3.447  1.7869 -1.3312 -0.8884
  186POPC   H6Y21449   1.135   1.975   3.469 -0.1673  0.0559  0.7754
  186POPC   C3721450   0.970   2.105   3.528 -0.4782  0.3413 -0.0065
  186POPC   H7X21451   0.877   2.061   3.488 -1.5053  2.6240 -0.3127
  186POPC   H7Y21452   0.966   2.216   3.520  1.9122  0.5160  0.3829
  186POPC   C3821453   1.004   2.065   3.669 -0.3384 -0.3769 -1.0085
  186POPC   H8X21454   1.102   2.105   3.705 -0.9425 -0.3638  0.7431
  186POPC   H8Y21455   1.021   1.956   3.681  1.2331 -0.1454 -0.8474
  186POPC   C3921456   0.904   2.121   3.782 -0.0754  0.2643  0.7710
  186POPC   H9X21457   0.813   2.061   3.764  0.4171 -0.6918  1.4146
  186POPC   H9Y21458   0.894   2.231   3.766  2.4408  0.6838  1.6586
  186POPC  C31021459   0.949   2.105   3.922 -0.3655  0.2931 -0.5683
  186POPC  H10X21460   1.022   2.183   3.953  0.1106  1.3676 -3.9249
  186POPC  H10Y21461   1.015   2.016   3.925 -1.5744 -0.6024  1.9393
  186POPC  C31121462   0.841   2.103   4.034  0.1417 -1.1977 -0.2678
  186POPC  H11X21463   0.767   2.027   4.002 -0.2652  0.6255 -4.2795
  186POPC  H11Y21464   0.788   2.201   4.030 -0.2259 -1.4160 -1.0819
  186POPC  C31221465   0.908   2.088   4.173  0.4001 -0.2408 -0.0980
  186POPC  H12X21466   0.989   2.162   4.186 -1.6317  1.9414  0.9766
  186POPC  H12Y21467   0.954   1.987   4.185  1.5659  0.1781 -0.8279
  186POPC  C31321468   0.806   2.117   4.282  0.0436 -0.0916 -0.5659
  186POPC  H13X21469   0.716   2.052   4.271  0.1069  0.0879 -2.4166
  186POPC  H13Y21470   0.785   2.225   4.271 -3.1011 -0.3937  1.3328
  186POPC  C31421471   0.868   2.085   4.416  0.4545 -1.0564  0.2028
  186POPC  H14X21472   0.900   2.180   4.465 -0.6132 -0.3315 -0.4382
  186POPC  H14Y21473   0.953   2.015   4.401  0.2826 -1.7531  2.2294
  186POPC  C31521474   0.749   2.024   4.503 -0.1537  0.6829 -0.0276
  186POPC  H15X21475   0.695   1.944   4.448 -0.6449  1.3485 -0.5273
  186POPC  H15Y21476   0.667   2.096   4.520 -0.2893  0.2532  1.2225
  186POPC  C31621477   0.797   1.982   4.644 -0.3366  0.2342 -0.9093
  186POPC  H16X21478   0.714   1.993   4.718 -0.7380 -0.4391 -1.2539
  186POPC  H16Y21479   0.871   2.053   4.687 -0.5768  0.0439 -0.1653
  186POPC  H16Z21480   0.848   1.885   4.653 -0.1688  0.4527  0.9403
  187POPC     N21481   5.745   4.175   2.303 -0.2975  0.5142  0.1453
  187POPC   C1221482   5.592   4.177   2.293 -0.7511 -0.3173 -0.4065
  187POPC  H12A21483   5.567   4.109   2.213 -0.3946 -1.7266  0.6233
  187POPC  H12B21484   5.560   4.279   2.278  3.0035  1.2352  0.8412
  187POPC   C1321485   5.776   4.268   2.416  0.3795 -0.0689  0.6417
  187POPC  H13A21486   5.757   4.368   2.378 -1.5566 -0.0014  1.6584
  187POPC  H13B21487   5.695   4.248   2.485 -1.4279 -2.8274 -2.0094
  187POPC  H13C21488   5.875   4.261   2.459  0.5866 -0.6316  0.0829
  187POPC   C1421489   5.798   4.035   2.323  0.3868  0.4972 -0.0850
  187POPC  H14A21490   5.904   4.026   2.304  0.3518 -0.8414  0.2444
  187POPC  H14B21491   5.775   3.997   2.421 -0.3803 -1.1357 -0.8623
  187POPC  H14C21492   5.760   3.964   2.251  2.2532 -0.9037  0.2481
  187POPC   C1521493   5.809   4.230   2.180  0.2869 -0.2575  0.3410
  187POPC  H15A21494   5.915   4.245   2.195  0.2444 -0.1408  0.5297
  187POPC  H15B21495   5.768   4.325   2.151  0.9281  0.2905  1.1956
  187POPC  H15C21496   5.808   4.170   2.090  1.4820  1.1481 -0.6605
  187POPC   C1121497   5.513   4.119   2.417 -0.1546  0.3871 -0.5896
  187POPC  H11A21498   5.563   4.023   2.443 -0.6782  0.9491  3.0420
  187POPC  H11B21499   5.407   4.098   2.392 -0.0697 -1.9419  0.7429
  187POPC     P21500   5.424   4.268   2.630  0.1049 -0.1032 -0.5555
  187POPC   O1321501   5.287   4.257   2.582 -0.0209  0.0031  0.0941
  187POPC   O1421502   5.460   4.410   2.662  0.2486  0.0357  0.1149
  187POPC   O1221503   5.525   4.210   2.527 -0.3451  0.4383  0.1079
  187POPC   O1121504   5.451   4.169   2.748 -0.4349 -0.3338  0.4262
  187POPC    C121505   5.507   4.215   2.875 -0.8757 -0.0553  0.5421
  187POPC    HA21506   5.557   4.314   2.863  0.1442 -0.2128  2.8385
  187POPC    HB21507   5.592   4.148   2.901  0.9116  2.5487  1.9028
  187POPC    C221508   5.408   4.224   2.989 -0.7012  0.2324  0.1930
  187POPC    HS21509   5.455   4.256   3.084  1.4184 -1.2488 -0.2873
  187POPC   O2121510   5.331   4.105   3.007 -0.2814  0.0442 -0.0221
  187POPC   C2121511   5.393   3.998   3.063 -0.5120  0.0759  0.0662
  187POPC   O2221512   5.512   4.000   3.102  0.1087  0.0473 -0.4969
  187POPC   C2221513   5.303   3.876   3.079  0.1591  0.0043 -0.3337
  187POPC   H2R21514   5.269   3.837   2.981  0.1317 -0.1761 -0.2533
  187POPC   H2S21515   5.215   3.902   3.140  0.5869 -0.8618  0.7048
  187POPC    C321516   5.317   4.349   2.956 -0.0097  0.1664 -0.2105
  187POPC    HX21517   5.270   4.342   2.856  0.9737 -0.3255 -0.6501
  187POPC    HY21518   5.388   4.435   2.955  1.7319 -1.2220 -0.9210
  187POPC   O3121519   5.227   4.364   3.066 -0.0178  0.1298 -0.0183
  187POPC   C3121520   5.109   4.306   3.036 -0.3606 -0.9905 -0.0106
  187POPC   O3221521   5.080   4.248   2.932 -0.7659 -0.4016  0.5512
  187POPC   C3221522   5.019   4.310   3.150  0.7489 -0.1123 -0.4528
  187POPC   H2X21523   4.939   4.383   3.126  0.8548 -0.6343 -2.5755
  187POPC   H2Y21524   5.082   4.341   3.236  3.1681 -1.5292 -1.6184
  187POPC   C2321525   5.364   3.761   3.166  0.0600 -0.1915 -0.0260
  187POPC   H3R21526   5.462   3.731   3.123  0.5967 -0.9928  1.6612
  187POPC   H3S21527   5.304   3.669   3.148 -1.8792  0.6311  1.8032
  187POPC   C2421528   5.385   3.803   3.318 -0.2525  0.4014 -0.5299
  187POPC   H4R21529   5.304   3.873   3.349 -0.1102  1.0079 -1.5017
  187POPC   H4S21530   5.475   3.866   3.304  0.1719 -0.7439 -3.6487
  187POPC   C2521531   5.406   3.685   3.411  0.1554 -0.4316  0.7831
  187POPC   H5R21532   5.491   3.627   3.370 -0.6542 -0.5921 -0.7682
  187POPC   H5S21533   5.309   3.632   3.412 -0.8889  1.3597  0.3731
  187POPC   C2621534   5.436   3.727   3.553 -0.7593 -0.2082  0.2164
  187POPC   H6R21535   5.527   3.790   3.546  0.1907 -1.2935  1.9801
  187POPC   H6S21536   5.467   3.643   3.619  0.1299  0.7517  1.0582
  187POPC   C2721537   5.325   3.813   3.604 -0.1919  0.1107  0.0796
  187POPC   H7R21538   5.228   3.759   3.600 -0.2585  0.2990 -1.7731
  187POPC   H7S21539   5.322   3.905   3.542  3.3368  1.4223  1.6299
  187POPC   C2821540   5.348   3.847   3.756  0.4157 -0.5220  0.1458
  187POPC   H8R21541   5.442   3.908   3.759  1.0084 -1.4450  1.5914
  187POPC   H8S21542   5.366   3.750   3.806  1.3589 -1.3658 -1.7364
  187POPC   C2921543   5.227   3.912   3.824  0.1766  0.0808  0.1659
  187POPC   H9121544   5.136   3.862   3.790 -0.5403  3.0098 -2.7261
  187POPC  C21021545   5.217   4.017   3.907  0.1882  0.3303 -0.1704
  187POPC  H10121546   5.114   4.036   3.940 -0.0210 -1.8772  0.6016
  187POPC  C21121547   5.327   4.111   3.953  0.7028  0.2102  0.1094
  187POPC  H11R21548   5.315   4.216   3.920  0.1408  0.4000  0.8854
  187POPC  H11S21549   5.422   4.086   3.901  0.5971  0.7701 -0.3671
  187POPC  C21221550   5.333   4.100   4.112  0.4284 -0.3137  0.0053
  187POPC  H12R21551   5.367   3.998   4.142  0.7746  0.3042  1.8204
  187POPC  H12S21552   5.229   4.112   4.148 -0.0882 -1.9348 -0.8455
  187POPC  C21321553   5.410   4.209   4.181  0.4591 -0.1386  0.3544
  187POPC  H13R21554   5.386   4.315   4.157  4.8987  1.0503  0.3741
  187POPC  H13S21555   5.517   4.197   4.154  0.6656 -1.1081  1.5081
  187POPC  C21421556   5.415   4.199   4.335  0.7910  0.5415 -0.3946
  187POPC  H14R21557   5.479   4.118   4.377  1.0079  0.5886 -0.6275
  187POPC  H14S21558   5.313   4.170   4.366  1.4987 -0.0793  1.5152
  187POPC  C21521559   5.454   4.328   4.406 -0.0866  0.4014 -0.8498
  187POPC  H15R21560   5.364   4.393   4.402 -0.9733 -0.7378  0.0323
  187POPC  H15S21561   5.530   4.389   4.353  0.0763  0.2458 -0.7936
  187POPC  C21621562   5.464   4.316   4.567 -0.3282 -0.5768  0.0538
  187POPC  H16R21563   5.560   4.266   4.594  0.1261  1.0370  1.6550
  187POPC  H16S21564   5.380   4.252   4.603 -1.3195  2.4824  3.8737
  187POPC  C21721565   5.473   4.446   4.647 -0.6053 -0.3107  0.7691
  187POPC  H17R21566   5.557   4.513   4.620 -1.6416  0.6194 -0.2434
  187POPC  H17S21567   5.473   4.420   4.755 -1.2600 -1.0334  0.6022
  187POPC  C21821568   5.351   4.535   4.626 -0.2494 -0.4462 -0.1994
  187POPC  H18R21569   5.371   4.637   4.667  0.0863 -0.4613 -0.3243
  187POPC  H18S21570   5.262   4.490   4.675  0.0989 -2.3283 -1.2146
  187POPC  H18T21571   5.317   4.565   4.524  0.5449 -0.3592 -0.4432
  187POPC   C3321572   4.939   4.174   3.155  0.7058  0.6397  0.3800
  187POPC   H3X21573   5.004   4.087   3.134  0.0391  0.4075 -0.8221
  187POPC   H3Y21574   4.862   4.178   3.075  1.3241  1.3066 -0.1995
  187POPC   C3421575   4.871   4.129   3.290  0.3934  0.3383 -0.3868
  187POPC   H4X21576   4.761   4.118   3.294  0.4631 -0.2150  0.0617
  187POPC   H4Y21577   4.895   4.206   3.366 -0.5631 -1.6280  2.0526
  187POPC   C3521578   4.939   4.009   3.351  0.0249  0.3201  0.5713
  187POPC   H5X21579   4.941   4.016   3.462  1.3072  1.3417  0.5055
  187POPC   H5Y21580   5.047   4.004   3.325 -0.5059  1.9553 -2.3344
  187POPC   C3621581   4.883   3.880   3.295 -0.1951 -0.2043  0.3838
  187POPC   H6X21582   4.884   3.878   3.184 -0.0671  0.9912  0.3562
  187POPC   H6Y21583   4.776   3.878   3.322 -0.0441 -0.3300  0.9867
  187POPC   C3721584   4.964   3.760   3.345 -0.3490 -0.5080  0.5380
  187POPC   H7X21585   4.976   3.780   3.453  0.3124 -1.2345  0.6113
  187POPC   H7Y21586   5.065   3.765   3.298 -0.8524  0.4732 -0.5230
  187POPC   C3821587   4.895   3.624   3.312  0.4360 -0.1869 -0.6263
  187POPC   H8X21588   4.890   3.602   3.203 -0.3528  0.0389 -0.6418
  187POPC   H8Y21589   4.792   3.626   3.352  0.2650  3.8188 -0.8675
  187POPC   C3921590   4.973   3.497   3.366 -0.2783 -0.8468 -0.2149
  187POPC   H9X21591   5.079   3.505   3.336 -0.3104 -2.2377 -0.7294
  187POPC   H9Y21592   4.936   3.406   3.314  0.9919 -0.8700 -1.1005
  187POPC  C31021593   4.977   3.483   3.518 -0.3415 -0.4322 -0.3404
  187POPC  H10X21594   4.876   3.449   3.552  0.2766 -1.2073  0.7860
  187POPC  H10Y21595   4.996   3.580   3.570 -0.1193 -0.4200 -0.4452
  187POPC  C31121596   5.087   3.382   3.554 -0.1782 -0.5063 -0.0849
  187POPC  H11X21597   5.183   3.421   3.514  0.1371  1.0851  2.0415
  187POPC  H11Y21598   5.063   3.285   3.505 -0.4259  0.5572 -2.1774
  187POPC  C31221599   5.097   3.348   3.698  0.0815 -1.0443 -1.1704
  187POPC  H12X21600   5.164   3.261   3.714  1.0347  0.1540  1.9445
  187POPC  H12Y21601   4.988   3.335   3.717 -0.1481 -1.7977 -2.7432
  187POPC  C31321602   5.156   3.465   3.785  0.1721  0.2730 -0.0494
  187POPC  H13X21603   5.090   3.553   3.768 -1.5028 -1.2107 -1.7628
  187POPC  H13Y21604   5.259   3.486   3.748  0.7048 -3.2196 -0.8668
  187POPC  C31421605   5.145   3.426   3.935 -0.0716  0.3033  0.3772
  187POPC  H14X21606   5.201   3.330   3.937 -2.3974 -1.1240  0.7925
  187POPC  H14Y21607   5.047   3.389   3.973  1.2825 -0.8965  2.9488
  187POPC  C31521608   5.208   3.528   4.028 -0.1276  0.3794 -0.1403
  187POPC  H15X21609   5.311   3.555   3.996  1.0715 -0.8038  2.4348
  187POPC  H15Y21610   5.230   3.483   4.127 -0.9940 -1.0978 -0.5896
  187POPC  C31621611   5.143   3.651   4.058  0.3476  0.7750  0.1237
  187POPC  H16X21612   5.052   3.625   4.115  0.2619  0.4612 -0.1529
  187POPC  H16Y21613   5.113   3.704   3.965  3.1200  1.1780 -0.6600
  187POPC  H16Z21614   5.208   3.713   4.124  1.0358  0.3061 -0.0953
  188POPC     N21615   5.837   1.502   2.273 -0.1504 -0.7315  0.3622
  188POPC   C1221616   5.851   1.521   2.422 -0.3249 -1.1276 -0.0948
  188POPC  H12A21617   5.760   1.517   2.479 -0.1234 -2.5025  0.1499
  188POPC  H12B21618   5.885   1.621   2.446  2.0093 -2.3318  2.0798
  188POPC   C1321619   5.971   1.513   2.219 -0.0778 -0.5812  0.0168
  188POPC  H13A21620   6.025   1.423   2.245  0.6234  0.0446  0.7803
  188POPC  H13B21621   5.969   1.523   2.112 -3.3717  3.0213  0.2069
  188POPC  H13C21622   6.028   1.597   2.254  1.1101 -1.9001  1.4054
  188POPC   C1421623   5.785   1.369   2.241  0.3131 -0.3778 -0.0234
  188POPC  H14A21624   5.854   1.292   2.273  1.9263  0.6597 -0.8368
  188POPC  H14B21625   5.693   1.354   2.295  0.0724  1.5719  0.1491
  188POPC  H14C21626   5.768   1.350   2.136 -0.3056  1.1686 -0.2199
  188POPC   C1521627   5.744   1.610   2.216 -0.3500  0.1982  0.1904
  188POPC  H15A21628   5.654   1.608   2.276  0.4609  1.4408  1.5141
  188POPC  H15B21629   5.718   1.586   2.114  1.9740  3.4975 -1.3424
  188POPC  H15C21630   5.789   1.705   2.240 -1.3269  0.3763  1.4407
  188POPC   C1121631   5.947   1.429   2.498 -0.2009 -0.1796  0.7985
  188POPC  H11A21632   5.935   1.322   2.474  0.7893 -0.1004 -0.1395
  188POPC  H11B21633   5.931   1.438   2.608 -1.3411  1.0839  0.5490
  188POPC     P21634   6.210   1.369   2.479  0.3808  0.3140 -0.1792
  188POPC   O1321635   6.335   1.445   2.463 -0.1655 -0.2344 -0.0033
  188POPC   O1421636   6.181   1.257   2.383 -0.1368 -0.2381 -0.7242
  188POPC   O1221637   6.085   1.470   2.481 -0.0357  0.3798  0.0964
  188POPC   O1121638   6.194   1.312   2.618  0.4305  0.3205 -0.3218
  188POPC    C121639   6.239   1.385   2.741  0.7544  0.0915 -0.4498
  188POPC    HA21640   6.156   1.389   2.815 -0.5242  1.7212 -1.9003
  188POPC    HB21641   6.275   1.484   2.708 -0.2441 -0.0600 -2.1297
  188POPC    C221642   6.368   1.316   2.810  0.3795 -0.0181  0.0330
  188POPC    HS21643   6.437   1.292   2.726  1.1491 -0.0874  0.6691
  188POPC   O2121644   6.332   1.190   2.876 -0.0676 -0.3856  0.2819
  188POPC   C2121645   6.422   1.131   2.947  0.4740 -0.1615  0.2387
  188POPC   O2221646   6.538   1.164   2.954  0.2064 -0.3840 -0.2764
  188POPC   C2221647   6.365   1.019   3.037 -0.1557 -0.3607 -0.4572
  188POPC   H2R21648   6.316   1.074   3.120 -0.0649  1.2820 -1.4267
  188POPC   H2S21649   6.456   0.965   3.069 -0.8141 -0.1484  1.9472
  188POPC    C321650   6.432   1.423   2.902  0.2909 -0.6500 -0.3908
  188POPC    HX21651   6.489   1.504   2.851  0.8581  1.3316  3.0161
  188POPC    HY21652   6.516   1.383   2.963  1.6496  1.4443 -0.7454
  188POPC   O3121653   6.328   1.487   2.987  0.1271  0.5264 -0.3687
  188POPC   C3121654   6.321   1.444   3.114 -0.4300  0.3279 -0.4179
  188POPC   O3221655   6.403   1.377   3.170  0.4840  0.0680  0.0812
  188POPC   C3221656   6.195   1.504   3.181  0.8013 -0.7785 -0.1600
  188POPC   H2X21657   6.135   1.412   3.202  1.4337 -1.3531 -0.8099
  188POPC   H2Y21658   6.142   1.576   3.115  0.2087 -2.9548 -2.2218
  188POPC   C2321659   6.268   0.925   2.960 -0.0640  0.0771  0.1018
  188POPC   H3R21660   6.292   0.914   2.852  1.3553 -2.1710  0.5523
  188POPC   H3S21661   6.163   0.960   2.970 -0.1481  0.3962 -1.6125
  188POPC   C2421662   6.275   0.785   3.018 -0.2031  0.7857 -0.5213
  188POPC   H4R21663   6.377   0.743   3.021 -0.8508 -0.9223  2.4631
  188POPC   H4S21664   6.201   0.728   2.957 -0.2409 -0.1914  0.4076
  188POPC   C2521665   6.231   0.774   3.167 -0.6174  0.2634  0.3460
  188POPC   H5R21666   6.298   0.844   3.222 -1.1199  1.0402 -0.0071
  188POPC   H5S21667   6.240   0.671   3.206 -1.4901 -0.2534 -0.7659
  188POPC   C2621668   6.081   0.822   3.196 -0.9613  0.1551 -0.4471
  188POPC   H6R21669   6.017   0.765   3.125 -0.5060 -0.7374 -0.1613
  188POPC   H6S21670   6.076   0.929   3.166  3.8768  0.4756 -0.9696
  188POPC   C2721671   6.037   0.791   3.344 -0.0753 -0.0316 -0.1186
  188POPC   H7R21672   6.097   0.856   3.412  1.6222 -1.3856 -0.2579
  188POPC   H7S21673   6.070   0.687   3.363  1.4849  0.6690  1.2027
  188POPC   C2821674   5.887   0.804   3.369 -0.3044 -0.0413  0.2529
  188POPC   H8R21675   5.854   0.908   3.345  1.0423  0.3031 -0.1871
  188POPC   H8S21676   5.873   0.804   3.479 -1.7521  0.4490  0.0902
  188POPC   C2921677   5.800   0.702   3.301 -0.1235  0.0989  0.2266
  188POPC   H9121678   5.814   0.687   3.193 -3.4945  1.1444 -0.4646
  188POPC  C21021679   5.693   0.639   3.350 -0.0496  0.7698  0.3302
  188POPC  H10121680   5.633   0.567   3.293  1.5861  0.3888 -1.0178
  188POPC  C21121681   5.654   0.654   3.496  0.6644  0.6238  0.3268
  188POPC  H11R21682   5.678   0.757   3.530  0.1776  1.9990 -3.1199
  188POPC  H11S21683   5.704   0.576   3.558 -1.2599  0.3601  1.6452
  188POPC  C21221684   5.495   0.642   3.505 -0.3743  0.5888  0.1667
  188POPC  H12R21685   5.456   0.545   3.469 -3.1057  1.3468  0.8668
  188POPC  H12S21686   5.450   0.720   3.440 -0.7899 -0.6363 -1.0577
  188POPC  C21321687   5.439   0.666   3.644  0.1009 -0.0752  0.3705
  188POPC  H13R21688   5.328   0.654   3.639 -0.0119  1.3821 -1.3884
  188POPC  H13S21689   5.464   0.768   3.680  1.9689 -0.5975  0.6753
  188POPC  C21421690   5.504   0.571   3.746 -0.2409  0.9520 -0.0719
  188POPC  H14R21691   5.612   0.595   3.744  0.7167 -2.6888 -2.0730
  188POPC  H14S21692   5.509   0.465   3.712  0.0082  0.7011  0.7389
  188POPC  C21521693   5.437   0.569   3.893  0.0827 -0.2362 -0.2832
  188POPC  H15R21694   5.503   0.501   3.951  0.0050 -0.1045 -0.0396
  188POPC  H15S21695   5.344   0.509   3.896 -0.8789  1.2035  2.0595
  188POPC  C21621696   5.415   0.706   3.953 -0.1754  0.5583 -0.6163
  188POPC  H16R21697   5.347   0.769   3.892 -0.2666  0.5567 -0.5158
  188POPC  H16S21698   5.520   0.745   3.953  0.4343 -0.9794 -1.8472
  188POPC  C21721699   5.342   0.719   4.086  0.0103 -0.8546 -0.4171
  188POPC  H17R21700   5.238   0.682   4.075 -0.7120  1.1368 -0.5894
  188POPC  H17S21701   5.344   0.819   4.134 -1.3763 -0.9936 -0.0361
  188POPC  C21821702   5.398   0.626   4.196 -0.2421 -0.0666  0.3314
  188POPC  H18R21703   5.366   0.647   4.300  0.1809  0.6097  0.3298
  188POPC  H18S21704   5.508   0.642   4.203 -0.0931 -0.6370 -0.5259
  188POPC  H18T21705   5.383   0.518   4.174  1.1883 -0.8140  2.6636
  188POPC   C3321706   6.224   1.568   3.314 -0.0565  0.4620 -0.0408
  188POPC   H3X21707   6.274   1.667   3.306  2.8401 -0.8047  1.0235
  188POPC   H3Y21708   6.288   1.500   3.374 -2.0656 -1.9142 -0.4352
  188POPC   C3421709   6.096   1.593   3.394 -0.0203  0.6998 -0.4180
  188POPC   H4X21710   6.040   1.497   3.404  0.4211  0.5077  0.3736
  188POPC   H4Y21711   6.025   1.651   3.332 -3.1033 -0.3990  1.8047
  188POPC   C3521712   6.125   1.641   3.537 -0.1665  0.5774  0.1276
  188POPC   H5X21713   6.165   1.744   3.540 -2.3425  1.4585  1.3427
  188POPC   H5Y21714   6.208   1.577   3.575 -1.6002 -1.6532 -0.2802
  188POPC   C3621715   6.004   1.636   3.628 -0.6927 -0.1056  0.0771
  188POPC   H6X21716   6.026   1.683   3.726 -0.8818 -0.6522  0.3873
  188POPC   H6Y21717   5.964   1.535   3.652 -1.0319  0.1322  0.5249
  188POPC   C3721718   5.898   1.726   3.580  0.3265  0.1553  0.3613
  188POPC   H7X21719   5.836   1.676   3.503  2.5550  2.0422 -2.8660
  188POPC   H7Y21720   5.950   1.808   3.527  0.9297 -0.0493  0.6238
  188POPC   C3821721   5.802   1.783   3.682  0.5809 -0.0776 -0.6200
  188POPC   H8X21722   5.724   1.848   3.637  0.2311 -0.7032 -0.9281
  188POPC   H8Y21723   5.861   1.845   3.753 -1.5987  0.2481  1.0219
  188POPC   C3921724   5.723   1.679   3.773 -0.1846 -0.2052  0.4577
  188POPC   H9X21725   5.707   1.587   3.714  1.7025 -1.1387  1.3021
  188POPC   H9Y21726   5.624   1.725   3.793 -0.9552 -0.9011 -1.5434
  188POPC  C31021727   5.791   1.642   3.908  0.1027 -0.0292  0.5119
  188POPC  H10X21728   5.827   1.732   3.962 -1.7067  0.0655  1.6467
  188POPC  H10Y21729   5.874   1.569   3.896 -1.0685 -0.9997 -2.5719
  188POPC  C31121730   5.692   1.578   4.007  0.5672 -0.6983  0.0143
  188POPC  H11X21731   5.651   1.493   3.949 -2.4052  0.3322  0.4172
  188POPC  H11Y21732   5.612   1.654   4.020  0.4940 -1.0038  1.5091
  188POPC  C31221733   5.751   1.527   4.136  1.0388  0.1154 -0.6007
  188POPC  H12X21734   5.680   1.528   4.222  0.2849 -0.1046 -1.2035
  188POPC  H12Y21735   5.840   1.588   4.158 -0.2917  2.3097 -1.0348
  188POPC  C31321736   5.802   1.382   4.118  0.0951 -0.0403  0.5920
  188POPC  H13X21737   5.847   1.369   4.018  1.6732 -2.7704  1.5556
  188POPC  H13Y21738   5.711   1.319   4.110 -0.7929  0.9956  2.0693
  188POPC  C31421739   5.898   1.332   4.231  0.1846 -0.3221  0.1924
  188POPC  H14X21740   5.906   1.223   4.213 -1.2027 -0.4083 -0.0099
  188POPC  H14Y21741   5.839   1.352   4.323 -0.4127 -2.5382  0.3378
  188POPC  C31521742   6.040   1.398   4.226  0.4220  0.1600  0.1910
  188POPC  H15X21743   6.095   1.363   4.316  1.9813  3.2523  0.5952
  188POPC  H15Y21744   6.028   1.509   4.233  3.4499  0.8127 -2.6760
  188POPC  C31621745   6.121   1.377   4.098 -0.7578  0.5313  0.5324
  188POPC  H16X21746   6.127   1.267   4.079  0.1822  0.4733  1.1407
  188POPC  H16Y21747   6.222   1.421   4.102 -1.3237  1.7817  2.9222
  188POPC  H16Z21748   6.063   1.431   4.020 -0.4621  0.8304  0.5178
  189SAPI   C1221749   1.543   5.283   7.001 -0.4870  0.0117  0.5001
  189SAPI    H221750   1.529   5.350   6.913 -0.7427 -0.5545  0.1010
  189SAPI    O221751   1.473   5.336   7.114 -0.3134  0.5695  0.5335
  189SAPI   HO221752   1.490   5.431   7.120  1.9056  0.2075  0.8137
  189SAPI   C1321753   1.484   5.152   6.968  0.4982 -0.3605  0.3270
  189SAPI    H321754   1.542   5.125   6.877 -1.1561 -1.6618 -0.3738
  189SAPI    O321755   1.350   5.174   6.927  0.9304  0.3007  0.0502
  189SAPI   HO321756   1.291   5.211   6.993 -1.4093  1.2808 -2.4034
  189SAPI   C1421757   1.499   5.060   7.089 -0.7944  0.5637 -0.3217
  189SAPI    H421758   1.425   5.092   7.166  1.6348  3.9394  0.8219
  189SAPI    O421759   1.466   4.927   7.061 -0.0719  0.0977 -0.0090
  189SAPI   HO421760   1.411   4.894   7.133  0.2983  0.1157  0.2823
  189SAPI   C1521761   1.636   5.060   7.156 -0.6903  0.0614  0.4976
  189SAPI    H521762   1.699   4.982   7.108  1.6313  1.8097  0.4878
  189SAPI    O521763   1.625   5.022   7.296 -0.1437 -0.0679  0.1850
  189SAPI   HO521764   1.662   4.933   7.297 -4.0663 -1.9604 -1.4903
  189SAPI   C1621765   1.718   5.193   7.151  0.5001  0.3944  0.0866
  189SAPI    H621766   1.683   5.249   7.241  0.5021  0.6795 -0.0902
  189SAPI    O621767   1.855   5.161   7.144 -0.2629 -0.2301  0.2066
  189SAPI   HO621768   1.886   5.208   7.067  4.1215 -0.3787  1.5759
  189SAPI   C1121769   1.693   5.271   7.029  0.5368  0.4444  0.3827
  189SAPI    H121770   1.741   5.215   6.946 -0.6950  0.0971 -0.1235
  189SAPI     P21771   1.861   5.443   6.937 -0.0185  0.1108  0.4573
  189SAPI   O1321772   1.965   5.342   6.931  0.4532  0.0414 -0.0003
  189SAPI   O1421773   1.901   5.581   6.972  0.3632  0.0166  0.1014
  189SAPI   O1221774   1.751   5.405   7.043  0.1928 -0.6445  0.0306
  189SAPI   O1121775   1.777   5.439   6.804  0.7130  0.4875 -0.3795
  189SAPI    C121776   1.829   5.355   6.703  0.4380 -0.0752  0.0817
  189SAPI    HA21777   1.940   5.359   6.691  0.5079  0.8902  0.9321
  189SAPI    HB21778   1.792   5.252   6.723  0.3972 -0.2605 -0.8888
  189SAPI    C221779   1.768   5.386   6.564 -0.3487  0.0537 -0.3532
  189SAPI    HS21780   1.804   5.487   6.535  2.2735 -0.8583 -0.5696
  189SAPI   O2121781   1.626   5.379   6.580  0.5071 -0.1871 -0.2148
  189SAPI   C2121782   1.561   5.468   6.509  0.0088 -0.2695 -0.1134
  189SAPI   O2221783   1.611   5.539   6.420 -0.2317  0.0034  0.2001
  189SAPI   C2221784   1.409   5.457   6.542 -0.3684 -0.4824  0.6235
  189SAPI   H2R21785   1.380   5.349   6.535  0.7570 -0.7172 -0.8555
  189SAPI   H2S21786   1.400   5.480   6.650  0.7494 -0.0926  0.6406
  189SAPI    C321787   1.810   5.281   6.459  0.1863 -0.4574  0.0579
  189SAPI    HX21788   1.734   5.201   6.449  0.9184 -1.1587 -0.0415
  189SAPI    HY21789   1.900   5.229   6.499  1.4878  2.1712  0.7876
  189SAPI   O3121790   1.824   5.333   6.319  0.3627  0.3016  0.1200
  189SAPI   C3121791   1.939   5.397   6.294  0.5431 -0.6029 -0.1530
  189SAPI   O3221792   2.037   5.404   6.368  1.1379 -0.0209  0.4870
  189SAPI   C3221793   1.927   5.460   6.165  0.2044 -0.0489  0.3795
  189SAPI   H2X21794   1.824   5.502   6.161 -0.2742 -1.1029  1.3017
  189SAPI   H2Y21795   1.940   5.383   6.086 -1.2994 -0.1387  0.1894
  189SAPI   C2321796   1.313   5.541   6.451 -0.0362 -0.7699 -0.0177
  189SAPI   H3R21797   1.301   5.491   6.353  0.7804 -0.0470 -0.5068
  189SAPI   H3S21798   1.370   5.637   6.444  2.0762 -2.0261 -1.0283
  189SAPI   C2421799   1.178   5.557   6.519  0.2930 -0.6359 -0.3669
  189SAPI   H4R21800   1.118   5.628   6.458  1.0130  0.9193  0.6694
  189SAPI   H4S21801   1.208   5.612   6.610  1.5019 -3.0588  0.7853
  189SAPI   C2521802   1.101   5.425   6.540 -0.7137 -0.1296 -0.1258
  189SAPI   H5R21803   1.106   5.389   6.643  0.3602 -0.5403 -0.3076
  189SAPI   C2621804   1.023   5.368   6.449  0.4080  0.1355  0.2619
  189SAPI   H6R21805   0.966   5.279   6.480 -1.0713  0.7720 -0.4935
  189SAPI   C2721806   1.020   5.409   6.308 -0.4978  0.5377  0.0822
  189SAPI   H7R21807   1.124   5.434   6.277 -0.7534 -0.8980 -2.2002
  189SAPI   H7S21808   0.952   5.490   6.275  0.3258  1.4303  0.5226
  189SAPI   C2821809   0.987   5.284   6.224  0.1165  0.6337 -0.1300
  189SAPI   H8R21810   0.944   5.193   6.269 -0.3129  0.1286 -1.5045
  189SAPI   C2921811   1.020   5.265   6.096 -0.5786 -0.4137  0.3573
  189SAPI   H9R21812   0.999   5.166   6.054  0.0498 -0.4016  0.0031
  189SAPI  C21021813   1.074   5.374   6.007  0.1932  0.0333 -0.2227
  189SAPI  H10R21814   1.182   5.369   5.984  0.6857 -1.0484  2.0792
  189SAPI  H10S21815   1.061   5.479   6.043 -1.1817 -0.0338 -0.4506
  189SAPI  C21121816   1.010   5.359   5.868 -0.0624 -0.8781 -0.6927
  189SAPI  H11R21817   0.918   5.418   5.861 -0.0477 -0.8791 -0.8816
  189SAPI  C21221818   1.039   5.266   5.774  0.1645 -0.6073  0.0301
  189SAPI  H12R21819   0.978   5.275   5.683  0.5264  0.7138 -0.1003
  189SAPI  C21321820   1.148   5.168   5.764  0.0692 -0.4417 -0.1840
  189SAPI  H13R21821   1.226   5.173   5.844  1.0915 -2.9707 -0.9182
  189SAPI  H13S21822   1.196   5.174   5.664  0.2015 -2.3481 -0.2761
  189SAPI  C21421823   1.081   5.032   5.773  0.1628 -0.2222 -0.0836
  189SAPI  H14R21824   0.973   5.014   5.763  0.0716  0.6796 -0.7994
  189SAPI  C21521825   1.137   4.912   5.799  0.2241 -0.7917  0.3315
  189SAPI  H15R21826   1.067   4.828   5.796 -3.0850  1.7889 -0.8409
  189SAPI  C21621827   1.286   4.886   5.808  0.6337 -0.0755 -0.3458
  189SAPI  H16R21828   1.312   4.795   5.866  1.9601  0.0524 -0.6891
  189SAPI  H16S21829   1.327   4.975   5.862 -3.2454  0.2742  2.4071
  189SAPI  C21721830   1.370   4.866   5.678  0.6129 -0.3805  0.1577
  189SAPI  H17R21831   1.326   4.932   5.601  2.5619 -0.1306 -0.8015
  189SAPI  H17S21832   1.349   4.761   5.649  0.1712 -0.2825  0.1268
  189SAPI  C21821833   1.519   4.887   5.682  0.0747 -0.1641 -0.5965
  189SAPI  H18R21834   1.566   4.850   5.775 -1.7180  1.6789  1.1492
  189SAPI  H18S21835   1.544   4.995   5.698  0.1185 -0.1471 -0.7725
  189SAPI  C21921836   1.586   4.853   5.554  0.0642 -0.5945  0.5266
  189SAPI  H19R21837   1.583   4.742   5.560  0.3674 -0.6179  0.2522
  189SAPI  H19S21838   1.688   4.896   5.569  0.5601 -1.2371 -0.8775
  189SAPI  C22021839   1.523   4.919   5.427 -0.1923 -1.1765 -0.6286
  189SAPI  H20R21840   1.501   5.027   5.435 -0.0158 -1.0886 -1.2864
  189SAPI  H20S21841   1.428   4.871   5.394 -0.2120 -0.1856 -2.0964
  189SAPI  H20T21842   1.596   4.908   5.344 -0.6255 -1.2939 -0.9952
  189SAPI   C3321843   2.024   5.579   6.153 -0.4179  0.8533  0.1131
  189SAPI   H3X21844   2.124   5.530   6.151 -1.3837 -1.3286  1.5371
  189SAPI   H3Y21845   2.017   5.656   6.233 -2.9665  2.1057 -1.2079
  189SAPI   C3421846   2.019   5.663   6.024  0.7701  0.1308 -0.2827
  189SAPI   H4X21847   2.081   5.755   6.036  0.2701  0.7124 -1.8464
  189SAPI   H4Y21848   1.911   5.682   6.002 -0.0094 -1.7957  1.5262
  189SAPI   C3521849   2.063   5.583   5.900 -0.4153 -0.9865  0.0957
  189SAPI   H5X21850   1.993   5.497   5.899 -1.2450 -0.3324  0.4375
  189SAPI   H5Y21851   2.163   5.551   5.938  0.1134 -0.1864 -0.5816
  189SAPI   C3621852   2.069   5.674   5.777  0.0403 -0.5726  0.3872
  189SAPI   H6X21853   2.134   5.757   5.813  1.3399 -1.7685  0.9044
  189SAPI   H6Y21854   1.966   5.714   5.767 -0.1840 -1.2369  0.0176
  189SAPI   C3721855   2.104   5.596   5.648  0.3341  0.1469 -0.4087
  189SAPI   H7X21856   2.022   5.524   5.627  1.5004 -1.0132 -1.1494
  189SAPI   H7Y21857   2.190   5.528   5.666  0.2669  0.2864  0.4747
  189SAPI   C3821858   2.117   5.687   5.523 -0.0819 -0.2096  0.5180
  189SAPI   H8X21859   2.210   5.747   5.526 -0.7103  0.9487 -1.3725
  189SAPI   H8Y21860   2.040   5.767   5.527  0.5710  0.4072  1.1360
  189SAPI   C3921861   2.107   5.596   5.398  0.5734 -0.5069 -0.1755
  189SAPI   H9X21862   2.040   5.509   5.413 -2.0438  1.0939 -1.9047
  189SAPI   H9Y21863   2.207   5.552   5.377  2.3403  3.2889 -0.5605
  189SAPI  C31021864   2.096   5.677   5.273 -0.0404  0.2482  0.0042
  189SAPI  H10X21865   2.145   5.776   5.287  0.6121 -0.2763  1.7318
  189SAPI  H10Y21866   1.990   5.700   5.254 -0.3940 -1.6054 -0.4670
  189SAPI  C31121867   2.149   5.614   5.147  0.0470 -0.2505 -0.3068
  189SAPI  H11X21868   2.099   5.517   5.129  0.2160 -0.2872 -0.5890
  189SAPI  H11Y21869   2.258   5.596   5.148  0.2503  0.9113  0.1830
  189SAPI  C31221870   2.122   5.698   5.016  0.4778 -0.9087  0.1561
  189SAPI  H12X21871   2.156   5.803   5.034  2.4901 -1.2443 -1.3114
  189SAPI  H12Y21872   2.012   5.688   5.005  0.3002  0.0453  0.8937
  189SAPI  C31321873   2.185   5.628   4.895 -0.1786 -0.2745  0.7000
  189SAPI  H13X21874   2.129   5.533   4.886 -1.2947  0.2572  1.8051
  189SAPI  H13Y21875   2.292   5.609   4.920 -0.5192  0.5022  3.0033
  189SAPI  C31421876   2.168   5.705   4.761 -0.4044 -0.4570 -0.3837
  189SAPI  H14X21877   2.227   5.799   4.749  2.1761 -2.1242 -1.7102
  189SAPI  H14Y21878   2.063   5.734   4.740 -0.3052 -0.9972 -1.7627
  189SAPI  C31521879   2.217   5.618   4.645 -0.3829 -0.7408  1.0243
  189SAPI  H15X21880   2.176   5.660   4.550 -1.8672 -1.4695  1.3267
  189SAPI  H15Y21881   2.168   5.519   4.636  0.7050 -1.1254 -1.6690
  189SAPI  C31621882   2.370   5.587   4.636  0.5538 -0.4627 -0.5194
  189SAPI  H16X21883   2.377   5.520   4.548 -0.4662 -0.4014 -0.6570
  189SAPI  H16Y21884   2.398   5.533   4.729 -1.0455 -0.9869 -0.3130
  189SAPI  C31721885   2.456   5.718   4.623  0.7069 -0.2746  0.1678
  189SAPI  H17X21886   2.560   5.683   4.604  0.8281 -0.0770  0.4758
  189SAPI  H17Y21887   2.461   5.775   4.718  0.6833  3.2527 -1.7994
  189SAPI  C31821888   2.426   5.817   4.503 -0.3010 -0.5684  0.1632
  189SAPI  H18X21889   2.511   5.878   4.467 -1.9331  1.3298 -0.6607
  189SAPI  H18Y21890   2.345   5.887   4.533 -0.0195 -0.6817  1.2528
  189SAPI  H18Z21891   2.387   5.765   4.413  3.3824 -1.2673 -1.1754
  190SAPI   C1221892   0.638   3.054   6.852 -0.1572 -0.4715 -0.3902
  190SAPI    H221893   0.567   3.127   6.807 -1.9773 -0.5151  2.1854
  190SAPI    O221894   0.590   2.921   6.823  0.2216 -0.3407  0.2913
  190SAPI   HO221895   0.510   2.904   6.874  0.7867 -0.0764  1.3043
  190SAPI   C1321896   0.776   3.082   6.803 -0.0046  0.3744  0.8109
  190SAPI    H321897   0.792   3.187   6.835  3.1460  0.8339 -1.7271
  190SAPI    O321898   0.788   3.090   6.658  0.0389 -0.4026 -0.0306
  190SAPI   HO321899   0.807   3.000   6.633  2.4094 -0.2776  1.1004
  190SAPI   C1421900   0.880   2.997   6.869  0.0731 -0.2268 -0.5545
  190SAPI    H421901   0.879   2.894   6.828 -1.0180 -2.1683  3.7833
  190SAPI    O421902   1.005   3.060   6.846 -0.0613 -0.1221  0.2902
  190SAPI   HO421903   1.015   3.062   6.751  5.8049 -1.6090  0.4625
  190SAPI   C1521904   0.860   2.982   7.020  0.4595 -0.7937  0.4676
  190SAPI    H521905   0.885   3.084   7.057 -0.5832  0.0958 -1.1417
  190SAPI    O521906   0.945   2.884   7.073 -0.4074 -0.4825 -0.4511
  190SAPI   HO521907   0.969   2.811   7.016  1.1708  1.4906 -2.4964
  190SAPI   C1621908   0.716   2.971   7.075  0.7252 -1.0244 -0.1884
  190SAPI    H621909   0.682   2.869   7.047 -1.7708  0.2755 -2.3325
  190SAPI    O621910   0.713   2.993   7.217  0.0206 -0.2611  0.2403
  190SAPI   HO621911   0.675   2.919   7.265  0.3049 -0.0446  0.8116
  190SAPI   C1121912   0.625   3.071   7.003 -0.5446  0.1622 -0.6099
  190SAPI    H121913   0.657   3.176   7.022 -0.2814  0.1834 -1.1559
  190SAPI     P21914   0.394   3.179   7.093 -0.3012 -0.8214  0.0779
  190SAPI   O1321915   0.462   3.279   7.175 -0.5052 -0.0874 -0.4843
  190SAPI   O1421916   0.265   3.131   7.150 -0.1257  0.6258  1.0059
  190SAPI   O1221917   0.490   3.051   7.049 -0.3584 -0.4732  0.5442
  190SAPI   O1121918   0.359   3.251   6.959 -0.0116 -0.2877 -0.2446
  190SAPI    C121919   0.238   3.222   6.880 -0.6282 -0.3671 -0.3713
  190SAPI    HA21920   0.156   3.222   6.955  1.6600 -1.3265  2.3270
  190SAPI    HB21921   0.216   3.309   6.814  0.2174  1.5016  1.6877
  190SAPI    C221922   0.236   3.097   6.788  0.6840  0.5701  0.4268
  190SAPI    HS21923   0.277   3.014   6.851 -0.0847 -0.0733  0.0931
  190SAPI   O2121924   0.321   3.106   6.679  0.7248 -0.6956  0.1025
  190SAPI   C2121925   0.339   2.997   6.602  0.4818 -0.5279  0.6652
  190SAPI   O2221926   0.300   2.886   6.627  0.1917  0.4358  0.6186
  190SAPI   C2221927   0.394   3.049   6.463  0.5540  0.2586 -0.3502
  190SAPI   H2R21928   0.322   3.025   6.381 -0.7939  2.2422  0.1918
  190SAPI   H2S21929   0.400   3.159   6.467 -1.9143  0.4879 -0.8995
  190SAPI    C321930   0.091   3.064   6.735  0.2894  0.1387 -0.1486
  190SAPI    HX21931   0.023   3.049   6.822  1.1259 -2.0285  0.2116
  190SAPI    HY21932   0.093   2.961   6.691 -0.6722 -0.6031  1.4524
  190SAPI   O3121933   0.050   3.170   6.652 -0.3057 -0.0321  0.1353
  190SAPI   C3121934  -0.073   3.156   6.600  0.3524  0.2563  0.3427
  190SAPI   O3221935  -0.142   3.057   6.617 -0.8709 -0.7043  0.0604
  190SAPI   C3221936  -0.104   3.282   6.506  0.6949  0.0261 -0.3040
  190SAPI   H2X21937  -0.111   3.375   6.565 -0.8993 -0.2641  0.0280
  190SAPI   H2Y21938  -0.209   3.262   6.473  0.3273 -1.1709  1.4646
  190SAPI   C2321939   0.523   2.975   6.421 -0.4726  0.3663 -0.1271
  190SAPI   H3R21940   0.493   2.868   6.410 -0.0374  0.2353 -0.0576
  190SAPI   H3S21941   0.596   2.991   6.504 -0.3267 -2.4719  0.3972
  190SAPI   C2421942   0.593   3.023   6.284 -0.1817  0.4915 -0.5792
  190SAPI   H4R21943   0.527   2.982   6.205 -1.3335 -0.5538  0.8723
  190SAPI   H4S21944   0.689   2.970   6.266 -0.8874 -0.3910 -1.9039
  190SAPI   C2521945   0.605   3.172   6.279  0.6439 -0.4394  0.4504
  190SAPI   H5R21946   0.678   3.206   6.353 -0.0840 -1.0671  1.4804
  190SAPI   C2621947   0.519   3.252   6.208 -0.1768 -0.0342 -0.1396
  190SAPI   H6R21948   0.535   3.361   6.207 -1.3696  0.1953  1.1858
  190SAPI   C2721949   0.408   3.206   6.117 -0.6749 -0.1075  0.2667
  190SAPI   H7R21950   0.320   3.170   6.176 -1.3786  1.1969  0.0410
  190SAPI   H7S21951   0.437   3.112   6.066 -0.1125  1.1797 -1.8829
  190SAPI   C2821952   0.350   3.318   6.027 -0.1715  0.8381 -0.9958
  190SAPI   H8R21953   0.250   3.353   6.059 -0.2442  0.4537 -0.7906
  190SAPI   C2921954   0.393   3.357   5.905 -0.4115 -0.3389  0.6307
  190SAPI   H9R21955   0.329   3.429   5.852 -0.0441  1.7586  2.8690
  190SAPI  C21021956   0.515   3.311   5.822  0.0324 -0.3636 -0.0643
  190SAPI  H10R21957   0.550   3.212   5.858 -0.1788 -1.0769 -1.7066
  190SAPI  H10S21958   0.598   3.381   5.846 -0.9566  1.0891 -0.6714
  190SAPI  C21121959   0.486   3.298   5.671  0.1037  0.1393 -0.6604
  190SAPI  H11R21960   0.446   3.203   5.634 -0.6932 -0.1894  0.9577
  190SAPI  C21221961   0.525   3.395   5.585 -0.0534 -0.2389  0.1644
  190SAPI  H12R21962   0.485   3.387   5.483  0.0044  0.3029  0.0950
  190SAPI  C21321963   0.605   3.521   5.612 -0.0617  0.0318  0.0714
  190SAPI  H13R21964   0.698   3.508   5.671  0.0173 -0.5088 -0.1668
  190SAPI  H13S21965   0.545   3.593   5.671 -2.2492 -1.0413 -0.7221
  190SAPI  C21421966   0.631   3.598   5.480  0.7177 -0.0387 -0.1318
  190SAPI  H14R21967   0.737   3.606   5.453  1.0131 -2.9869 -0.1109
  190SAPI  C21521968   0.540   3.679   5.422 -0.0999 -0.2268 -0.2432
  190SAPI  H15R21969   0.557   3.729   5.326  1.5883  0.0959  0.1889
  190SAPI  C21621970   0.399   3.700   5.463 -0.3660 -0.1473 -0.5276
  190SAPI  H16R21971   0.366   3.617   5.528 -0.9738  0.0407 -0.5940
  190SAPI  H16S21972   0.332   3.699   5.375 -0.7815 -0.8981 -0.2091
  190SAPI  C21721973   0.400   3.832   5.533 -0.1147 -0.2762 -0.1842
  190SAPI  H17R21974   0.445   3.904   5.462 -0.0897  0.8176  0.9099
  190SAPI  H17S21975   0.470   3.821   5.619  0.6063 -1.9849 -0.9450
  190SAPI  C21821976   0.258   3.868   5.588 -0.2443  0.1284  0.5254
  190SAPI  H18R21977   0.245   3.796   5.671 -0.4130 -2.4296 -1.5927
  190SAPI  H18S21978   0.180   3.837   5.516  0.7578  1.6385 -1.2951
  190SAPI  C21921979   0.258   4.016   5.626 -0.2310  0.4354 -0.6299
  190SAPI  H19R21980   0.265   4.074   5.531  1.4190  3.5865  1.2706
  190SAPI  H19S21981   0.342   4.043   5.694 -0.2547  0.8279 -0.7544
  190SAPI  C22021982   0.127   4.043   5.689 -0.3910 -0.1756  0.3608
  190SAPI  H20R21983   0.045   3.990   5.635 -0.3510 -0.9184  1.0066
  190SAPI  H20S21984   0.108   4.152   5.697 -1.3259 -0.1121 -1.8531
  190SAPI  H20T21985   0.127   3.998   5.790 -0.9575 -1.3792 -0.1485
  190SAPI   C3321986  -0.006   3.302   6.390 -0.2104  0.3675  0.0737
  190SAPI   H3X21987   0.009   3.208   6.333  0.6612  2.3858 -3.3180
  190SAPI   H3Y21988   0.099   3.325   6.418  0.1982 -0.4660 -0.7327
  190SAPI   C3421989  -0.059   3.418   6.298 -1.7028  0.0635  0.2491
  190SAPI   H4X21990  -0.091   3.502   6.364  1.1993  0.1821  1.7283
  190SAPI   H4Y21991  -0.144   3.373   6.244 -0.3450 -0.7684 -1.2807
  190SAPI   C3521992   0.038   3.470   6.196 -0.4768  0.7739 -0.1658
  190SAPI   H5X21993   0.070   3.382   6.135  1.1200  1.7306 -0.7713
  190SAPI   H5Y21994   0.126   3.517   6.246  0.2683 -1.3964  0.6973
  190SAPI   C3621995  -0.033   3.570   6.102 -0.7677  0.2736  0.2167
  190SAPI   H6X21996  -0.058   3.661   6.160 -1.6651  1.1207 -1.4281
  190SAPI   H6Y21997  -0.133   3.534   6.072  0.6064 -2.4952 -1.4192
  190SAPI   C3721998   0.041   3.603   5.964 -0.5548  0.5320  0.0141
  190SAPI   H7X21999   0.149   3.619   5.985 -0.0022 -0.9689 -1.5000
  190SAPI   H7Y22000  -0.000   3.699   5.926 -0.6478 -0.4289 -2.4610
  190SAPI   C3822001   0.016   3.503   5.849  0.4718  0.0871 -0.6439
  190SAPI   H8X22002  -0.094   3.500   5.832  0.5246 -0.4000 -0.9089
  190SAPI   H8Y22003   0.037   3.395   5.866  0.9948  0.5256  1.9750
  190SAPI   C3922004   0.090   3.548   5.722  0.1935  0.1590  0.0910
  190SAPI   H9X22005   0.195   3.561   5.757  0.2784 -0.8148  0.2478
  190SAPI   H9Y22006   0.072   3.650   5.682 -0.1009  0.4737  0.9800
  190SAPI  C31022007   0.079   3.448   5.603 -0.0996  0.4600  0.0821
  190SAPI  H10X22008   0.095   3.342   5.633 -3.5214 -0.2310 -0.0497
  190SAPI  H10Y22009   0.153   3.473   5.525 -0.6831  1.0086 -0.3097
  190SAPI  C31122010  -0.054   3.445   5.523 -0.3189  0.5510 -0.9302
  190SAPI  H11X22011  -0.050   3.519   5.440 -0.0916 -0.0676 -1.4800
  190SAPI  H11Y22012  -0.143   3.474   5.583  0.2455  0.3561  0.0231
  190SAPI  C31222013  -0.063   3.306   5.461  0.0634 -0.8881 -0.1978
  190SAPI  H12X22014  -0.088   3.222   5.529  3.1323 -1.3071  0.5784
  190SAPI  H12Y22015   0.033   3.287   5.407  1.1816 -0.3651  1.5066
  190SAPI  C31322016  -0.182   3.298   5.357 -0.2043  0.3696  0.1493
  190SAPI  H13X22017  -0.170   3.382   5.286  2.6576  1.0445  1.2883
  190SAPI  H13Y22018  -0.270   3.323   5.421  0.1301 -0.6708  1.0338
  190SAPI  C31422019  -0.204   3.148   5.302  0.4126  0.2292  0.1012
  190SAPI  H14X22020  -0.164   3.076   5.377  2.4072  0.8179 -0.3278
  190SAPI  H14Y22021  -0.125   3.144   5.224 -1.0478  2.0911 -1.5661
  190SAPI  C31522022  -0.351   3.110   5.265 -0.6504 -0.5154 -0.3854
  190SAPI  H15X22023  -0.389   3.159   5.172  0.0232 -2.5438 -1.8082
  190SAPI  H15Y22024  -0.415   3.152   5.344  0.2261  3.0991 -1.4171
  190SAPI  C31622025  -0.364   2.959   5.255 -0.0037  0.4961 -0.2336
  190SAPI  H16X22026  -0.468   2.920   5.252  0.2978 -0.3359 -0.2506
  190SAPI  H16Y22027  -0.310   2.915   5.342  0.1771  0.4410 -0.3730
  190SAPI  C31722028  -0.288   2.902   5.134  0.4347  0.0601 -0.2736
  190SAPI  H17X22029  -0.281   2.793   5.154 -2.7503 -0.0948  0.4701
  190SAPI  H17Y22030  -0.185   2.944   5.130  0.6482 -0.4900 -0.6723
  190SAPI  C31822031  -0.355   2.926   5.002  0.2942 -0.2983 -0.6743
  190SAPI  H18X22032  -0.353   3.035   4.980 -0.5561 -0.2489 -0.5475
  190SAPI  H18Y22033  -0.452   2.874   5.018  0.1035  0.8741  2.5748
  190SAPI  H18Z22034  -0.291   2.872   4.929 -0.7132 -0.1777 -1.6785
  191SAPI   C1222035   2.553   1.917   2.693  0.6467  0.0474  0.1632
  191SAPI    H222036   2.621   1.960   2.769 -2.4859  2.6488  1.7693
  191SAPI    O222037   2.612   1.922   2.565 -0.0303  0.6356 -0.1422
  191SAPI   HO222038   2.705   1.943   2.565  0.3387 -0.5931 -2.7135
  191SAPI   C1322039   2.521   1.770   2.735  0.0923 -0.4469  0.3553
  191SAPI    H322040   2.491   1.771   2.842 -0.6547 -1.1101  0.1572
  191SAPI    O322041   2.642   1.687   2.726  0.3059  0.7928 -0.5526
  191SAPI   HO322042   2.684   1.685   2.640  2.0916 -1.6182  0.2616
  191SAPI   C1422043   2.412   1.711   2.654 -0.0142  0.3231 -0.1014
  191SAPI    H422044   2.446   1.699   2.549 -0.3400  0.9698 -0.2833
  191SAPI    O422045   2.363   1.583   2.705 -0.5225  0.0830 -0.4555
  191SAPI   HO422046   2.284   1.552   2.660  0.4696 -1.1554 -1.4518
  191SAPI   C1522047   2.289   1.802   2.648 -0.4974  0.0678 -0.2337
  191SAPI    H522048   2.256   1.788   2.753 -2.0511  0.5711 -0.6338
  191SAPI    O522049   2.189   1.761   2.557  0.2801 -0.3222 -0.4356
  191SAPI   HO522050   2.112   1.813   2.584 -0.7002 -0.8671 -2.0073
  191SAPI   C1622051   2.309   1.952   2.643 -0.0401 -0.6464  0.0893
  191SAPI    H622052   2.316   1.986   2.537 -1.0985  0.7071  0.4200
  191SAPI    O622053   2.192   2.014   2.698 -0.2510 -0.1024 -0.1203
  191SAPI   HO622054   2.210   2.109   2.701 -0.8246  0.0026  0.1832
  191SAPI   C1122055   2.434   2.008   2.710  0.2351 -0.1408  0.7959
  191SAPI    H122056   2.420   2.003   2.820 -1.1823 -3.7307  0.5945
  191SAPI     P22057   2.414   2.273   2.734 -0.2710 -0.1269  0.0242
  191SAPI   O1322058   2.268   2.258   2.741  0.7154 -0.0375 -0.1550
  191SAPI   O1422059   2.469   2.394   2.667 -0.3389 -0.3411  0.5343
  191SAPI   O1222060   2.474   2.141   2.665 -0.4390  0.1566 -1.0615
  191SAPI   O1122061   2.470   2.255   2.876  0.2542 -0.0475 -0.2853
  191SAPI    C122062   2.603   2.261   2.920 -0.4342  0.0023  0.4429
  191SAPI    HA22063   2.621   2.165   2.972 -2.8919  0.0493  1.5476
  191SAPI    HB22064   2.667   2.265   2.829 -0.6823 -2.3272  0.0992
  191SAPI    C222065   2.632   2.373   3.024 -0.5655  0.1056  0.3086
  191SAPI    HS22066   2.735   2.354   3.059  0.1468 -0.2236 -1.8146
  191SAPI   O2122067   2.531   2.368   3.128  0.1762  0.2902  0.8811
  191SAPI   C2122068   2.542   2.293   3.230  0.4676 -0.1122  0.3613
  191SAPI   O2222069   2.643   2.226   3.243 -0.1024 -0.0930  0.3744
  191SAPI   C2222070   2.421   2.296   3.326  0.2218  0.3012  0.6400
  191SAPI   H2R22071   2.427   2.387   3.389  0.0134  0.5357  0.3234
  191SAPI   H2S22072   2.343   2.311   3.248  0.6558  0.9614  0.3209
  191SAPI    C322073   2.622   2.518   2.959 -0.0673 -0.4854 -0.0045
  191SAPI    HX22074   2.517   2.519   2.920 -0.6934 -0.7910  1.5980
  191SAPI    HY22075   2.688   2.522   2.869 -0.1330 -0.2548 -0.0444
  191SAPI   O3122076   2.647   2.630   3.045  0.2140 -0.0573  0.0091
  191SAPI   C3122077   2.545   2.695   3.101 -0.4891  0.0227 -0.0910
  191SAPI   O3222078   2.428   2.669   3.092  0.7224 -0.0670  0.1266
  191SAPI   C3222079   2.603   2.812   3.178 -0.2829  0.1285 -0.6363
  191SAPI   H2X22080   2.552   2.905   3.146 -1.0854 -0.3874 -0.9140
  191SAPI   H2Y22081   2.710   2.823   3.150 -0.7823  1.8770 -2.0271
  191SAPI   C2322082   2.402   2.163   3.401  0.2380  0.7176  0.2475
  191SAPI   H3R22083   2.495   2.128   3.449  1.2616  0.0719 -2.0672
  191SAPI   H3S22084   2.357   2.081   3.341 -0.6254  2.3738 -1.4825
  191SAPI   C2422085   2.314   2.194   3.525  0.0530  0.1002 -0.9946
  191SAPI   H4R22086   2.375   2.237   3.608 -1.5653 -1.0605  0.8706
  191SAPI   H4S22087   2.272   2.100   3.566 -0.5579  1.8628  2.8863
  191SAPI   C2522088   2.194   2.277   3.490 -0.7555  0.1449  0.0747
  191SAPI   H5R22089   2.171   2.282   3.383 -2.0084  0.5305  0.3454
  191SAPI   C2622090   2.110   2.347   3.571  0.0096  0.5165 -0.4955
  191SAPI   H6R22091   2.018   2.392   3.532 -1.2948 -1.9577 -0.4785
  191SAPI   C2722092   2.144   2.350   3.723 -0.0867 -0.3468  0.6580
  191SAPI   H7R22093   2.110   2.452   3.751  0.3859  0.6707 -2.1100
  191SAPI   H7S22094   2.255   2.355   3.724 -0.0606  0.0122 -0.8974
  191SAPI   C2822095   2.090   2.236   3.800 -0.7636  0.6901 -0.6740
  191SAPI   H8R22096   2.102   2.138   3.752 -3.0265  0.1338 -0.2091
  191SAPI   C2922097   2.041   2.238   3.928  0.6852 -0.1821  0.3373
  191SAPI   H9R22098   2.017   2.143   3.978  1.9905 -0.3085  0.7668
  191SAPI  C21022099   2.035   2.363   4.001 -0.7192  0.0359  0.4453
  191SAPI  H10R22100   1.993   2.443   3.936  1.3546  0.3058 -0.6636
  191SAPI  H10S22101   2.139   2.390   4.031 -0.2242 -2.3062  0.9950
  191SAPI  C21122102   1.957   2.350   4.131 -0.4347  0.2984 -0.0839
  191SAPI  H11R22103   1.847   2.345   4.122 -0.5494 -1.0594  1.5119
  191SAPI  C21222104   2.004   2.353   4.262  0.2767  0.4612  0.1141
  191SAPI  H12R22105   1.933   2.363   4.346  0.9060  0.6542  0.6321
  191SAPI  C21322106   2.153   2.351   4.310 -0.3045 -0.0265  0.2020
  191SAPI  H13R22107   2.225   2.327   4.228  0.2553 -1.2722  1.0217
  191SAPI  H13S22108   2.166   2.261   4.374 -0.6817 -1.1025 -1.1804
  191SAPI  C21422109   2.200   2.480   4.367 -0.2241 -0.3566 -0.1662
  191SAPI  H14R22110   2.177   2.575   4.318  0.1075  0.4331  1.1550
  191SAPI  C21522111   2.230   2.499   4.498  0.4052  0.1532 -1.0778
  191SAPI  H15R22112   2.278   2.591   4.534  0.8040 -1.4148  2.9919
  191SAPI  C21622113   2.235   2.383   4.598 -0.3489  0.1885  0.0278
  191SAPI  H16R22114   2.288   2.420   4.688  0.8150  0.4373 -0.7465
  191SAPI  H16S22115   2.286   2.290   4.565  0.2290  0.3824  0.3727
  191SAPI  C21722116   2.088   2.374   4.639  0.7043 -0.0053  0.8581
  191SAPI  H17R22117   2.013   2.381   4.558 -0.4296  0.3914  1.8995
  191SAPI  H17S22118   2.071   2.459   4.708  2.5507 -0.3603  1.8092
  191SAPI  C21822119   2.057   2.251   4.725 -0.4955 -0.0363 -0.3611
  191SAPI  H18R22120   1.946   2.254   4.736 -0.4030 -0.2158  0.7505
  191SAPI  H18S22121   2.123   2.250   4.815 -1.5594  2.0589  0.5037
  191SAPI  C21922122   2.076   2.115   4.637 -0.0359  0.4288  0.0427
  191SAPI  H19R22123   2.172   2.102   4.582 -0.4474  0.0001 -0.5952
  191SAPI  H19S22124   2.010   2.119   4.547  1.2318 -0.0599 -0.9448
  191SAPI  C22022125   2.047   1.991   4.717 -0.2849  0.7066  0.3644
  191SAPI  H20R22126   2.096   2.012   4.815  3.9684  2.3586 -1.8175
  191SAPI  H20S22127   2.082   1.902   4.661  0.8707  0.3609  1.5809
  191SAPI  H20T22128   1.939   1.972   4.729 -0.0392  0.5513  2.7597
  191SAPI   C3322129   2.578   2.816   3.335  0.2439 -1.0347  0.4894
  191SAPI   H3X22130   2.594   2.717   3.382 -1.1344 -2.3633 -1.6323
  191SAPI   H3Y22131   2.470   2.825   3.360  0.0146 -4.4575  1.2943
  191SAPI   C3422132   2.649   2.929   3.409 -0.5144  0.2705 -0.1577
  191SAPI   H4X22133   2.639   3.027   3.357 -0.0562  1.4355  1.8722
  191SAPI   H4Y22134   2.759   2.918   3.401 -0.4840  1.1230 -1.3020
  191SAPI   C3522135   2.602   2.951   3.554  0.3979  0.1847  0.1784
  191SAPI   H5X22136   2.578   2.852   3.598  2.0299 -0.4995 -0.3840
  191SAPI   H5Y22137   2.507   3.007   3.542  0.8841  1.2653  1.1811
  191SAPI   C3622138   2.689   3.015   3.672  0.1351  0.8471  0.1644
  191SAPI   H6X22139   2.723   3.116   3.639  2.9932  0.0230  0.3242
  191SAPI   H6Y22140   2.778   2.952   3.690 -0.4295 -0.0416 -0.0595
  191SAPI   C3722141   2.596   3.020   3.796 -0.4397 -0.1965 -0.0952
  191SAPI   H7X22142   2.536   2.928   3.810 -2.4374  1.0417 -0.0692
  191SAPI   H7Y22143   2.531   3.108   3.773  1.1247  1.2213  0.6969
  191SAPI   C3822144   2.674   3.066   3.917 -0.0034  0.0661  0.4901
  191SAPI   H8X22145   2.759   3.127   3.881 -0.0201 -0.4240 -0.4222
  191SAPI   H8Y22146   2.727   2.975   3.951 -0.9645 -0.7185 -0.0268
  191SAPI   C3922147   2.601   3.120   4.041 -0.2268 -0.0612  0.2597
  191SAPI   H9X22148   2.543   3.032   4.077  1.2763 -0.9911  0.5119
  191SAPI   H9Y22149   2.534   3.203   4.012  1.2812  0.2873 -2.6461
  191SAPI  C31022150   2.693   3.174   4.143 -0.2375  1.1578  0.1761
  191SAPI  H10X22151   2.779   3.227   4.096 -0.4361  1.4938  0.1878
  191SAPI  H10Y22152   2.740   3.089   4.198 -0.1984  1.3053  0.3749
  191SAPI  C31122153   2.624   3.252   4.257  0.4389 -0.0775  0.3588
  191SAPI  H11X22154   2.548   3.178   4.290  0.2610 -0.8015 -1.5608
  191SAPI  H11Y22155   2.567   3.340   4.219  0.1399  0.0479  1.0775
  191SAPI  C31222156   2.722   3.323   4.359  0.1739 -0.3130 -0.5344
  191SAPI  H12X22157   2.680   3.418   4.399  0.0315 -1.8658  3.4108
  191SAPI  H12Y22158   2.813   3.346   4.299 -0.1472 -0.8629 -1.2525
  191SAPI  C31322159   2.748   3.233   4.483 -0.3726  0.0877 -0.4030
  191SAPI  H13X22160   2.663   3.214   4.553  0.7092  0.6297  1.1218
  191SAPI  H13Y22161   2.814   3.297   4.546  0.2760  0.9771 -1.9499
  191SAPI  C31422162   2.815   3.104   4.457  0.0849  0.7271  0.5704
  191SAPI  H14X22163   2.897   3.115   4.382 -1.0703 -2.1138 -1.3123
  191SAPI  H14Y22164   2.753   3.031   4.399 -1.3395  0.7065  2.0502
  191SAPI  C31522165   2.869   3.041   4.578 -0.4607  0.1563 -0.0163
  191SAPI  H15X22166   2.793   3.048   4.658 -0.0256  0.7067  0.3541
  191SAPI  H15Y22167   2.950   3.108   4.614  0.6545 -1.3320  0.3463
  191SAPI  C31622168   2.920   2.895   4.564 -0.7366 -0.3088 -0.2811
  191SAPI  H16X22169   2.933   2.863   4.458 -2.5194  1.8798 -1.2631
  191SAPI  H16Y22170   2.839   2.830   4.603  0.2611 -0.9057  0.8393
  191SAPI  C31722171   3.034   2.859   4.657  0.3223  1.0412  0.4347
  191SAPI  H17X22172   3.038   2.748   4.669 -0.2557  0.5904 -2.6212
  191SAPI  H17Y22173   3.013   2.906   4.755 -2.0060 -0.3287  0.6613
  191SAPI  C31822174   3.164   2.896   4.594 -0.2430  0.7145 -0.6678
  191SAPI  H18X22175   3.166   3.006   4.606 -2.9718  0.6203  1.6112
  191SAPI  H18Y22176   3.168   2.862   4.488 -1.9744 -0.6560 -0.3402
  191SAPI  H18Z22177   3.249   2.854   4.652 -1.4542  1.6131  1.9016
  192SAPI   C1222178   4.000   6.480   2.712 -0.3071 -0.1940 -0.5210
  192SAPI    H222179   4.105   6.503   2.683 -0.1837 -2.3171 -1.9439
  192SAPI    O222180   3.991   6.345   2.714 -0.2283 -0.0463  0.0799
  192SAPI   HO222181   4.079   6.306   2.707  1.1650  2.9230 -0.8977
  192SAPI   C1322182   3.975   6.543   2.851 -0.1492 -0.1650 -0.6141
  192SAPI    H322183   3.981   6.654   2.855  0.0602 -0.0683 -2.6419
  192SAPI    O322184   4.083   6.502   2.931  0.7823 -0.0597 -0.0714
  192SAPI   HO322185   4.070   6.407   2.925 -2.5388  0.3433 -1.4456
  192SAPI   C1422186   3.839   6.502   2.903 -0.1230  0.0682  0.2064
  192SAPI    H422187   3.826   6.392   2.915 -2.1124  0.4828  2.5097
  192SAPI    O422188   3.811   6.553   3.032  0.1053 -1.0258 -0.5365
  192SAPI   HO422189   3.756   6.490   3.078 -0.4530  0.2358  0.5822
  192SAPI   C1522190   3.723   6.543   2.801 -0.4715 -0.2296 -0.9475
  192SAPI    H522191   3.693   6.646   2.830 -0.6055 -0.7222  0.7893
  192SAPI    O522192   3.604   6.469   2.817 -0.1899  0.2507  0.0543
  192SAPI   HO522193   3.535   6.531   2.840  1.9129  2.7387  0.0281
  192SAPI   C1622194   3.755   6.543   2.652  0.4591 -0.8471 -0.0555
  192SAPI    H622195   3.719   6.444   2.617 -0.2395 -0.2016 -1.2575
  192SAPI    O622196   3.682   6.639   2.572 -0.4718 -0.0120  0.8251
  192SAPI   HO622197   3.733   6.644   2.491  0.5049  2.4105  1.4936
  192SAPI   C1122198   3.902   6.540   2.611 -0.0876 -0.2094 -0.2056
  192SAPI    H122199   3.928   6.648   2.611  1.1445 -0.4881  0.3670
  192SAPI     P22200   3.987   6.575   2.368 -0.1037 -0.4596 -0.7418
  192SAPI   O1322201   3.894   6.688   2.344 -0.5211  0.8692  0.2147
  192SAPI   O1422202   4.025   6.497   2.246  0.0554 -0.4281 -0.3236
  192SAPI   O1222203   3.923   6.482   2.481  0.2570 -0.2590 -0.3097
  192SAPI   O1122204   4.121   6.624   2.444  0.1487 -0.1466 -0.6185
  192SAPI    C122205   4.170   6.754   2.470 -0.1383 -0.1371  0.1980
  192SAPI    HA22206   4.232   6.790   2.385  0.4561  1.7508  1.3569
  192SAPI    HB22207   4.086   6.825   2.485  0.8595  0.5522  3.2107
  192SAPI    C222208   4.251   6.772   2.601  0.3423 -0.1135 -0.6082
  192SAPI    HS22209   4.196   6.725   2.685  0.5373  0.1175 -0.3493
  192SAPI   O2122210   4.267   6.911   2.621  0.6796  0.0534 -0.1739
  192SAPI   C2122211   4.191   6.975   2.704  0.1922  0.7070  0.3799
  192SAPI   O2222212   4.093   6.934   2.762  0.1663  0.2379  0.3153
  192SAPI   C2222213   4.252   7.113   2.721  0.2010 -0.7709  0.2258
  192SAPI   H2R22214   4.360   7.096   2.742  0.3416  1.4532  1.6871
  192SAPI   H2S22215   4.240   7.177   2.631 -0.3687  0.3350  1.0647
  192SAPI    C322216   4.389   6.705   2.593 -0.9230 -0.1187 -1.0511
  192SAPI    HX22217   4.456   6.747   2.514  2.0850 -0.7297  1.0172
  192SAPI    HY22218   4.360   6.603   2.559 -0.0541 -1.6811  2.4909
  192SAPI   O3122219   4.451   6.679   2.718 -0.0814 -0.2409 -0.0360
  192SAPI   C3122220   4.546   6.761   2.760  0.6313 -0.3599  1.2597
  192SAPI   O3222221   4.598   6.848   2.691 -0.1284 -0.4167 -0.3511
  192SAPI   C3222222   4.601   6.712   2.892 -0.0319  0.2731 -0.0237
  192SAPI   H2X22223   4.707   6.677   2.886 -0.0997  0.3141 -2.8696
  192SAPI   H2Y22224   4.545   6.622   2.924 -0.2513  0.9826  1.6598
  192SAPI   C2322225   4.185   7.185   2.843 -0.0625 -0.3553  0.5845
  192SAPI   H3R22226   4.214   7.140   2.940  0.7571  3.7582  2.4432
  192SAPI   H3S22227   4.074   7.184   2.834 -0.0729 -1.2550  0.7181
  192SAPI   C2422228   4.228   7.330   2.849 -0.3155 -0.1663 -0.4910
  192SAPI   H4R22229   4.199   7.394   2.764  1.0122 -1.3392 -1.8931
  192SAPI   H4S22230   4.336   7.325   2.822 -0.1448  2.2763 -0.4269
  192SAPI   C2522231   4.234   7.403   2.981  0.5689 -0.0848 -0.9414
  192SAPI   H5R22232   4.149   7.472   2.995 -0.5814 -1.7018  0.7005
  192SAPI   C2622233   4.327   7.390   3.080  0.2648 -0.0395 -0.0890
  192SAPI   H6R22234   4.305   7.445   3.173 -0.5703 -0.6107  0.0616
  192SAPI   C2722235   4.456   7.305   3.078 -0.1507  0.6850 -0.0948
  192SAPI   H7R22236   4.517   7.344   2.994  0.1089  1.8055  0.5996
  192SAPI   H7S22237   4.424   7.200   3.058 -3.9852  1.2220  2.2011
  192SAPI   C2822238   4.551   7.304   3.196 -0.6456 -0.1996  0.6930
  192SAPI   H8R22239   4.651   7.346   3.180 -0.2691 -0.8251  1.3049
  192SAPI   C2922240   4.513   7.287   3.326  0.1720 -0.3694  0.3670
  192SAPI   H9R22241   4.596   7.282   3.398  0.3872  0.0967  0.1500
  192SAPI  C21022242   4.382   7.225   3.380 -0.4685  1.2111 -0.3825
  192SAPI  H10R22243   4.412   7.151   3.457 -2.9881  1.9248  1.4298
  192SAPI  H10S22244   4.332   7.177   3.294  0.1377 -0.8267  0.3557
  192SAPI  C21122245   4.283   7.312   3.450  0.2026  0.2642  0.2709
  192SAPI  H11R22246   4.226   7.374   3.379  0.5747 -1.0741 -1.2696
  192SAPI  C21222247   4.263   7.319   3.583  0.4341  0.6137  0.9968
  192SAPI  H12R22248   4.189   7.389   3.624 -0.0921  0.5761  0.1592
  192SAPI  C21322249   4.339   7.245   3.682  0.0538  0.3005 -0.5164
  192SAPI  H13R22250   4.368   7.140   3.659 -1.6401 -0.4828  0.6816
  192SAPI  H13S22251   4.275   7.237   3.772  2.3763  3.1527  1.5782
  192SAPI  C21422252   4.470   7.303   3.732  0.5922 -0.2179 -0.6367
  192SAPI  H14R22253   4.526   7.361   3.657  0.9540 -0.1952 -0.3532
  192SAPI  C21522254   4.513   7.307   3.858  0.3403  0.2133 -0.8473
  192SAPI  H15R22255   4.597   7.373   3.884  0.5479  0.4893 -2.1487
  192SAPI  C21622256   4.458   7.245   3.984  0.1700 -0.3663 -0.4247
  192SAPI  H16R22257   4.529   7.171   4.027 -1.4991 -2.7571 -1.5418
  192SAPI  H16S22258   4.360   7.193   3.975 -0.6997  0.7083  1.9807
  192SAPI  C21722259   4.443   7.346   4.100 -0.2527  0.5453 -0.1510
  192SAPI  H17R22260   4.374   7.429   4.075 -0.3445  0.6479  0.4248
  192SAPI  H17S22261   4.545   7.385   4.120 -0.8255  2.0419 -0.0245
  192SAPI  C21822262   4.406   7.275   4.232  0.2710  0.3711  0.1288
  192SAPI  H18R22263   4.473   7.189   4.253  0.9363  0.9027  0.2521
  192SAPI  H18S22264   4.315   7.217   4.209  1.1342 -2.0731  2.4245
  192SAPI  C21922265   4.399   7.366   4.348 -0.0258  0.2193  0.1016
  192SAPI  H19R22266   4.330   7.449   4.322 -0.5197  0.1330  1.0894
  192SAPI  H19S22267   4.491   7.426   4.366 -1.3493  2.2986  0.2604
  192SAPI  C22022268   4.362   7.304   4.480  0.0526 -0.2941  0.9587
  192SAPI  H20R22269   4.426   7.217   4.503  1.7160  0.1781 -1.4842
  192SAPI  H20S22270   4.259   7.265   4.469  0.5950 -2.0001  1.5876
  192SAPI  H20T22271   4.367   7.374   4.566  0.4297  0.4527  0.3468
  192SAPI   C3322272   4.569   6.817   3.001 -0.2924 -0.1279  0.2090
  192SAPI   H3X22273   4.459   6.810   3.011 -0.8086 -0.6981 -3.9935
  192SAPI   H3Y22274   4.598   6.921   2.974  1.1795 -0.8391 -1.1364
  192SAPI   C3422275   4.629   6.794   3.141  0.1163 -0.7983 -0.2162
  192SAPI   H4X22276   4.592   6.881   3.199  0.1459 -1.2121  0.4291
  192SAPI   H4Y22277   4.738   6.813   3.136  0.1059 -0.6861 -0.0079
  192SAPI   C3522278   4.589   6.665   3.204 -0.5351  1.4539 -0.0061
  192SAPI   H5X22279   4.616   6.579   3.139 -1.1116  1.6121 -0.4540
  192SAPI   H5Y22280   4.479   6.654   3.197 -0.5307  1.5767 -0.2638
  192SAPI   C3622281   4.649   6.655   3.346 -0.0732  1.0599 -0.6540
  192SAPI   H6X22282   4.624   6.749   3.400 -2.8445 -0.6264  1.2093
  192SAPI   H6Y22283   4.760   6.645   3.350 -0.2490 -1.1370  2.3644
  192SAPI   C3722284   4.586   6.535   3.421  0.3465 -0.4642 -0.3263
  192SAPI   H7X22285   4.629   6.444   3.375  1.7072 -0.4764  0.9011
  192SAPI   H7Y22286   4.476   6.527   3.413  0.2759 -2.2904  1.5894
  192SAPI   C3822287   4.613   6.540   3.567  0.4323  0.1200  0.1161
  192SAPI   H8X22288   4.557   6.617   3.623 -0.9153 -1.4908  1.0918
  192SAPI   H8Y22289   4.720   6.571   3.572  0.3875  0.5024 -1.0256
  192SAPI   C3922290   4.597   6.401   3.628  1.0913 -0.4420  0.3134
  192SAPI   H9X22291   4.657   6.325   3.574  0.7507 -1.2390  1.0248
  192SAPI   H9Y22292   4.490   6.370   3.625  1.0143 -0.3330  1.4681
  192SAPI  C31022293   4.649   6.400   3.775 -0.5393 -0.6016  0.1423
  192SAPI  H10X22294   4.572   6.452   3.836  0.7735 -0.1013  1.4757
  192SAPI  H10Y22295   4.745   6.454   3.794 -0.8874  0.4000 -0.8557
  192SAPI  C31122296   4.662   6.255   3.835  0.2524 -0.1235  1.1842
  192SAPI  H11X22297   4.732   6.191   3.778 -1.4276 -1.8165  0.9159
  192SAPI  H11Y22298   4.565   6.203   3.820 -0.5264  2.0351 -2.1716
  192SAPI  C31222299   4.698   6.250   3.990  0.0854  0.1504 -0.0769
  192SAPI  H12X22300   4.802   6.286   3.992 -0.0674  0.6744 -0.9769
  192SAPI  H12Y22301   4.682   6.143   4.017 -3.6249  0.4227 -0.5641
  192SAPI  C31322302   4.609   6.335   4.090  0.6055  0.5983  1.1193
  192SAPI  H13X22303   4.501   6.313   4.073  0.9400  0.5524 -1.2642
  192SAPI  H13Y22304   4.618   6.442   4.064 -0.6551  0.4448 -0.0757
  192SAPI  C31422305   4.653   6.307   4.233  0.1477 -0.0855 -0.7021
  192SAPI  H14X22306   4.747   6.361   4.261  0.7912 -0.4402 -2.0689
  192SAPI  H14Y22307   4.682   6.200   4.238  1.6433  0.3218 -0.0283
  192SAPI  C31522308   4.547   6.349   4.333  0.1327  0.1709 -1.0392
  192SAPI  H15X22309   4.449   6.308   4.298  0.8029 -0.4239 -2.2588
  192SAPI  H15Y22310   4.543   6.459   4.347 -0.3845 -0.1400  1.9898
  192SAPI  C31622311   4.574   6.292   4.476  0.1550 -0.3922  0.0197
  192SAPI  H16X22312   4.660   6.351   4.514  0.3373  0.0771 -1.0728
  192SAPI  H16Y22313   4.618   6.191   4.459 -2.3801 -1.8737  1.6385
  192SAPI  C31722314   4.455   6.308   4.575 -0.1636  0.6617  0.3077
  192SAPI  H17X22315   4.495   6.256   4.664 -1.8668 -1.1881  0.0786
  192SAPI  H17Y22316   4.369   6.250   4.534  0.3587  0.9326 -1.2447
  192SAPI  C31822317   4.410   6.448   4.607 -0.0710  0.0958  0.3187
  192SAPI  H18X22318   4.402   6.508   4.514  3.9587 -0.1867 -0.4041
  192SAPI  H18Y22319   4.470   6.501   4.684 -3.3328  2.3927  1.5405
  192SAPI  H18Z22320   4.308   6.457   4.651 -0.3789 -0.5321 -0.2574
  193SOD    SOD22321   3.539   4.277   6.946 -0.5271 -0.0840 -0.3360
  194SOD    SOD22322   1.314   5.026   1.901  0.2785  0.1968 -0.8580
  195SOD    SOD22323   5.759   2.195   6.941  0.7734 -0.5772 -0.0601
  196SOD    SOD22324   4.188   3.220   8.189  0.0189  0.1405  0.1832
  197SOD    SOD22325   4.871   0.708   8.406 -0.0588  0.3545  0.2609
  198SOD    SOD22326   0.138   1.141   8.591  0.0933 -0.7289 -0.4178
  199SOD    SOD22327   0.563   0.619   7.501  0.0947 -0.1575  0.2006
  200SOD    SOD22328   5.474   2.502   2.206 -0.5825 -0.0223  0.1702
  201SOD    SOD22329   5.929   1.399   8.624  0.3204 -0.0914 -0.6335
  202SOD    SOD22330   2.735   5.152   2.421 -0.1279  0.2283 -0.2957
  203SOD    SOD22331   2.719   2.598   6.991  0.3726  0.2675  0.0822
  204SOD    SOD22332   2.116   6.671   7.590 -0.0359 -0.2760 -0.0511
  205SOD    SOD22333   6.273   5.415   2.026 -0.0080 -0.1469 -0.0969
  206SOD    SOD22334   3.342   5.045   7.832 -0.3815 -0.1316 -0.3973
  207SOD    SOD22335   2.763   1.575   2.932 -0.1396  0.1292 -0.6295
  208SOD    SOD22336   2.814   2.462   1.137 -0.0978 -0.6109 -0.3879
  209SOD    SOD22337   2.216   5.636   6.658 -0.0682  0.6064 -0.0855
  210SOD    SOD22338   3.591   3.289   8.309 -0.5811 -0.4947 -0.0992
  211SOD    SOD22339   4.285   2.175   8.330 -0.2305  0.4143 -0.5630
  212SOD    SOD22340   3.784   4.169   7.907  0.3290 -0.1389 -0.0364
  213SOD    SOD22341   1.444   3.478   8.368  0.0915 -0.0840  0.4388
  214SOD    SOD22342   2.623   0.603   7.068  0.1543  0.3677  0.1380
  215SOD    SOD22343   3.916   3.825   1.149  0.3834  0.8622  0.5372
  216SOD    SOD22344   4.511   4.735   7.913  0.0870 -0.3039  0.0133
  217SOD    SOD22345   0.722   2.556   1.630  0.4361 -0.5925 -0.4828
  218SOD    SOD22346   3.688   6.892   0.190  0.3420  0.8899 -0.2069
  219SOD    SOD22347   0.505   5.088   7.098  0.2727 -0.7333 -0.3374
  220SOD    SOD22348   3.393   4.965   2.191  0.1039  0.5911 -0.0768
  221SOD    SOD22349   6.855   3.445   2.597 -0.3609 -0.1019  0.1484
  222SOD    SOD22350   4.548   4.329   7.281  0.1556 -0.3334 -0.3822
  223SOD    SOD22351   2.586   0.091   1.527 -0.0294  0.0410 -0.3272
  224SOD    SOD22352   1.578   6.447   2.570 -0.2297 -0.4623 -0.0328
  225SOD    SOD22353   2.511   2.410   0.851 -0.4338  0.0374 -0.3813
  226SOD    SOD22354   6.689   0.815   1.890  0.1214  0.0009 -0.7224
  227SOD    SOD22355   1.563   2.964   0.406 -0.0369  0.0856  0.3633
  228SOD    SOD22356   0.232   2.672   6.667 -0.0505 -0.4750  0.5238
  229SOD    SOD22357   1.084   1.206   1.173  0.1775  0.0362  0.3405
  230CLA    CLA22358   5.261   4.633   8.083 -0.2079  0.1671 -0.5955
  231CLA    CLA22359   5.795   2.899   8.476  0.1290  0.0170  0.1149
  232CLA    CLA22360   3.726   5.872   0.189 -0.4628 -0.0018  0.1765
  233CLA    CLA22361   6.837   4.054   8.012  0.0203 -0.5952  0.2275
  234CLA    CLA22362   1.041   0.253   8.460  0.1448  0.0375  0.2813
  235CLA    CLA22363   5.821   0.415   1.575  0.5562  0.2505  0.1908
  236CLA    CLA22364   4.849   2.459   0.938 -0.3113 -0.0121  0.1347
  237CLA    CLA22365   3.191   4.692   1.161  0.1255 -0.3918  0.0008
  238CLA    CLA22366   4.466   1.796   1.233  0.3152  0.2692 -0.0727
  239CLA    CLA22367   0.870   5.149   1.125 -0.1185 -0.0179 -0.2160
  240CLA    CLA22368   3.582   6.337   0.102 -0.0844 -0.0126 -0.0527
  241CLA    CLA22369   6.287   0.013   7.773  0.2857 -0.0444 -0.1788
  242CLA    CLA22370   4.251   4.780   7.852 -0.1048 -0.0638  0.0371
  243CLA    CLA22371   0.725   1.011   8.058  0.1055  0.1603 -0.1672
  244CLA    CLA22372   2.081   6.248   8.029 -0.1778 -0.1082 -0.1090
  245CLA    CLA22373   3.157   0.585   7.970 -0.0047 -0.2004  0.1288
  246CLA    CLA22374   6.168   6.886   0.568  0.2005  0.6351 -0.2768
  247TIP3   OH222375   5.634   0.529   1.354  0.1356 -0.3983  0.2259
  247TIP3    H122376   5.548   0.529   1.397  0.2049 -1.2511  0.3882
  247TIP3    H222377   5.691   0.481   1.415  1.0687  1.2858  0.7451
  248TIP3   OH222378   1.601   6.223   1.377 -0.3908  0.1697  0.6474
  248TIP3    H122379   1.621   6.270   1.296 -0.8245 -0.9910 -0.1748
  248TIP3    H222380   1.643   6.137   1.365 -0.9159 -0.2051  1.4307
  249TIP3   OH222381   1.030   2.921   0.458  0.2560  0.0066 -0.3909
  249TIP3    H122382   1.026   3.012   0.486 -0.0105 -0.1063 -0.0481
  249TIP3    H222383   1.039   2.871   0.540  1.7841 -0.1963 -0.6530
  250TIP3   OH222384   6.781   5.164   2.075  0.1139 -0.0186 -0.2718
  250TIP3    H122385   6.743   5.215   2.146  0.0912  0.5709 -0.7002
  250TIP3    H222386   6.740   5.078   2.083  0.6166 -0.1668  0.8336
  251TIP3   OH222387   3.539   1.486   0.956  0.0329  0.7726 -0.3974
  251TIP3    H122388   3.529   1.529   1.041 -0.0281 -0.8326  0.4445
  251TIP3    H222389   3.468   1.522   0.903 -0.2414  1.4265  0.3849
  252TIP3   OH222390   0.077   3.793   2.026  0.4163 -0.3478 -0.2263
  252TIP3    H122391   0.009   3.849   1.986  0.2664  0.4198  1.0602
  252TIP3    H222392   0.112   3.742   1.952 -1.1142 -0.3015 -1.0308
  253TIP3   OH222393   5.308   6.636   8.373  0.3701  0.1360  0.4411
  253TIP3    H122394   5.262   6.555   8.395  1.1115 -0.5999 -0.6233
  253TIP3    H222395   5.398   6.621   8.403  0.0548  1.4656  2.2780
  254TIP3   OH222396   5.102   1.138   2.672 -0.5414 -0.0845  0.2292
  254TIP3    H122397   5.143   1.086   2.602 -0.5360 -1.5519  1.2676
  254TIP3    H222398   5.020   1.092   2.690 -1.2567  1.1320  0.1997
  255TIP3   OH222399   3.661   2.995   7.345 -0.3545 -0.1209 -0.3082
  255TIP3    H122400   3.614   2.979   7.262 -0.5997  0.3152 -0.2566
  255TIP3    H222401   3.671   2.908   7.383 -1.8245 -0.1695  0.0542
  256TIP3   OH222402   2.822   2.083   8.325  0.3195 -0.5572 -0.0751
  256TIP3    H122403   2.891   2.020   8.346  1.0248  0.1264 -0.2750
  256TIP3    H222404   2.868   2.153   8.279 -0.1080  1.0050  1.7478
  257TIP3   OH222405   0.445   0.263   0.832  0.0422  0.1094 -0.4454
  257TIP3    H122406   0.409   0.220   0.755  0.0259  0.2988 -0.5460
  257TIP3    H222407   0.425   0.356   0.819 -0.2644  0.1017 -0.0497
  258TIP3   OH222408   3.457   1.990   0.461 -0.0985 -0.1031  0.1563
  258TIP3    H122409   3.523   1.940   0.413  0.2419 -0.1144  0.6249
  258TIP3    H222410   3.374   1.966   0.421  0.0804 -0.9173  0.2600
  259TIP3   OH222411   0.014   0.386   7.386  0.0152  0.2866  0.2382
  259TIP3    H122412   0.012   0.301   7.430  0.0582  0.7302  1.1135
  259TIP3    H222413  -0.077   0.403   7.362  0.0380 -0.1009 -0.1366
  260TIP3   OH222414   3.434   4.012   2.298  0.0188 -0.0120  0.5749
  260TIP3    H122415   3.524   4.018   2.331  0.3012  1.2403 -0.3594
  260TIP3    H222416   3.391   4.091   2.331 -1.0828 -1.0954  1.8858
  261TIP3   OH222417   3.040   0.142   1.839  0.0463  0.2192  0.2676
  261TIP3    H122418   3.117   0.177   1.884  0.3730  0.1730 -0.2489
  261TIP3    H222419   2.978   0.215   1.838 -0.0797  0.1332  1.0402
  262TIP3   OH222420   1.458   5.138   0.416 -0.3386 -0.0661  0.0768
  262TIP3    H122421   1.475   5.090   0.334 -2.9320 -0.4595 -0.3382
  262TIP3    H222422   1.441   5.069   0.480  1.4678  0.2504  0.9630
  263TIP3   OH222423   5.642   0.594   0.782 -0.1013  0.8074 -0.5265
  263TIP3    H122424   5.691   0.674   0.761 -0.7236  0.9922 -1.3162
  263TIP3    H222425   5.619   0.605   0.875 -0.3250  1.6312 -0.6666
  264TIP3   OH222426   2.635   3.996   1.733 -0.0650 -0.0442 -0.2275
  264TIP3    H122427   2.583   3.916   1.738 -1.6346  0.9132 -0.4056
  264TIP3    H222428   2.723   3.967   1.711 -0.4201 -1.7688  0.5016
  265TIP3   OH222429   1.684   2.439   2.073 -0.2694  0.2320 -0.4804
  265TIP3    H122430   1.700   2.487   2.155 -0.3043 -0.2501 -0.1854
  265TIP3    H222431   1.682   2.347   2.100 -1.7753  0.1575 -0.7702
  266TIP3   OH222432   2.692   1.091   8.067  0.4870  0.0356 -0.1128
  266TIP3    H122433   2.749   1.088   8.144  0.6885  1.5077 -0.1756
  266TIP3    H222434   2.603   1.091   8.103  0.4683 -2.0598 -0.0075
  267TIP3   OH222435   1.388   0.891   0.272 -0.5327 -0.0239 -0.0350
  267TIP3    H122436   1.303   0.855   0.297 -0.6866  0.8234  0.7258
  267TIP3    H222437   1.405   0.855   0.185 -0.4001 -2.3873  0.8830
  268TIP3   OH222438   2.210   2.200   6.792 -0.1797  0.7459  0.3856
  268TIP3    H122439   2.122   2.176   6.822 -0.1753  1.2076  0.7656
  268TIP3    H222440   2.245   2.119   6.756 -0.3424  0.2885  1.2384
  269TIP3   OH222441   5.579   2.881   0.947  0.2893  0.2274 -0.2775
  269TIP3    H122442   5.553   2.790   0.959  0.7569  0.2646  1.2719
  269TIP3    H222443   5.651   2.893   1.009  1.0716  1.3146 -1.3546
  270TIP3   OH222444   1.834   3.794   8.088  0.5287 -0.1040  0.0374
  270TIP3    H122445   1.821   3.808   7.994 -0.6750  2.0491  0.4499
  270TIP3    H222446   1.784   3.715   8.108  0.1014 -0.1089 -0.9925
  271TIP3   OH222447   4.388   3.507   7.564  0.4420  0.3292 -0.4024
  271TIP3    H122448   4.346   3.469   7.486  1.8928  0.8242 -1.4486
  271TIP3    H222449   4.370   3.601   7.558  0.2773  0.3300  0.0505
  272TIP3   OH222450   0.099   5.705   6.961 -0.1361 -0.6238  0.1381
  272TIP3    H122451   0.077   5.792   6.994 -0.3145 -0.7112  0.2481
  272TIP3    H222452   0.110   5.652   7.040 -0.6200 -0.8467  0.0574
  273TIP3   OH222453   2.397   0.719   0.967 -0.1846  1.0132  0.2809
  273TIP3    H122454   2.463   0.784   0.989 -0.3582  1.0725  0.6355
  273TIP3    H222455   2.315   0.768   0.963 -0.7735  0.4222  3.1858
  274TIP3   OH222456   5.661   1.572   0.712 -0.3916  0.2341 -0.1946
  274TIP3    H122457   5.663   1.632   0.786 -1.5829 -1.9815  1.7945
  274TIP3    H222458   5.576   1.588   0.670 -0.2382  0.6821 -0.3307
  275TIP3   OH222459   5.332   5.989   8.332  0.2793 -0.0818 -0.9902
  275TIP3    H122460   5.397   5.975   8.402 -0.0853  1.1256 -0.3831
  275TIP3    H222461   5.251   6.007   8.378 -0.2790 -0.5981 -1.7504
  276TIP3   OH222462   5.042   2.918   2.646  0.3598 -0.4182 -0.2388
  276TIP3    H122463   5.058   2.956   2.732  2.8273 -1.4890 -0.1450
  276TIP3    H222464   5.075   2.983   2.584  0.2114 -0.3960 -0.2954
  277TIP3   OH222465   5.669   3.035   1.510  0.1456  0.6035  0.7134
  277TIP3    H122466   5.611   2.958   1.516  1.3831 -0.3032  1.6410
  277TIP3    H222467   5.650   3.086   1.589  1.0150 -0.0238  1.3517
  278TIP3   OH222468   3.337   1.057   8.547 -0.2941 -0.1355 -0.3213
  278TIP3    H122469   3.357   1.133   8.492  0.1555 -0.9876 -1.3596
  278TIP3    H222470   3.249   1.074   8.581 -0.2748  0.7563 -0.6903
  279TIP3   OH222471   4.784   5.865   7.877  0.1509  0.6013  0.3034
  279TIP3    H122472   4.730   5.911   7.941  0.5969  0.5369  0.7353
  279TIP3    H222473   4.839   5.933   7.838 -0.5053  0.7291 -0.4143
  280TIP3   OH222474   3.020   5.070   0.709  0.0999  0.1167 -0.2407
  280TIP3    H122475   3.042   4.977   0.702 -0.5859 -0.1171  0.5613
  280TIP3    H222476   3.032   5.091   0.802 -1.2391  0.4370 -0.1248
  281TIP3   OH222477   0.162   5.471   8.474  0.9849  0.3029 -1.0817
  281TIP3    H122478   0.093   5.535   8.456 -2.1949 -2.2273  0.9867
  281TIP3    H222479   0.186   5.486   8.565  0.9350 -0.8044 -0.8756
  282TIP3   OH222480   1.362   2.913   7.687  0.0375 -0.3399 -0.1279
  282TIP3    H122481   1.345   3.002   7.656 -2.0535 -0.5386  0.3254
  282TIP3    H222482   1.450   2.917   7.724  0.9404  0.9204 -2.2470
  283TIP3   OH222483   0.918   2.175   8.004  0.5771 -0.1834  0.6501
  283TIP3    H122484   0.850   2.110   7.986  0.1193  0.1065  1.3190
  283TIP3    H222485   0.999   2.125   8.008  0.5242 -0.4471 -0.8549
  284TIP3   OH222486   3.350   2.168   8.002 -0.2141  0.2829  0.2644
  284TIP3    H122487   3.273   2.203   7.956  0.4755  0.8963 -0.4491
  284TIP3    H222488   3.350   2.075   7.981 -0.5952  0.3327  0.0278
  285TIP3   OH222489   1.172   6.058   8.246 -0.3059 -0.4204 -0.0845
  285TIP3    H122490   1.103   5.996   8.268  1.4015 -2.2241  0.4918
  285TIP3    H222491   1.224   6.067   8.326  0.3095  0.6420 -0.5787
  286TIP3   OH222492   2.254   3.811   0.128  0.2790  0.0690  0.0114
  286TIP3    H122493   2.279   3.813   0.220  0.8163 -0.4780 -0.1195
  286TIP3    H222494   2.210   3.727   0.116  0.5969 -0.0554 -0.3253
  287TIP3   OH222495   0.985   0.923   1.894 -0.1606  0.0172 -0.2361
  287TIP3    H122496   0.925   0.915   1.820  1.1099 -0.4317 -1.2734
  287TIP3    H222497   1.060   0.971   1.859 -0.3680  1.5731  1.3262
  288TIP3   OH222498   1.817   5.258   2.618 -0.1456 -0.7747  0.5175
  288TIP3    H122499   1.902   5.256   2.574  0.2987 -2.2257  1.3811
  288TIP3    H222500   1.828   5.321   2.689 -0.1749 -0.0662 -0.1003
  289TIP3   OH222501   1.166   5.030   8.420  0.6071  0.4534 -0.0601
  289TIP3    H122502   1.234   5.067   8.365  1.2179  1.4657  1.3163
  289TIP3    H222503   1.204   5.029   8.508 -0.3535 -1.0501  0.3745
  290TIP3   OH222504   5.748   5.157   0.679  0.0096  0.0288 -0.4458
  290TIP3    H122505   5.805   5.209   0.735 -1.1968  0.8134  0.0894
  290TIP3    H222506   5.762   5.193   0.591  2.3071 -1.5581 -0.8277
  291TIP3   OH222507   5.948   2.715   0.566 -0.0307  0.0000 -0.0209
  291TIP3    H122508   6.003   2.791   0.585  0.2360 -0.1800 -0.0721
  291TIP3    H222509   5.911   2.734   0.479 -2.0266  1.2787  1.0316
  292TIP3   OH222510   6.032   0.458   7.523  0.1013 -0.4428  0.4810
  292TIP3    H122511   5.999   0.438   7.436 -3.2359 -2.5532  2.0443
  292TIP3    H222512   6.061   0.374   7.558  0.7345  0.2388  1.6711
  293TIP3   OH222513   5.586   2.069   0.996  0.5113  0.0324  0.0130
  293TIP3    H122514   5.600   1.977   1.021  0.6623 -0.0449 -0.3515
  293TIP3    H222515   5.649   2.117   1.050  0.3731 -0.0683  0.2672
  294TIP3   OH222516   0.702   4.348   1.143 -0.4691  0.2066  0.3241
  294TIP3    H122517   0.753   4.426   1.123  0.3061 -0.5206 -0.6862
  294TIP3    H222518   0.752   4.276   1.103 -1.5915 -0.7019  0.4940
  295TIP3   OH222519   5.085   3.336   7.814 -0.3592 -0.5625  0.3308
  295TIP3    H122520   5.028   3.387   7.757 -0.3063 -1.1882 -0.2958
  295TIP3    H222521   5.164   3.321   7.762  1.3303  2.0917  1.9153
  296TIP3   OH222522   3.769   6.125   8.657 -0.2306  0.4826  0.3324
  296TIP3    H122523   3.684   6.170   8.658 -1.1961 -1.1926 -1.0448
  296TIP3    H222524   3.768   6.071   8.735 -0.2703  0.7503  0.5199
  297TIP3   OH222525   3.617   6.533   8.547 -0.0279  0.5295 -0.2000
  297TIP3    H122526   3.523   6.534   8.531 -0.0654  0.1223 -0.0342
  297TIP3    H222527   3.630   6.462   8.609  0.4635  0.1587 -0.7072
  298TIP3   OH222528   2.013   3.676   0.372  0.4732  0.4091  0.3260
  298TIP3    H122529   2.044   3.652   0.285 -1.0845  0.6857 -0.3581
  298TIP3    H222530   2.086   3.724   0.412  1.7189 -0.9292 -0.2550
  299TIP3   OH222531   2.367   5.507   2.441  0.1889  0.5423  0.2534
  299TIP3    H122532   2.342   5.548   2.359 -0.8382  1.2144  0.8788
  299TIP3    H222533   2.328   5.420   2.438  1.5169 -0.0562 -0.6386
  300TIP3   OH222534   6.444   6.366   0.565  0.4711 -0.2575 -0.1320
  300TIP3    H122535   6.508   6.429   0.533  0.5984 -0.3221 -0.0042
  300TIP3    H222536   6.379   6.361   0.495  0.8133 -0.4923 -0.4334
  301TIP3   OH222537   0.766   4.121   7.060  0.2781 -0.1093  0.2171
  301TIP3    H122538   0.733   4.034   7.039  1.1046 -0.2818 -0.4329
  301TIP3    H222539   0.799   4.113   7.150 -0.3967 -0.2423  0.4527
  302TIP3   OH222540   4.365   3.405   2.552  0.1892  0.3876 -0.4245
  302TIP3    H122541   4.391   3.392   2.644  0.7692 -0.7824 -0.7324
  302TIP3    H222542   4.291   3.345   2.540 -0.5897  1.3275 -0.4474
  303TIP3   OH222543   4.869   2.007   1.541 -0.6097 -0.1008 -0.4221
  303TIP3    H122544   4.838   2.014   1.631 -1.4221  0.4512 -0.7242
  303TIP3    H222545   4.864   2.097   1.508  1.6430  0.0755 -0.4128
  304TIP3   OH222546   1.231   5.820   0.985 -0.9363 -0.2969 -0.1747
  304TIP3    H122547   1.213   5.727   0.969 -0.4229 -0.5111  0.4450
  304TIP3    H222548   1.219   5.862   0.900 -4.3355 -0.4063  0.0981
  305TIP3   OH222549   4.958   0.111   7.741  0.4083  0.3916  0.2748
  305TIP3    H122550   5.038   0.064   7.763  0.4967  0.8591  1.0059
  305TIP3    H222551   4.890   0.068   7.792  0.1291 -0.1972 -0.5754
  306TIP3   OH222552   6.141   2.827   8.302  0.0305  0.5020  0.7791
  306TIP3    H122553   6.107   2.741   8.277  2.1722 -0.1775 -0.0407
  306TIP3    H222554   6.139   2.827   8.397 -2.5738  0.7005  0.7941
  307TIP3   OH222555   5.116   1.379   0.168 -0.3405 -0.6384  0.0914
  307TIP3    H122556   5.196   1.340   0.134  0.1817 -0.6261  1.2875
  307TIP3    H222557   5.046   1.330   0.125  0.2956 -1.0668 -0.4815
  308TIP3   OH222558   3.642   1.001   0.519 -0.0649 -0.2201  0.3036
  308TIP3    H122559   3.582   1.031   0.587  0.4132 -0.6471  0.9227
  308TIP3    H222560   3.709   0.951   0.566  1.2457  0.9420 -0.2627
  309TIP3   OH222561   4.622   4.013   0.548 -0.2628 -0.6476 -0.1439
  309TIP3    H122562   4.616   4.065   0.468 -2.8482 -0.6667 -0.0570
  309TIP3    H222563   4.696   4.050   0.596  0.5326  0.1943 -1.9604
  310TIP3   OH222564   5.367   6.570   8.023 -0.6415  0.1360 -0.0445
  310TIP3    H122565   5.347   6.489   8.070 -0.6188 -0.7553 -1.5123
  310TIP3    H222566   5.283   6.617   8.022 -1.3748 -1.1136 -1.4808
  311TIP3   OH222567   1.804   3.495   7.776  0.2347  0.6927  0.4180
  311TIP3    H122568   1.847   3.435   7.837  0.8177 -1.1440 -1.6703
  311TIP3    H222569   1.875   3.536   7.727 -0.1168 -2.3040 -3.0106
  312TIP3   OH222570   4.494   4.151   7.435 -0.0907  0.0513  0.1003
  312TIP3    H122571   4.460   4.212   7.500 -1.5394 -0.2674 -0.3336
  312TIP3    H222572   4.420   4.094   7.414  0.6851 -0.6064 -0.9574
  313TIP3   OH222573   0.592   4.045   0.231 -0.2824 -0.0465 -0.1643
  313TIP3    H122574   0.529   4.107   0.194  1.2277  1.2090 -0.7930
  313TIP3    H222575   0.561   4.030   0.320 -0.8694  1.4355 -0.0782
  314TIP3   OH222576   2.169   3.060   7.465 -0.6145 -0.3838 -0.4326
  314TIP3    H122577   2.128   3.078   7.381 -2.2999  1.2099  0.6440
  314TIP3    H222578   2.219   3.139   7.485 -1.2080 -0.2459  0.5760
  315TIP3   OH222579   2.904   4.147   7.473  0.4956  0.1867  0.5040
  315TIP3    H122580   2.990   4.188   7.486 -0.0495  1.7811 -0.6057
  315TIP3    H222581   2.847   4.219   7.447 -0.8366 -1.0912 -0.2624
  316TIP3   OH222582   1.915   4.460   8.017  0.1838  0.6507 -0.0734
  316TIP3    H122583   1.888   4.449   7.926 -0.7778 -1.7293  0.4294
  316TIP3    H222584   1.834   4.469   8.066  0.6997  2.1601  0.5618
  317TIP3   OH222585   4.601   5.961   8.110  0.0080 -0.1577  0.2065
  317TIP3    H122586   4.544   5.962   8.033 -0.0773 -1.0422  0.2532
  317TIP3    H222587   4.644   6.047   8.109 -1.3025  0.5249  0.1670
  318TIP3   OH222588   2.219   4.120   7.247  0.2666  0.5734  0.7240
  318TIP3    H122589   2.179   4.199   7.283  0.5431  1.3237 -0.5223
  318TIP3    H222590   2.285   4.153   7.186  0.5709 -0.6327  0.3730
  319TIP3   OH222591   3.848   6.641   0.472 -0.1391 -0.0553 -0.7203
  319TIP3    H122592   3.943   6.633   0.480 -0.1101 -0.4158 -1.4137
  319TIP3    H222593   3.825   6.589   0.396 -0.7777  0.8535 -1.1722
  320TIP3   OH222594   4.815   0.489   6.547 -0.7189  0.1004 -0.5759
  320TIP3    H122595   4.807   0.572   6.499  0.0260  0.6922  0.2892
  320TIP3    H222596   4.841   0.515   6.635 -1.3809 -1.0119 -0.0375
  321TIP3   OH222597   2.958   1.515   1.554  0.1272  0.6025 -0.9406
  321TIP3    H122598   2.981   1.524   1.646  0.2019 -1.2430 -0.7596
  321TIP3    H222599   2.897   1.587   1.537 -1.6930 -0.3427  1.1401
  322TIP3   OH222600   4.266   1.924   1.556 -0.4280 -0.8251  0.4232
  322TIP3    H122601   4.310   1.954   1.477 -2.8307  0.3322 -0.5735
  322TIP3    H222602   4.274   1.997   1.618  0.2584 -1.1883  0.7771
  323TIP3   OH222603   4.583   1.230   2.870 -0.0596 -0.3564  0.2966
  323TIP3    H122604   4.637   1.151   2.884 -0.8950 -0.8186  1.0104
  323TIP3    H222605   4.547   1.250   2.956  0.8486  1.3656  0.3170
  324TIP3   OH222606   5.750   6.380   1.451 -0.1796 -0.6104  0.3532
  324TIP3    H122607   5.776   6.351   1.538  0.2931 -0.1115  0.3840
  324TIP3    H222608   5.749   6.475   1.456 -1.1069 -0.5955  0.0803
  325TIP3   OH222609   2.277   3.760   1.575  0.1728  0.4772 -0.1017
  325TIP3    H122610   2.333   3.803   1.639 -1.4467 -0.3636  1.9844
  325TIP3    H222611   2.190   3.762   1.614 -0.5772 -1.5698 -1.4908
  326TIP3   OH222612   1.351   1.199   2.924 -0.0654 -0.7303 -0.1174
  326TIP3    H122613   1.396   1.177   2.843 -0.5299  0.7274 -0.8058
  326TIP3    H222614   1.391   1.281   2.952  1.0914 -1.8941  1.9393
  327TIP3   OH222615   6.405   0.193   2.010 -0.5217 -0.8280 -0.3815
  327TIP3    H122616   6.466   0.224   1.944 -0.2261 -0.1651  0.1952
  327TIP3    H222617   6.457   0.187   2.090 -0.7975 -1.9293 -0.2690
  328TIP3   OH222618   1.385   6.573   6.435 -0.7236 -0.3604  0.6055
  328TIP3    H122619   1.398   6.492   6.484  0.4568  0.0609  1.0166
  328TIP3    H222620   1.371   6.639   6.503  0.6194  0.1721  0.3784
  329TIP3   OH222621   0.550   0.751   8.023  0.3054 -0.8243  0.0403
  329TIP3    H122622   0.571   0.692   8.095 -0.0521  0.0028  0.8391
  329TIP3    H222623   0.602   0.829   8.039 -0.0733 -0.4771 -0.3826
  330TIP3   OH222624   1.959   3.285   1.236 -0.0733  0.3731  0.2571
  330TIP3    H122625   2.021   3.298   1.308 -0.8036  0.1476  0.9409
  330TIP3    H222626   2.015   3.267   1.160  0.7261  1.0741  0.6539
  331TIP3   OH222627   3.718   3.202   1.740 -0.4453 -0.5442 -0.1194
  331TIP3    H122628   3.800   3.204   1.790 -0.9288 -1.4169  0.7404
  331TIP3    H222629   3.674   3.123   1.771 -0.8033 -1.0653 -1.8782
  332TIP3   OH222630   5.419   4.020   7.945 -0.1210 -0.2756  0.3161
  332TIP3    H122631   5.332   4.040   7.980  1.0972  2.9453  1.9011
  332TIP3    H222632   5.421   4.064   7.860  0.1967  0.3316  0.6327
  333TIP3   OH222633   4.864   4.753   1.261  0.4645  0.2349  0.1983
  333TIP3    H122634   4.938   4.809   1.235  0.8093 -1.3179 -2.6537
  333TIP3    H222635   4.897   4.701   1.334  1.6970  0.6188 -0.0609
  334TIP3   OH222636   2.843   2.361   1.952 -0.0794 -0.1220 -0.0051
  334TIP3    H122637   2.767   2.325   1.998  0.1344  0.1790  0.5899
  334TIP3    H222638   2.809   2.388   1.867 -0.4010 -1.0245 -0.1787
  335TIP3   OH222639   2.832   3.410   2.094  0.4004 -0.3558  0.1196
  335TIP3    H122640   2.802   3.500   2.107 -0.8830 -0.8230  0.5523
  335TIP3    H222641   2.914   3.404   2.143 -0.4495  0.0687  1.6384
  336TIP3   OH222642   3.838   5.949   2.678 -0.0647 -0.2393 -0.4605
  336TIP3    H122643   3.829   5.856   2.699  1.0456 -0.1488  0.5012
  336TIP3    H222644   3.910   5.952   2.615 -1.9122 -0.2714 -2.7153
  337TIP3   OH222645   2.681   1.331   7.922  0.3236  0.3745  0.4068
  337TIP3    H122646   2.667   1.241   7.952 -2.9338  0.7724  0.3557
  337TIP3    H222647   2.635   1.336   7.839 -0.2842  2.3092  0.8244
  338TIP3   OH222648   6.069   4.235   1.281 -0.0777  0.0327 -0.2928
  338TIP3    H122649   6.067   4.326   1.251  1.9404  1.1365  2.4879
  338TIP3    H222650   5.994   4.228   1.340  0.8117  0.5518  0.9544
  339TIP3   OH222651   3.219   3.883   7.975  0.0629 -0.0978 -0.3643
  339TIP3    H122652   3.146   3.895   7.915 -0.9302 -1.1323  0.6033
  339TIP3    H222653   3.247   3.972   7.997 -1.6018  0.3467  0.0709
  340TIP3   OH222654   2.943   0.907   7.990 -0.2689  0.3905 -0.4346
  340TIP3    H122655   2.908   0.887   8.077 -1.8652  1.8194 -0.6820
  340TIP3    H222656   2.919   0.832   7.937 -1.6489  0.6482 -0.2136
  341TIP3   OH222657   5.126   6.291   0.818  0.1966 -0.5078  0.7101
  341TIP3    H122658   5.186   6.226   0.782 -0.2382 -0.9754  0.8168
  341TIP3    H222659   5.041   6.267   0.781  0.2497  0.8134 -0.3402
  342TIP3   OH222660   4.608   1.058   7.390  0.2653 -0.2628  0.1466
  342TIP3    H122661   4.564   0.991   7.338 -0.0294 -0.1121  0.1998
  342TIP3    H222662   4.581   1.039   7.481 -2.2310  1.6705 -0.0810
  343TIP3   OH222663   0.375   3.494   1.182  0.0560  0.0888  0.4768
  343TIP3    H122664   0.297   3.529   1.138  0.3052 -1.2547 -1.1378
  343TIP3    H222665   0.346   3.411   1.220  0.1964  0.5882  1.7197
  344TIP3   OH222666   5.183   4.271   2.345  0.3541 -0.7128  0.2444
  344TIP3    H122667   5.232   4.215   2.284  1.0767 -0.3565  0.4923
  344TIP3    H222668   5.230   4.264   2.427  0.3383  0.1061  0.3308
  345TIP3   OH222669   0.289   2.093   1.393 -0.0565 -0.4211 -0.2092
  345TIP3    H122670   0.272   2.104   1.487 -1.1926 -0.0305 -0.4484
  345TIP3    H222671   0.374   2.134   1.379 -0.3938  0.5220  0.4419
  346TIP3   OH222672   5.280   2.841   1.964 -0.1595 -0.2658  0.2986
  346TIP3    H122673   5.192   2.833   1.927  0.1431  1.0971 -0.8254
  346TIP3    H222674   5.338   2.822   1.891  0.4792 -0.6101  0.8929
  347TIP3   OH222675   4.858   1.911   2.461 -0.0971  0.0693  0.1858
  347TIP3    H122676   4.864   1.945   2.550  0.7949  0.5073 -0.0323
  347TIP3    H222677   4.948   1.898   2.434 -0.2386  1.7929 -1.3547
  348TIP3   OH222678   5.709   1.545   1.226 -0.3175  0.2942 -0.3617
  348TIP3    H122679   5.744   1.496   1.301  0.7250  0.2881 -0.8439
  348TIP3    H222680   5.709   1.482   1.154 -1.9583  0.0961 -0.2297
  349TIP3   OH222681   1.691   1.225   1.822  0.1919 -0.2180 -0.1308
  349TIP3    H122682   1.760   1.253   1.883  0.3443  1.9540 -1.2090
  349TIP3    H222683   1.737   1.200   1.743 -0.2212  0.9083 -0.7409
  350TIP3   OH222684   0.815   2.798   2.574 -0.1085  0.2306  0.3764
  350TIP3    H122685   0.896   2.777   2.527  0.3380  1.2150  0.6657
  350TIP3    H222686   0.830   2.886   2.609 -2.3573  1.6635 -1.9429
  351TIP3   OH222687   0.745   6.652   6.869 -0.0114  0.0916  0.1309
  351TIP3    H122688   0.720   6.731   6.915 -0.6420 -0.6747  1.1548
  351TIP3    H222689   0.837   6.665   6.845  0.0861  0.8468  0.8901
  352TIP3   OH222690   5.266   3.584   1.303  0.0593  0.7303  0.5104
  352TIP3    H122691   5.297   3.588   1.212  2.5327  1.8917  1.3133
  352TIP3    H222692   5.178   3.620   1.300 -0.1979  0.0551 -1.5166
  353TIP3   OH222693   5.464   2.514   1.440 -0.2496  0.3070 -0.0338
  353TIP3    H122694   5.371   2.537   1.431 -0.7414 -1.4168  0.0671
  353TIP3    H222695   5.496   2.509   1.351  0.0512  1.9145 -0.0424
  354TIP3   OH222696   0.910   4.891   0.639 -0.0737  0.1685 -0.2997
  354TIP3    H122697   0.836   4.834   0.663 -0.7082  1.1991  0.2512
  354TIP3    H222698   0.988   4.840   0.663 -0.6428 -0.0233  1.2919
  355TIP3   OH222699   0.708   5.053   1.736  0.6190  0.2596  0.5232
  355TIP3    H122700   0.691   5.085   1.647 -1.4490 -2.2320 -0.1124
  355TIP3    H222701   0.625   5.068   1.782  0.7856 -0.8620  1.2175
  356TIP3   OH222702   0.861   4.364   2.050 -0.2363  0.1836  0.0595
  356TIP3    H122703   0.791   4.311   2.087  0.8841  0.2106  2.3891
  356TIP3    H222704   0.842   4.453   2.079  0.5229  0.2568  0.3616
  357TIP3   OH222705   0.674   0.165   1.884 -0.1577 -0.8262 -0.0362
  357TIP3    H122706   0.660   0.255   1.854  0.0532 -1.3173 -1.7012
  357TIP3    H222707   0.672   0.171   1.980 -0.5159  0.8817 -0.1218
  358TIP3   OH222708   4.943   5.773   6.812  0.4878  0.1228  0.0279
  358TIP3    H122709   4.934   5.834   6.739  0.7260  1.2547  0.9238
  358TIP3    H222710   5.037   5.771   6.830  0.3280  0.7085  0.9974
  359TIP3   OH222711   4.667   6.337   7.481 -0.4832  0.2943  0.7311
  359TIP3    H122712   4.574   6.322   7.495 -0.1646 -0.6592  1.9687
  359TIP3    H222713   4.677   6.340   7.386 -1.5368 -1.2385  0.5389
  360TIP3   OH222714   6.378   3.525   7.964 -0.1318 -0.2560 -0.2546
  360TIP3    H122715   6.457   3.512   7.911  0.5853 -1.2160  1.0174
  360TIP3    H222716   6.384   3.616   7.994 -0.8984  0.5451 -2.3061
  361TIP3   OH222717   2.017   6.503   1.666 -0.0857 -0.0206  0.1330
  361TIP3    H122718   2.034   6.465   1.752 -1.6026 -2.2961 -0.4766
  361TIP3    H222719   1.951   6.571   1.682 -0.2730 -0.3552  0.7941
  362TIP3   OH222720   1.161   0.098   1.896  0.2282 -0.1725  0.1546
  362TIP3    H122721   1.127   0.186   1.881 -1.1609 -0.8501 -0.8038
  362TIP3    H222722   1.183   0.097   1.989 -1.6117  0.5780  0.6428
  363TIP3   OH222723   3.208   4.956   1.289  0.3203  0.2385 -0.2718
  363TIP3    H122724   3.201   4.869   1.250 -0.8315  0.3269 -0.2991
  363TIP3    H222725   3.222   4.940   1.382  0.1002  0.0144 -0.2756
  364TIP3   OH222726   3.151   2.195   0.554  0.6431 -0.3487  0.3728
  364TIP3    H122727   3.235   2.238   0.570  0.3319  0.9817 -1.3020
  364TIP3    H222728   3.174   2.104   0.536  1.6437 -0.1726  0.6587
  365TIP3   OH222729   1.597   6.808   2.334  0.4305 -0.1047  0.2027
  365TIP3    H122730   1.577   6.901   2.325 -1.6400 -0.5275  0.0423
  365TIP3    H222731   1.582   6.788   2.427  0.1545 -0.4291  0.0915
  366TIP3   OH222732   3.059   1.568   1.220 -0.5756  0.4477  0.4597
  366TIP3    H122733   3.070   1.621   1.299 -1.0563  0.3013  0.6302
  366TIP3    H222734   2.964   1.570   1.204 -0.5680 -0.1752  0.3363
  367TIP3   OH222735   0.822   5.636   7.312 -0.1953  0.2668 -0.4342
  367TIP3    H122736   0.828   5.653   7.218 -0.6131  0.2583 -0.4626
  367TIP3    H222737   0.868   5.710   7.352  0.2209  0.1296 -0.6541
  368TIP3   OH222738   0.524   4.079   0.486 -0.4680  0.5229 -0.1719
  368TIP3    H122739   0.456   4.081   0.553 -0.4932  0.0806 -0.1838
  368TIP3    H222740   0.557   4.169   0.484 -0.4514  0.5364  0.4447
  369TIP3   OH222741   4.797   6.074   0.489  0.1916  0.5203 -0.6477
  369TIP3    H122742   4.716   6.121   0.506  0.3543 -0.1080  2.3758
  369TIP3    H222743   4.770   5.984   0.472  0.1972  0.6397 -1.3411
  370TIP3   OH222744   5.905   1.314   7.193 -0.2605  0.5972  0.6467
  370TIP3    H122745   5.841   1.287   7.127  0.1934  0.8684  0.0896
  370TIP3    H222746   5.889   1.408   7.206 -1.8154  0.1408  2.5579
  371TIP3   OH222747   0.867   3.077   0.192  0.0758  0.0090 -0.2526
  371TIP3    H122748   0.797   3.061   0.255 -0.1726 -0.9084 -0.7436
  371TIP3    H222749   0.937   3.017   0.219  1.0745  1.5341  0.7792
  372TIP3   OH222750   2.727   0.963   6.757  0.3701  0.5367 -0.3361
  372TIP3    H122751   2.698   0.906   6.686  0.9679  0.1187 -0.2520
  372TIP3    H222752   2.816   0.934   6.776  0.0372  0.2839  0.9476
  373TIP3   OH222753   5.202   3.578   7.919 -0.5702  0.0087  0.3273
  373TIP3    H122754   5.164   3.498   7.884 -1.6960  0.3030  0.8407
  373TIP3    H222755   5.297   3.564   7.914 -0.7469 -1.0071 -0.3590
  374TIP3   OH222756   5.756   0.410   7.099  0.6020 -0.0962  0.4518
  374TIP3    H122757   5.704   0.418   7.179 -0.3712  1.0743 -0.2583
  374TIP3    H222758   5.691   0.414   7.028  1.4870 -0.6450 -0.4018
  375TIP3   OH222759   6.296   5.522   0.596  0.3567  0.3486  0.2272
  375TIP3    H122760   6.258   5.608   0.576 -0.5765  0.5413  2.4981
  375TIP3    H222761   6.390   5.537   0.601  0.8898  0.0799 -4.4992
  376TIP3   OH222762   5.626   0.835   1.983 -0.0547 -0.4880 -0.7992
  376TIP3    H122763   5.614   0.755   2.035 -0.9743  0.3735  0.3637
  376TIP3    H222764   5.674   0.806   1.906  1.0670 -1.8774  0.3708
  377TIP3   OH222765   4.717   2.469   2.387  0.0490 -0.5090 -0.0906
  377TIP3    H122766   4.745   2.378   2.399  0.8363 -0.0497  1.9534
  377TIP3    H222767   4.798   2.516   2.365 -0.3827 -0.2844 -1.3166
  378TIP3   OH222768   4.688   1.217   0.740  0.0093 -0.4987 -0.2002
  378TIP3    H122769   4.615   1.231   0.680 -0.4394 -1.3249  0.1263
  378TIP3    H222770   4.647   1.198   0.824  0.5760 -1.5910 -0.1512
  379TIP3   OH222771   5.836   0.493   1.143  0.1865 -0.0430 -0.2288
  379TIP3    H122772   5.834   0.571   1.088  2.3750  0.0970 -0.2210
  379TIP3    H222773   5.782   0.515   1.219 -0.0170  1.1004 -0.6917
  380TIP3   OH222774   0.365   6.218   2.216  0.1927  0.5882  0.0598
  380TIP3    H122775   0.308   6.281   2.260 -0.2798  0.7798 -0.7907
  380TIP3    H222776   0.419   6.272   2.158 -1.2419  0.1387 -1.7926
  381TIP3   OH222777   0.168   4.141   0.395  0.4747  0.3064 -0.5089
  381TIP3    H122778   0.195   4.129   0.304 -0.3415 -1.3715 -0.5689
  381TIP3    H222779   0.129   4.228   0.397  0.1957  0.2340 -1.8506
  382TIP3   OH222780   5.136   2.727   2.418  0.1485 -1.0224  0.6260
  382TIP3    H122781   5.159   2.638   2.445 -1.5816 -1.4841  0.6553
  382TIP3    H222782   5.124   2.774   2.501  1.1200 -0.7159  0.6109
  383TIP3   OH222783   0.723   4.505   8.390  0.9192  0.2580 -0.1796
  383TIP3    H122784   0.767   4.502   8.474 -0.5448 -0.8776  0.6015
  383TIP3    H222785   0.660   4.577   8.397  1.1197  0.4667 -0.4852
  384TIP3   OH222786   6.300   1.835   7.408  0.4007 -0.5184  0.6342
  384TIP3    H122787   6.333   1.880   7.485  2.4493  0.5083 -0.7338
  384TIP3    H222788   6.205   1.844   7.412  0.6509  2.9338  1.0633
  385TIP3   OH222789   4.867   3.356   2.940  0.4869  0.0304 -0.6368
  385TIP3    H122790   4.806   3.428   2.925 -0.7886 -1.4818 -3.3518
  385TIP3    H222791   4.812   3.278   2.944  2.0129 -1.0603 -0.1115
  386TIP3   OH222792   3.852   4.635   7.897  0.3186 -0.0219 -0.3496
  386TIP3    H122793   3.840   4.586   7.815 -0.3569 -0.2350 -0.1374
  386TIP3    H222794   3.939   4.673   7.890  0.7998 -1.1078 -0.6131
  387TIP3   OH222795   0.134   6.200   2.758 -0.2943 -0.6797 -0.2195
  387TIP3    H122796   0.056   6.203   2.814  0.8968 -0.5918  1.4970
  387TIP3    H222797   0.147   6.106   2.741 -0.1458 -0.7805  0.4185
  388TIP3   OH222798   0.466   2.308   2.837  0.3601  0.3625 -0.3147
  388TIP3    H122799   0.478   2.278   2.746  0.1921 -1.5147  0.2358
  388TIP3    H222800   0.474   2.403   2.832  0.6784  0.2800 -2.2497
  389TIP3   OH222801   5.924   0.206   6.994 -0.1016  0.0233 -0.3465
  389TIP3    H122802   5.877   0.284   7.022  0.0213 -0.0014 -0.0636
  389TIP3    H222803   5.967   0.231   6.912 -0.0063  0.2700 -0.2213
  390TIP3   OH222804   5.352   4.364   1.114  0.3019 -0.1952  0.1597
  390TIP3    H122805   5.388   4.420   1.045 -0.2426  0.3936  0.3478
  390TIP3    H222806   5.421   4.300   1.131  1.2919  0.9382  0.5457
  391TIP3   OH222807   2.838   3.881   7.429 -0.1910 -0.0865 -0.0655
  391TIP3    H122808   2.810   3.815   7.493 -0.0763  0.1596  0.2392
  391TIP3    H222809   2.845   3.962   7.479  0.1609  0.0503 -0.3337
  392TIP3   OH222810   5.551   5.978   0.676 -0.5190 -0.3084  0.5508
  392TIP3    H122811   5.498   5.901   0.655 -2.3975 -0.1806  4.0966
  392TIP3    H222812   5.580   5.963   0.766  2.0836  1.5881  0.1478
  393TIP3   OH222813   6.287   0.915   7.684  0.5175  0.2951 -0.5730
  393TIP3    H122814   6.215   0.919   7.746 -0.0911 -1.1709 -1.1278
  393TIP3    H222815   6.247   0.882   7.603  1.4030  1.5666 -1.5758
  394TIP3   OH222816   0.589   5.253   7.879 -0.1670  0.1262 -0.3091
  394TIP3    H122817   0.627   5.188   7.938  0.7500  0.3452 -0.6381
  394TIP3    H222818   0.665   5.302   7.846 -0.8565  1.7248  0.3488
  395TIP3   OH222819   0.074   3.613   8.569 -0.4814 -0.7744 -0.2599
  395TIP3    H122820   0.136   3.544   8.592  1.2945  0.1996 -1.8530
  395TIP3    H222821   0.105   3.690   8.618 -1.6905 -0.7560  0.5211
  396TIP3   OH222822   1.265   2.593   0.552  0.2847  0.5101 -0.6314
  396TIP3    H122823   1.237   2.545   0.475 -2.3261 -1.7867  1.5330
  396TIP3    H222824   1.208   2.670   0.555 -0.4042  0.0065 -0.4614
  397TIP3   OH222825   1.982   5.459   1.278 -0.4152 -0.7485  0.1435
  397TIP3    H122826   2.055   5.457   1.340  0.5643  0.4979 -0.9117
  397TIP3    H222827   2.006   5.394   1.212  0.3310  0.4311 -0.7905
  398TIP3   OH222828   0.287   0.725   0.436 -0.6839  0.0118 -0.9869
  398TIP3    H122829   0.205   0.688   0.470 -0.7576  0.1879 -0.9740
  398TIP3    H222830   0.268   0.744   0.344 -0.2989 -1.0273 -1.2971
  399TIP3   OH222831   1.734   4.554   1.871 -0.8065  0.4001 -0.0094
  399TIP3    H122832   1.736   4.564   1.967 -2.0538 -2.0344  0.3465
  399TIP3    H222833   1.795   4.620   1.839 -0.4279  1.3615  2.4550
  400TIP3   OH222834   5.653   3.920   0.639 -0.0903 -0.0216 -0.3162
  400TIP3    H122835   5.632   4.014   0.638  1.4375  0.3601  0.3708
  400TIP3    H222836   5.742   3.916   0.675  0.0960 -1.7013 -0.8887
  401TIP3   OH222837   5.627   5.321   0.054  0.5285 -0.4192  0.2248
  401TIP3    H122838   5.551   5.373   0.030 -0.1514 -2.1920 -1.7171
  401TIP3    H222839   5.691   5.338  -0.015  1.2087 -0.3215  0.8681
  402TIP3   OH222840   3.303   1.288   7.740  0.7587 -0.5471  0.4467
  402TIP3    H122841   3.243   1.218   7.716 -1.7345  1.1318  1.3194
  402TIP3    H222842   3.296   1.351   7.669  0.7339  0.0803  0.9901
  403TIP3   OH222843   4.222   2.925   2.057 -0.3143  0.3932 -0.1394
  403TIP3    H122844   4.261   3.006   2.089 -0.9902  0.1923  1.2956
  403TIP3    H222845   4.216   2.869   2.135  2.3281 -2.0027 -1.5143
  404TIP3   OH222846   5.074   0.608   8.261  0.1007 -0.0001  0.1119
  404TIP3    H122847   5.112   0.621   8.174  0.5385 -4.3915 -0.5974
  404TIP3    H222848   5.138   0.646   8.321 -0.2040  3.1141 -1.3491
  405TIP3   OH222849   1.686   1.543   8.047 -0.5532  0.1296 -0.3284
  405TIP3    H122850   1.782   1.548   8.043 -0.4152 -1.4664  0.0875
  405TIP3    H222851   1.663   1.589   8.127  0.2702 -2.6998  1.7139
  406TIP3   OH222852   0.721   1.960   0.973  0.0797  0.7758  0.9202
  406TIP3    H122853   0.634   1.977   0.938  0.1985  0.3459  0.4025
  406TIP3    H222854   0.769   2.042   0.960 -0.1095  0.8644  0.7796
  407TIP3   OH222855   5.166   0.034   7.456 -0.3845  0.0131 -0.2859
  407TIP3    H122856   5.164   0.127   7.436 -2.4913  1.1035  3.9095
  407TIP3    H222857   5.082   0.000   7.425  0.2084 -0.4749 -1.4342
  408TIP3   OH222858   4.343   3.814   8.407 -0.0385  0.0522 -0.0514
  408TIP3    H122859   4.365   3.722   8.399  0.3896  0.0988  0.5624
  408TIP3    H222860   4.407   3.859   8.352 -0.5511 -0.0494 -0.7401
  409TIP3   OH222861   2.644   2.644   7.395  0.1171  0.5327  0.2882
  409TIP3    H122862   2.694   2.691   7.327  0.5130  1.3235  1.1034
  409TIP3    H222863   2.645   2.704   7.470  1.9909 -1.4072  1.9317
  410TIP3   OH222864   0.893   1.615   7.934 -0.1671  0.3790  0.4771
  410TIP3    H122865   0.854   1.660   7.860 -0.0262  0.1664  0.2742
  410TIP3    H222866   0.821   1.602   7.995 -0.2727  0.5956  0.3990
  411TIP3   OH222867   2.621   6.785   0.536 -0.7450  0.6569 -0.4621
  411TIP3    H122868   2.684   6.717   0.514  0.3604  1.5080 -0.0372
  411TIP3    H222869   2.631   6.850   0.466 -1.3472  0.6698 -0.5365
  412TIP3   OH222870   3.307   4.220   2.443 -0.2253  0.1614  0.3148
  412TIP3    H122871   3.218   4.186   2.450 -1.1060  1.9002 -1.5535
  412TIP3    H222872   3.345   4.204   2.530 -2.1099 -1.1860  0.9701
  413TIP3   OH222873   6.059   1.126   1.574  0.5898 -0.1973  0.0416
  413TIP3    H122874   5.999   1.085   1.511  0.4114  1.8764 -1.2418
  413TIP3    H222875   6.141   1.135   1.525  0.2311  2.1216 -0.2135
  414TIP3   OH222876   5.707   2.578   8.407 -0.2540 -0.3008  0.2589
  414TIP3    H122877   5.699   2.655   8.464  0.9670  0.8118 -0.9846
  414TIP3    H222878   5.748   2.612   8.328 -2.0607 -1.7504 -1.3899
  415TIP3   OH222879   2.168   5.336   7.086 -0.0207 -0.5155 -0.2111
  415TIP3    H122880   2.171   5.241   7.097 -0.3233 -0.7574 -1.9645
  415TIP3    H222881   2.098   5.351   7.023 -0.1651  0.9086  0.2495
  416TIP3   OH222882   2.496   1.143   7.304  0.3084  0.0032 -0.4952
  416TIP3    H122883   2.538   1.203   7.242  0.9591  1.4332  1.2578
  416TIP3    H222884   2.568   1.092   7.341  0.4386  1.6185  1.6270
  417TIP3   OH222885   3.609   1.117   8.118 -0.1862  0.0183 -0.3951
  417TIP3    H122886   3.530   1.108   8.065 -0.1129  1.9764 -0.9168
  417TIP3    H222887   3.635   1.208   8.106  1.0708 -0.0781  1.3001
  418TIP3   OH222888   0.987   3.518   7.930  0.2026 -0.1709 -0.3715
  418TIP3    H122889   1.020   3.437   7.893  0.6726  0.1099 -0.5662
  418TIP3    H222890   0.983   3.579   7.856  0.1857  0.0899 -0.1589
  419TIP3   OH222891   0.467   0.419   2.169 -0.3641  0.5090  0.0128
  419TIP3    H122892   0.373   0.429   2.186 -0.3517  2.2398 -0.6894
  419TIP3    H222893   0.486   0.484   2.101  1.5801  1.0946  1.0239
  420TIP3   OH222894   2.767   6.075   1.915  0.3585 -0.2751  0.1429
  420TIP3    H122895   2.854   6.094   1.879  0.7407 -0.4331  0.9606
  420TIP3    H222896   2.750   6.147   1.975  0.7287 -1.1533  1.3587
  421TIP3   OH222897   3.314   6.356   0.822 -0.7776 -0.2009  0.2108
  421TIP3    H122898   3.322   6.383   0.731  0.3519 -0.1989  0.2899
  421TIP3    H222899   3.332   6.436   0.872  2.2721 -0.9020  0.4417
  422TIP3   OH222900   3.756   6.459   1.162  0.2714  0.2859 -0.3934
  422TIP3    H122901   3.810   6.511   1.221  0.6235 -0.2372 -0.2503
  422TIP3    H222902   3.668   6.464   1.200  0.0804  1.6619 -0.9760
  423TIP3   OH222903   5.517   0.451   0.566 -0.1137 -0.1844  0.3645
  423TIP3    H122904   5.564   0.506   0.629 -0.7105 -0.7747  1.3367
  423TIP3    H222905   5.429   0.488   0.563 -0.2137 -0.4397  0.2035
  424TIP3   OH222906   3.174   6.422   8.060  0.0457 -0.2504  0.3901
  424TIP3    H122907   3.120   6.489   8.019  1.1422 -1.2982 -3.0820
  424TIP3    H222908   3.246   6.470   8.100  1.2471  0.7799 -2.7015
  425TIP3   OH222909   3.499   4.847   7.843 -0.0771  0.4382 -0.5277
  425TIP3    H122910   3.511   4.779   7.909 -0.2413 -0.0629 -1.0072
  425TIP3    H222911   3.571   4.834   7.781  1.6003  2.4869  0.8478
  426TIP3   OH222912   5.180   1.226   2.266 -0.3541  0.4635 -0.1029
  426TIP3    H122913   5.275   1.223   2.269 -0.3260 -0.1878 -1.1395
  426TIP3    H222914   5.151   1.159   2.328 -0.0776 -1.0684 -1.5470
  427TIP3   OH222915   4.949   6.051   1.417  0.6365  0.3533 -0.0552
  427TIP3    H122916   4.949   6.012   1.330  0.7656  0.3275 -0.0433
  427TIP3    H222917   4.866   6.022   1.456 -0.8248  2.6666 -1.1998
  428TIP3   OH222918   5.512   4.555   7.614  0.4935  0.3736  0.6082
  428TIP3    H122919   5.566   4.571   7.691  1.2059  3.0969 -0.3341
  428TIP3    H222920   5.574   4.543   7.542 -0.1599 -1.8689  0.3473
  429TIP3   OH222921   4.530   2.574   7.349  0.3409 -0.1731  0.0003
  429TIP3    H122922   4.485   2.522   7.282  0.8885  0.0503 -0.5598
  429TIP3    H222923   4.592   2.627   7.299  0.2132  0.5709  0.6250
  430TIP3   OH222924   0.186   2.132   7.351 -0.0482  0.6790  0.3452
  430TIP3    H122925   0.143   2.174   7.277 -0.2247 -1.0322 -0.5590
  430TIP3    H222926   0.280   2.142   7.333 -0.0671 -1.0696 -0.9655
  431TIP3   OH222927   6.490   0.592   2.759  0.8473  0.0380  0.2969
  431TIP3    H122928   6.546   0.670   2.763  0.8314  0.1131 -0.6480
  431TIP3    H222929   6.551   0.519   2.759  0.8471 -0.0035  1.8060
  432TIP3   OH222930   2.882   6.137   7.941 -0.3142 -0.5408 -0.6638
  432TIP3    H122931   2.933   6.055   7.938  0.7403 -0.0408  1.3696
  432TIP3    H222932   2.885   6.163   8.033  0.2940  2.3506 -1.4069
  433TIP3   OH222933   3.557   3.130   8.484 -0.4267  0.3237 -0.8063
  433TIP3    H122934   3.462   3.144   8.479 -0.3894  1.4233  0.8417
  433TIP3    H222935   3.567   3.035   8.475 -1.6705  0.1899 -1.0224
  434TIP3   OH222936   2.246   0.461   1.123 -0.0276  0.4898  0.0258
  434TIP3    H122937   2.309   0.533   1.120 -0.7076  1.3211  2.8593
  434TIP3    H222938   2.163   0.501   1.097 -0.1607  0.3984  0.3100
  435TIP3   OH222939   2.858   0.633   7.925  0.2049 -0.3670 -0.0413
  435TIP3    H122940   2.953   0.619   7.919  0.4918  1.2439  0.0973
  435TIP3    H222941   2.831   0.580   8.000  0.7684 -1.7841 -0.8055
  436TIP3   OH222942   1.590   4.815   8.152  0.3273  0.5025 -0.1987
  436TIP3    H122943   1.664   4.859   8.192  0.5707  1.1391 -1.3111
  436TIP3    H222944   1.540   4.885   8.109  0.6117 -0.2421 -1.8231
  437TIP3   OH222945   0.384   6.773   1.294  0.2263 -0.5744 -0.1245
  437TIP3    H122946   0.383   6.868   1.293 -0.0939 -0.5433  1.1660
  437TIP3    H222947   0.469   6.750   1.330  0.7087 -0.8113 -1.3782
  438TIP3   OH222948   4.149   5.443   1.372  0.1349 -0.2744  0.2558
  438TIP3    H122949   4.225   5.394   1.402  0.2598  1.1764  2.6041
  438TIP3    H222950   4.115   5.485   1.451 -2.1054  0.4883 -1.0107
  439TIP3   OH222951   1.783   5.524   7.291 -0.7061  0.1505 -0.0935
  439TIP3    H122952   1.757   5.476   7.213  0.7586 -0.1006 -0.4565
  439TIP3    H222953   1.786   5.458   7.360  0.6839 -0.1880 -0.4524
  440TIP3   OH222954   0.232   1.086   1.463 -0.9102 -0.1668 -0.1591
  440TIP3    H122955   0.291   1.015   1.489  0.7838  1.9377  2.2482
  440TIP3    H222956   0.168   1.091   1.534 -1.0153  0.6638 -0.3052
  441TIP3   OH222957   4.941   0.171   0.940 -0.6851 -0.1864 -1.3128
  441TIP3    H122958   4.953   0.085   0.981 -2.4958  0.6783  1.2829
  441TIP3    H222959   5.027   0.212   0.945 -0.7614 -0.1483  1.8371
  442TIP3   OH222960   6.078   0.640   8.324  0.3031 -0.7134  0.3301
  442TIP3    H122961   6.013   0.580   8.361  2.9804 -3.6870  0.6804
  442TIP3    H222962   6.108   0.596   8.244  2.0794  0.4045  0.3304
  443TIP3   OH222963   0.041   2.160   8.130 -0.2432 -0.7617 -0.0991
  443TIP3    H122964  -0.010   2.164   8.050  0.0451 -0.4697 -0.2731
  443TIP3    H222965  -0.014   2.113   8.192 -1.2411  0.6096  0.1034
  444TIP3   OH222966   6.325   1.726   8.034  0.3948 -0.1547 -0.2882
  444TIP3    H122967   6.230   1.715   8.036  0.3612 -0.3555 -2.0120
  444TIP3    H222968   6.357   1.664   8.100 -0.6398 -0.4137 -0.0089
  445TIP3   OH222969   6.663   2.613   7.790 -0.6645 -0.1412 -0.3796
  445TIP3    H122970   6.573   2.598   7.819  0.1615 -1.7499  1.6072
  445TIP3    H222971   6.657   2.687   7.729 -3.2373  0.1164  0.0834
  446TIP3   OH222972   4.785   1.771   8.281 -0.2387  0.1667 -0.5041
  446TIP3    H122973   4.715   1.820   8.324 -0.9124 -1.5739  0.4510
  446TIP3    H222974   4.821   1.715   8.349  0.0326 -1.1900 -1.7163
  447TIP3   OH222975   1.741   4.280   1.958 -0.2640 -0.0871 -0.1320
  447TIP3    H122976   1.737   4.366   1.916 -0.2364 -0.3604 -0.7027
  447TIP3    H222977   1.650   4.257   1.974 -0.4520 -1.1576 -2.4885
  448TIP3   OH222978   2.298   4.142   1.380 -0.1954  0.2826 -0.3129
  448TIP3    H122979   2.377   4.175   1.422 -0.6266  1.7754 -0.6339
  448TIP3    H222980   2.253   4.093   1.449  0.5378  0.2003  0.1220
  449TIP3   OH222981   2.228   1.141   2.341  0.1538 -0.2335  0.5240
  449TIP3    H122982   2.135   1.126   2.355  0.3092 -1.4348  0.3677
  449TIP3    H222983   2.245   1.227   2.379 -1.4316  0.9489 -1.2718
  450TIP3   OH222984   3.693   3.395   0.473 -0.3306 -0.1576 -0.2431
  450TIP3    H122985   3.698   3.489   0.489 -0.6899 -0.1420 -0.2165
  450TIP3    H222986   3.781   3.372   0.441 -0.4192  0.2970 -0.8477
  451TIP3   OH222987   2.194   6.116   0.489 -0.2890 -0.1204  1.1140
  451TIP3    H122988   2.250   6.186   0.520  1.8864 -0.5714 -1.4546
  451TIP3    H222989   2.253   6.042   0.476 -1.3335 -0.5298 -2.0337
  452TIP3   OH222990   4.791   2.495   1.947 -0.3535  0.4940 -0.6821
  452TIP3    H122991   4.810   2.401   1.947  1.7687  0.8941 -1.7879
  452TIP3    H222992   4.737   2.509   1.869 -3.1455 -0.1634  0.9516
  453TIP3   OH222993   3.521   0.843   8.502  0.0115  0.2686 -0.3648
  453TIP3    H122994   3.453   0.906   8.524  0.1386  0.8502 -1.5447
  453TIP3    H222995   3.548   0.867   8.413 -0.1057 -1.5989 -0.9481
  454TIP3   OH222996   4.160   2.387   2.100  0.4960  0.2791 -0.1304
  454TIP3    H122997   4.228   2.341   2.052  0.6944  0.9421 -0.5056
  454TIP3    H222998   4.078   2.355   2.062  0.6429  0.5734 -0.7152
  455TIP3   OH222999   6.741   6.837   7.808 -0.2537 -0.1961 -0.4978
  455TIP3    H123000   6.764   6.745   7.792 -0.3215 -0.4862  0.9773
  455TIP3    H223001   6.774   6.855   7.896 -1.1290  0.9013 -0.3726
  456TIP3   OH223002   3.578   4.511   0.776  0.0864 -0.4438  0.3088
  456TIP3    H123003   3.626   4.583   0.816 -0.4908 -0.6576  1.4205
  456TIP3    H223004   3.486   4.531   0.793 -0.0572 -2.0637  1.7953
  457TIP3   OH223005   1.784   4.097   0.185 -0.2147  0.4864 -0.0280
  457TIP3    H123006   1.872   4.124   0.210  0.0110 -1.3167  1.3295
  457TIP3    H223007   1.761   4.028   0.248 -1.2714 -1.4630 -2.3832
  458TIP3   OH223008   6.319   1.980   7.873 -0.3521  0.2468  0.6324
  458TIP3    H123009   6.346   1.889   7.883  1.5687  0.6502 -0.5452
  458TIP3    H223010   6.383   2.031   7.922  0.1689  1.1198 -0.8687
  459TIP3   OH223011   4.889   6.168   7.300  0.0803 -0.5353 -0.2650
  459TIP3    H123012   4.942   6.217   7.362 -1.8567  1.1854  0.1554
  459TIP3    H223013   4.858   6.234   7.237 -3.1498 -0.9443  0.7001
  460TIP3   OH223014   2.991   0.131   2.550 -0.0890  0.1819 -0.0087
  460TIP3    H123015   3.079   0.163   2.567  0.5683 -1.2226 -0.5664
  460TIP3    H223016   2.934   0.205   2.568  1.1864  1.0503  0.5797
  461TIP3   OH223017   4.725   3.125   0.328  0.5899  0.4478 -0.0578
  461TIP3    H123018   4.804   3.114   0.381  0.9028  0.6842 -0.4698
  461TIP3    H223019   4.702   3.036   0.301  0.9970  0.4278 -0.3421
  462TIP3   OH223020   1.980   4.229   2.098  0.0386 -0.3665  0.2483
  462TIP3    H123021   1.892   4.223   2.059 -0.4435  0.2282  1.2134
  462TIP3    H223022   1.971   4.294   2.168  1.2168 -0.4178  0.4689
  463TIP3   OH223023   2.323   3.387   6.516 -0.2498 -0.0913 -0.3300
  463TIP3    H123024   2.324   3.328   6.440  0.1477 -1.7173  0.8857
  463TIP3    H223025   2.405   3.436   6.509 -0.5040  0.2165 -1.2775
  464TIP3   OH223026   0.534   2.741   0.331  0.5157 -0.3977  0.0215
  464TIP3    H123027   0.452   2.693   0.339 -0.2152  0.9976  1.3818
  464TIP3    H223028   0.568   2.716   0.245 -1.1746 -1.2240 -0.4508
  465TIP3   OH223029   6.471   5.812   0.901 -0.1424 -0.3636 -0.4645
  465TIP3    H123030   6.505   5.895   0.866  0.8916 -0.3693  0.4772
  465TIP3    H223031   6.376   5.823   0.899 -0.0153  1.4082  0.9205
  466TIP3   OH223032   2.172   6.665   6.842  0.2786  0.0783  0.2835
  466TIP3    H123033   2.199   6.690   6.754 -3.4215 -0.1428 -1.0739
  466TIP3    H223034   2.145   6.747   6.883 -2.2565 -0.2632 -0.5249
  467TIP3   OH223035   0.122   3.831   0.571  0.4021  0.1278  0.1643
  467TIP3    H123036   0.170   3.909   0.599 -1.0874  1.4100 -0.7150
  467TIP3    H223037   0.139   3.767   0.640  2.6861  0.7751  0.2840
  468TIP3   OH223038   0.679   0.622   0.171 -0.3666 -0.0258 -0.0787
  468TIP3    H123039   0.650   0.683   0.102  0.7329 -0.2220 -0.7334
  468TIP3    H223040   0.765   0.592   0.142 -0.0873 -0.4808  1.1626
  469TIP3   OH223041   6.814   2.811   1.710 -0.6840  0.8217 -0.4149
  469TIP3    H123042   6.835   2.730   1.756  1.7164  0.5929 -1.7442
  469TIP3    H223043   6.734   2.791   1.661 -1.0967 -0.1493  0.6339
  470TIP3   OH223044   3.081   1.882   7.909 -0.1394 -0.7774  0.3000
  470TIP3    H123045   3.057   1.796   7.872 -0.1616 -0.8537  0.4900
  470TIP3    H223046   3.176   1.884   7.906 -0.1467 -0.7260  0.1073
  471TIP3   OH223047   4.996   2.351   2.629 -0.1740  0.5587  0.3464
  471TIP3    H123048   5.037   2.329   2.713 -1.1684 -0.6951  0.5431
  471TIP3    H223049   5.068   2.387   2.577  0.8814 -0.2843  1.1363
  472TIP3   OH223050   5.681   1.130   0.763 -0.0635  0.2417 -0.1786
  472TIP3    H123051   5.596   1.137   0.806  0.2608 -0.2478  0.5561
  472TIP3    H223052   5.665   1.158   0.673 -0.7707  1.2336  0.2339
  473TIP3   OH223053   2.474   2.619   0.788  0.1869 -0.7041  0.0426
  473TIP3    H123054   2.521   2.668   0.721  0.1436 -1.3591 -0.4787
  473TIP3    H223055   2.401   2.675   0.812  0.9572  0.1280  0.5284
  474TIP3   OH223056   5.321   6.821   0.490 -0.1356  0.2919  0.2433
  474TIP3    H123057   5.233   6.784   0.496 -0.1918  0.5920  1.7952
  474TIP3    H223058   5.308   6.909   0.455 -0.0424 -0.8731 -3.0560
  475TIP3   OH223059   1.443   1.422   8.594  0.0181  0.2299 -0.1182
  475TIP3    H123060   1.472   1.473   8.518  0.3065  1.2382  0.6561
  475TIP3    H223061   1.376   1.362   8.558 -0.7035  1.4901 -0.9473
  476TIP3   OH223062   1.647   0.923   0.493 -0.5970  0.9423  0.2940
  476TIP3    H123063   1.716   0.867   0.456 -0.3938  1.0723  0.4722
  476TIP3    H223064   1.570   0.867   0.495 -0.5539  0.8677 -0.1254
  477TIP3   OH223065   2.610   1.006   1.679  0.1253 -0.3830 -0.6153
  477TIP3    H123066   2.701   0.977   1.681  0.2801  0.0331  2.5383
  477TIP3    H223067   2.559   0.929   1.706 -0.2012  0.0538  0.0483
  478TIP3   OH223068   2.780   2.615   1.297 -0.4820  0.1782 -0.4426
  478TIP3    H123069   2.712   2.575   1.351 -0.3886 -0.3032 -0.6796
  478TIP3    H223070   2.793   2.701   1.336 -0.2655 -0.2463  0.4515
  479TIP3   OH223071   4.742   2.478   1.676 -0.2369  0.3164 -0.6766
  479TIP3    H123072   4.813   2.455   1.616 -1.0923 -0.5845 -1.3885
  479TIP3    H223073   4.675   2.412   1.659 -0.3724 -0.1857  1.5447
  480TIP3   OH223074   6.877   0.617   8.224 -0.1779 -0.5731  0.3744
  480TIP3    H123075   6.952   0.599   8.167 -0.2003 -0.7410  0.3968
  480TIP3    H223076   6.812   0.551   8.200 -0.2245 -0.5825  0.5250
  481TIP3   OH223077   1.147   6.789   0.603  0.2638 -0.2235  0.5531
  481TIP3    H123078   1.165   6.838   0.522  1.1365 -1.1861  0.1561
  481TIP3    H223079   1.227   6.798   0.655  0.3121 -0.9798  0.6070
  482TIP3   OH223080   3.005   5.900   8.565 -0.4426  0.0575  0.1640
  482TIP3    H123081   3.063   5.845   8.618 -1.9081 -2.1443 -0.3435
  482TIP3    H223082   3.034   5.989   8.581  0.9695 -0.7340  2.4300
  483TIP3   OH223083   6.401   3.024   1.590  0.6340 -0.5724 -0.2354
  483TIP3    H123084   6.396   3.069   1.674  1.4151 -1.1651  0.1423
  483TIP3    H223085   6.492   3.037   1.562  0.4968 -0.7538 -0.7820
  484TIP3   OH223086   3.188   4.698   0.298  0.5148 -0.0185  0.0454
  484TIP3    H123087   3.274   4.714   0.336  1.7462 -3.7584 -0.6792
  484TIP3    H223088   3.201   4.708   0.203  0.5328 -1.6656 -0.1606
  485TIP3   OH223089   6.543   4.828   7.267  0.2688 -0.1989  0.4477
  485TIP3    H123090   6.551   4.886   7.191 -2.7613 -0.3392 -0.0702
  485TIP3    H223091   6.536   4.740   7.230  4.1395 -1.0100  1.2026
  486TIP3   OH223092   3.375   5.597   7.721  0.5674  0.0813 -0.6460
  486TIP3    H123093   3.432   5.588   7.644  1.2580  0.7160 -0.2223
  486TIP3    H223094   3.298   5.644   7.689  0.8181  0.2789 -0.9630
  487TIP3   OH223095   5.082   3.858   0.328 -0.7642 -0.4717 -0.0662
  487TIP3    H123096   5.067   3.944   0.368  0.0988 -0.9096  1.2604
  487TIP3    H223097   4.999   3.836   0.286 -0.6434  1.5378 -1.5204
  488TIP3   OH223098   0.275   3.536   7.021 -0.3899 -0.3496  0.3675
  488TIP3    H123099   0.335   3.467   6.992 -1.0155 -0.5055 -0.5995
  488TIP3    H223100   0.323   3.582   7.091  0.4879 -1.0348  0.2308
  489TIP3   OH223101   3.903   0.058   7.644  0.1802 -0.7268  0.2154
  489TIP3    H123102   3.963   0.125   7.677 -0.2986 -0.5213  0.6863
  489TIP3    H223103   3.817   0.101   7.645 -0.2543 -1.5813  1.2366
  490TIP3   OH223104   1.414   2.301   0.019  0.1575  0.0789  0.1013
  490TIP3    H123105   1.476   2.361   0.061 -2.2247  2.1661  0.9071
  490TIP3    H223106   1.429   2.312  -0.074  1.3912  0.0347  0.2745
  491TIP3   OH223107   0.230   4.662   1.438 -0.1627 -0.5039 -0.0256
  491TIP3    H123108   0.195   4.573   1.443  0.9663 -0.9154  1.4820
  491TIP3    H223109   0.224   4.685   1.346  0.2743 -2.4842 -0.6104
  492TIP3   OH223110   3.615   2.428   1.700  0.1155 -0.0615 -0.1461
  492TIP3    H123111   3.584   2.458   1.615 -1.3095  0.5814  0.5579
  492TIP3    H223112   3.679   2.359   1.680 -0.3934 -0.1181 -1.7117
  493TIP3   OH223113   1.654   3.182   1.285 -0.2947 -0.1593  0.0604
  493TIP3    H123114   1.629   3.270   1.313  2.0967  0.2631  1.1329
  493TIP3    H223115   1.740   3.194   1.244 -0.4754 -1.8480 -0.8989
  494TIP3   OH223116   4.460   3.062   2.693 -0.6277 -0.4969  0.2195
  494TIP3    H123117   4.439   3.015   2.613 -0.4027 -2.6513  1.3466
  494TIP3    H223118   4.384   3.050   2.750  0.5212 -1.9784  1.5560
  495TIP3   OH223119   3.428   1.647   2.035  0.6719 -0.0339  0.0555
  495TIP3    H123120   3.410   1.671   2.126  1.0693 -1.0107  0.3993
  495TIP3    H223121   3.518   1.615   2.036  0.0042 -2.0412 -0.2755
  496TIP3   OH223122   0.509   2.374   0.455 -0.0888 -0.0683 -0.2773
  496TIP3    H123123   0.597   2.405   0.477  0.9806 -1.9240 -1.6595
  496TIP3    H223124   0.473   2.442   0.398  0.7535  0.3566 -0.3151
  497TIP3   OH223125   1.673   4.093   1.485  0.0119  0.3432  0.2115
  497TIP3    H123126   1.620   4.080   1.564  0.5371  1.1303  0.7085
  497TIP3    H223127   1.705   4.006   1.463 -1.3617 -0.1210 -0.0103
  498TIP3   OH223128   2.299   4.950   2.284  0.8855 -0.0085 -0.0847
  498TIP3    H123129   2.269   4.988   2.202  1.1856 -0.5594 -0.4597
  498TIP3    H223130   2.314   5.025   2.341 -1.2791  0.2824  0.1669
  499TIP3   OH223131   2.721   4.270   0.398  0.0628  0.2480 -0.0660
  499TIP3    H123132   2.718   4.357   0.358  0.2228 -0.6869 -2.2326
  499TIP3    H223133   2.647   4.223   0.360  0.9507 -1.0743 -0.2347
  500TIP3   OH223134   4.971   2.797   7.593 -0.3565 -0.2216  0.0939
  500TIP3    H123135   5.028   2.781   7.669  0.3753 -0.6859 -0.5341
  500TIP3    H223136   4.892   2.834   7.630  0.8599  1.7311  0.8787
  501TIP3   OH223137   3.029   1.475   2.519 -0.1411 -0.5642  0.0057
  501TIP3    H123138   2.957   1.433   2.471 -0.6603 -0.2653  0.4978
  501TIP3    H223139   3.006   1.463   2.611  0.7230 -0.9273  0.1818
  502TIP3   OH223140   2.953   5.538   2.948  0.8232 -0.0402  0.1718
  502TIP3    H123141   2.919   5.476   2.884 -1.4906  0.7341  0.5318
  502TIP3    H223142   3.031   5.575   2.907 -1.4956  1.7035 -3.1018
  503TIP3   OH223143   0.225   6.859   1.802 -0.3841  0.3133 -0.5549
  503TIP3    H123144   0.301   6.865   1.744 -0.6631 -0.6277 -1.0502
  503TIP3    H223145   0.256   6.889   1.887  0.3932  0.4572 -0.8841
  504TIP3   OH223146   0.651   6.215   7.709 -0.2608 -0.0550 -0.4514
  504TIP3    H123147   0.742   6.239   7.725 -0.1542  0.1296 -1.2921
  504TIP3    H223148   0.601   6.293   7.734 -0.1774 -0.0761 -0.2093
  505TIP3   OH223149   0.023   1.285   0.917  0.0550  0.0603 -0.6552
  505TIP3    H123150  -0.023   1.228   0.978  0.8635  1.0721  0.9782
  505TIP3    H223151  -0.003   1.374   0.942  1.4900  0.5644 -0.8541
  506TIP3   OH223152   1.238   4.159   0.463 -0.1686  0.0825 -0.0663
  506TIP3    H123153   1.193   4.189   0.384 -1.4947 -0.2575  0.5506
  506TIP3    H223154   1.266   4.240   0.507 -2.3887  0.4419  0.8070
  507TIP3   OH223155   4.142   4.470   7.868 -0.2696 -0.3854  0.6470
  507TIP3    H123156   4.131   4.442   7.959  2.5682 -0.4622  1.0507
  507TIP3    H223157   4.157   4.564   7.873 -0.1532 -0.3791  0.2383
  508TIP3   OH223158   4.020   2.220   1.916  0.1702 -0.0094 -0.6454
  508TIP3    H123159   3.933   2.209   1.953 -0.2983  3.2299 -0.4471
  508TIP3    H223160   4.059   2.133   1.917 -2.7523 -1.4074  0.0054
  509TIP3   OH223161   5.543   4.617   0.298  0.0773 -0.0226 -0.2458
  509TIP3    H123162   5.464   4.670   0.290  0.5888  0.7399 -0.2820
  509TIP3    H223163   5.587   4.650   0.376  0.0686 -0.8563  0.1322
  510TIP3   OH223164   5.070   5.750   2.540  0.4055 -0.1927  0.3581
  510TIP3    H123165   5.011   5.712   2.605  0.7869 -1.7450 -0.1696
  510TIP3    H223166   5.147   5.777   2.590 -0.2093  0.6924  0.8575
  511TIP3   OH223167   2.246   2.720   7.262 -0.0098  0.0551 -0.2969
  511TIP3    H123168   2.162   2.760   7.238  0.3784  1.1944  0.1460
  511TIP3    H223169   2.290   2.704   7.179 -0.8116 -0.9211 -0.5566
  512TIP3   OH223170   2.397   1.256   1.231 -1.0318  0.3828  0.3202
  512TIP3    H123171   2.349   1.203   1.167 -1.5935  0.3881  0.7317
  512TIP3    H223172   2.348   1.245   1.312 -1.9917  2.6840  0.1039
  513TIP3   OH223173   4.732   4.865   7.431 -0.0758  0.1377  0.2441
  513TIP3    H123174   4.693   4.892   7.348 -1.3112 -0.7710  0.4992
  513TIP3    H223175   4.747   4.771   7.421 -0.0316  0.0633  0.9652
  514TIP3   OH223176   2.738   3.621   7.276 -0.0867 -0.0560  0.4098
  514TIP3    H123177   2.797   3.642   7.204 -0.1163 -0.2352  0.3325
  514TIP3    H223178   2.795   3.580   7.341  0.0701  0.7364  0.7838
  515TIP3   OH223179   4.105   0.876   7.076  0.2151  0.4604  0.4230
  515TIP3    H123180   4.108   0.951   7.135 -1.1965  0.4498  0.5484
  515TIP3    H223181   4.030   0.893   7.019 -0.7259 -1.2644  1.0600
  516TIP3   OH223182   6.090   0.807   1.139  0.4601  0.1658  0.2048
  516TIP3    H123183   6.004   0.770   1.119  0.5363  0.2416 -0.2838
  516TIP3    H223184   6.128   0.827   1.053  0.8188  0.4623  0.4283
  517TIP3   OH223185   6.216   6.485   1.004  0.9677  0.6052  0.2862
  517TIP3    H123186   6.306   6.511   1.024  1.3048 -0.4607  0.2392
  517TIP3    H223187   6.217   6.465   0.911  0.9230 -0.3183  0.4771
  518TIP3   OH223188   6.549   2.340   2.669  0.2462 -0.0762 -0.4391
  518TIP3    H123189   6.512   2.345   2.757  0.8386  2.6174 -0.2608
  518TIP3    H223190   6.643   2.334   2.683  0.4068  1.2588 -0.8588
  519TIP3   OH223191   6.860   0.252   0.430  0.4412  0.3846  0.0537
  519TIP3    H123192   6.844   0.306   0.508 -1.9841  2.0845 -1.4841
  519TIP3    H223193   6.795   0.182   0.436  1.0539 -0.1851  0.1339
  520TIP3   OH223194   6.073   5.471   2.122 -0.2558 -0.0833 -0.3051
  520TIP3    H123195   6.004   5.537   2.124 -0.5882 -0.4355  1.4744
  520TIP3    H223196   6.058   5.418   2.201  0.6544 -1.6076 -1.1165
  521TIP3   OH223197   3.795   2.536   7.385 -0.3749  0.7901  0.3919
  521TIP3    H123198   3.711   2.581   7.382 -0.7345  0.0803 -1.2336
  521TIP3    H223199   3.855   2.595   7.339 -0.5717  0.2171 -0.6436
  522TIP3   OH223200   0.869   1.553   2.134  0.2308  0.1330  0.0340
  522TIP3    H123201   0.840   1.643   2.149  1.8424  0.4290  1.6910
  522TIP3    H223202   0.814   1.500   2.192 -0.0728  0.1357 -0.2434
  523TIP3   OH223203   3.104   4.031   0.528  0.3917 -0.2320  0.2735
  523TIP3    H123204   3.022   4.075   0.551 -0.7248 -1.4993 -1.0441
  523TIP3    H223205   3.126   4.066   0.441  0.9187 -0.3399  0.3605
  524TIP3   OH223206   5.736   2.418   0.994  0.7375 -0.3974 -0.5444
  524TIP3    H123207   5.755   2.341   1.047  0.4146 -0.3523 -0.3595
  524TIP3    H223208   5.677   2.386   0.926 -1.8799  0.2332  1.2702
  525TIP3   OH223209   2.329   1.962   1.143 -0.0894 -0.1448 -0.2300
  525TIP3    H123210   2.303   1.959   1.235 -1.3827 -0.7321 -0.5822
  525TIP3    H223211   2.374   1.880   1.127  0.8549  0.3095  0.0693
  526TIP3   OH223212   5.464   1.370   7.824  0.0499  0.6806 -0.1205
  526TIP3    H123213   5.421   1.437   7.772 -0.0435  0.4812 -0.3000
  526TIP3    H223214   5.552   1.362   7.786  0.5441  1.6854  0.7729
  527TIP3   OH223215   1.868   6.739   8.536 -0.4661 -0.1957  0.6102
  527TIP3    H123216   1.871   6.815   8.478  0.7409 -0.7260 -0.0751
  527TIP3    H223217   1.825   6.671   8.484  1.4034 -0.9353 -0.0491
  528TIP3   OH223218   1.744   1.548   7.155  0.0320  0.8915  0.0635
  528TIP3    H123219   1.731   1.613   7.086 -1.4627 -0.6747 -1.2190
  528TIP3    H223220   1.684   1.574   7.225 -1.2207  0.4646 -0.8088
  529TIP3   OH223221   1.245   2.121   2.027  0.0483 -0.4639  0.6032
  529TIP3    H123222   1.283   2.061   1.963 -0.7822  0.3380 -0.6658
  529TIP3    H223223   1.250   2.207   1.987  0.0015  0.1462  1.8504
  530TIP3   OH223224   0.849   5.887   1.835 -0.6224  0.2322  0.0064
  530TIP3    H123225   0.928   5.835   1.821 -0.0829  0.9083  0.4805
  530TIP3    H223226   0.836   5.885   1.929  1.5282  3.8932  0.5835
  531TIP3   OH223227   5.466   3.424   0.806 -0.1193 -0.0742  0.0067
  531TIP3    H123228   5.456   3.509   0.763 -1.4066 -0.2297 -0.0486
  531TIP3    H223229   5.513   3.370   0.742  3.2966  1.3479  1.1213
  532TIP3   OH223230   5.832   4.119   7.657 -0.0973  0.0262  0.1429
  532TIP3    H123231   5.827   4.025   7.636 -0.7745  0.0613  0.1365
  532TIP3    H223232   5.863   4.122   7.747  1.8439 -0.1521 -0.4782
  533TIP3   OH223233   1.777   4.974   7.973  0.0645 -0.2379 -0.5189
  533TIP3    H123234   1.754   5.054   8.019  1.3721  1.3905 -2.5135
  533TIP3    H223235   1.783   5.000   7.881  1.8580 -2.2867 -1.0732
  534TIP3   OH223236   3.396   2.565   7.023 -0.1924  0.7345 -0.0324
  534TIP3    H123237   3.455   2.566   7.099 -0.2794  1.9824  0.0505
  534TIP3    H223238   3.413   2.649   6.980 -0.8379  0.4515 -0.8514
  535TIP3   OH223239   5.014   1.579   8.481  0.4567 -0.6026 -0.5860
  535TIP3    H123240   5.088   1.639   8.484  0.1042 -0.1688 -0.5941
  535TIP3    H223241   4.986   1.570   8.572  0.0019 -0.1171 -0.6707
  536TIP3   OH223242   2.073   1.661   0.071 -0.3545  0.1051  0.7074
  536TIP3    H123243   2.043   1.570   0.072 -2.5048  0.7064 -1.4020
  536TIP3    H223244   2.073   1.686  -0.021  2.1284  1.7193  1.0263
  537TIP3   OH223245   3.350   1.644   8.072  0.4134 -0.1511 -0.0329
  537TIP3    H123246   3.386   1.660   8.159  3.0596 -2.0855 -0.6539
  537TIP3    H223247   3.395   1.706   8.015  2.5587 -2.1969 -0.7243
  538TIP3   OH223248   2.817   0.092   7.663  0.4241 -0.1617  0.5931
  538TIP3    H123249   2.788   0.151   7.733 -2.1217 -0.4044 -0.1693
  538TIP3    H223250   2.912   0.094   7.668  0.3405  1.0813  3.0122
  539TIP3   OH223251   5.272   1.528   7.349  0.2243 -0.2776  0.0211
  539TIP3    H123252   5.283   1.436   7.372  1.5053 -1.2897 -3.8521
  539TIP3    H223253   5.361   1.564   7.353 -0.3254  1.0296  1.9973
  540TIP3   OH223254   2.469   5.258   1.644 -0.4137 -0.1417 -0.3658
  540TIP3    H123255   2.518   5.184   1.679  0.9911  1.2517  0.7996
  540TIP3    H223256   2.405   5.279   1.711  1.4855  1.7840  0.9627
  541TIP3   OH223257   3.185   4.622   2.363 -0.3140 -0.1297 -0.1586
  541TIP3    H123258   3.194   4.637   2.458  1.8372 -0.6685 -0.2215
  541TIP3    H223259   3.092   4.605   2.351 -0.5352 -0.8561  2.0016
  542TIP3   OH223260   1.707   4.252   7.869  0.2610  0.5295  0.0709
  542TIP3    H123261   1.668   4.337   7.847  0.1681 -0.0752 -2.3685
  542TIP3    H223262   1.662   4.224   7.949 -0.6480  2.1455  0.1655
  543TIP3   OH223263   2.176   2.391   2.515 -0.2251 -0.0723 -0.4277
  543TIP3    H123264   2.096   2.431   2.548  0.8615  1.2118  0.7384
  543TIP3    H223265   2.202   2.329   2.582  1.0878  1.3401  0.4213
  544TIP3   OH223266   0.056   1.952   0.362 -0.3093  0.5743 -0.0993
  544TIP3    H123267   0.039   2.020   0.428  3.2038  2.0872 -0.5503
  544TIP3    H223268   0.135   1.908   0.392  0.1791 -0.1190 -2.2178
  545TIP3   OH223269   6.811   2.644   1.119 -0.4321 -0.2226  0.0765
  545TIP3    H123270   6.846   2.667   1.205  1.2513 -0.3271 -0.5576
  545TIP3    H223271   6.759   2.720   1.094  1.6864  1.2282 -0.1786
  546TIP3   OH223272   1.357   1.135   7.905  0.1502  0.3152 -0.6357
  546TIP3    H123273   1.272   1.117   7.865 -0.7035  0.8706  0.8383
  546TIP3    H223274   1.356   1.086   7.987  0.5032  1.6831  0.2283
  547TIP3   OH223275   4.475   3.075   1.365  0.0223 -0.2122 -0.8256
  547TIP3    H123276   4.455   3.148   1.424  0.7664 -1.2704  0.8119
  547TIP3    H223277   4.559   3.097   1.326 -0.3406  0.3667 -1.2894
  548TIP3   OH223278   3.671   3.746   0.807 -0.2375 -0.3755 -0.5230
  548TIP3    H123279   3.625   3.829   0.802  0.8267  0.4746  2.0300
  548TIP3    H223280   3.743   3.755   0.744  0.9765  1.4803  1.0038
  549TIP3   OH223281   1.423   1.734   0.083  0.6816  0.0848 -0.4588
  549TIP3    H123282   1.499   1.722   0.141 -0.2713  0.3951  0.9116
  549TIP3    H223283   1.348   1.737   0.142 -0.3280  0.6115 -1.7112
  550TIP3   OH223284   2.396   3.799   0.632 -0.0446 -0.4841  0.0488
  550TIP3    H123285   2.421   3.786   0.541 -0.6566  0.6053 -0.2941
  550TIP3    H223286   2.303   3.778   0.635  0.4928 -3.1961  1.0373
  551TIP3   OH223287   6.568   2.218   7.361  0.2186 -0.1999  0.3050
  551TIP3    H123288   6.517   2.249   7.436 -3.5018  1.2726 -2.5455
  551TIP3    H223289   6.599   2.297   7.318 -1.8799 -0.6495 -2.2611
  552TIP3   OH223290   4.607   5.096   8.604  0.8293  0.1585 -0.0245
  552TIP3    H123291   4.635   5.186   8.618  1.2100  0.2915 -1.4704
  552TIP3    H223292   4.550   5.100   8.527 -3.9624 -0.0016  3.1045
  553TIP3   OH223293   4.176   4.186   8.521 -0.2119  0.1099 -0.6734
  553TIP3    H123294   4.138   4.269   8.550  2.0212  0.6485  1.0391
  553TIP3    H223295   4.244   4.212   8.458  0.7053 -0.3654  0.1020
  554TIP3   OH223296   0.569   3.381   0.750 -0.3896  0.1763 -0.4724
  554TIP3    H123297   0.605   3.427   0.826 -0.9006  0.6181 -0.4920
  554TIP3    H223298   0.559   3.291   0.779 -0.3142  0.2841 -0.1095
  555TIP3   OH223299   4.171   0.340   1.880  0.1049  0.0421  0.3513
  555TIP3    H123300   4.153   0.310   1.790  2.9477 -0.0620 -0.2678
  555TIP3    H223301   4.129   0.274   1.935 -0.5800 -0.6144 -0.8924
  556TIP3   OH223302   3.881   5.059   7.860 -0.4781  0.1809  0.3863
  556TIP3    H123303   3.970   5.026   7.875 -0.5881 -0.9699 -1.2409
  556TIP3    H223304   3.845   5.000   7.794 -2.7568  0.1254  1.6067
  557TIP3   OH223305   1.215   0.184   1.084 -0.7456 -0.3599 -0.3141
  557TIP3    H123306   1.189   0.092   1.087 -1.3669 -0.1997 -0.5299
  557TIP3    H223307   1.202   0.210   0.992 -3.1757  0.6386  0.2155
  558TIP3   OH223308   2.657   1.531   1.046  0.3443 -0.4742 -0.0418
  558TIP3    H123309   2.618   1.539   0.959  1.7223  0.2683 -0.6115
  558TIP3    H223310   2.709   1.451   1.042 -0.5932 -1.1426  0.5350
  559TIP3   OH223311   1.895   5.856   0.190  0.6892 -0.0527 -0.2254
  559TIP3    H123312   1.809   5.815   0.200  0.5278 -0.2879 -2.1486
  559TIP3    H223313   1.945   5.826   0.265 -0.5607 -0.8409  0.3237
  560TIP3   OH223314   2.424   4.895   7.262  0.1181 -0.4190 -0.3478
  560TIP3    H123315   2.438   4.849   7.179 -0.9215 -0.7917 -0.3346
  560TIP3    H223316   2.350   4.953   7.245 -0.3976 -0.8256  0.4276
  561TIP3   OH223317   0.824   4.475   7.365  0.1487 -0.0489 -0.0855
  561TIP3    H123318   0.874   4.522   7.298 -0.7877 -1.1633 -1.6654
  561TIP3    H223319   0.856   4.385   7.359 -2.0965 -0.8571 -1.3322
  562TIP3   OH223320   1.890   0.813   0.159 -0.4470  0.4275  0.5211
  562TIP3    H123321   1.966   0.869   0.145 -1.2684  1.2712 -0.6286
  562TIP3    H223322   1.857   0.794   0.072 -0.8987 -0.8769  0.9491
  563TIP3   OH223323   2.756   3.002   1.130  0.1931 -0.3755 -0.7803
  563TIP3    H123324   2.780   2.940   1.061  0.3385 -2.1934  0.8195
  563TIP3    H223325   2.840   3.028   1.168  0.0426 -0.4937 -0.3664
  564TIP3   OH223326   4.071   6.471   1.346 -0.4616  0.1351 -0.2291
  564TIP3    H123327   4.055   6.485   1.253 -1.5918  1.0741  0.0905
  564TIP3    H223328   4.123   6.546   1.374 -2.1336  1.1148  0.3803
  565TIP3   OH223329   4.801   2.139   7.933  0.1285  0.2024  0.7328
  565TIP3    H123330   4.844   2.129   8.017  0.3375 -0.6713  0.5284
  565TIP3    H223331   4.859   2.095   7.871 -0.5252 -0.0469  0.2916
  566TIP3   OH223332   1.403   2.307   6.933 -0.2216 -0.2360 -0.4226
  566TIP3    H123333   1.416   2.344   6.845 -0.1795  0.7270 -0.0223
  566TIP3    H223334   1.481   2.333   6.982 -0.6737  0.0319  0.1621
  567TIP3   OH223335   3.370   4.373   2.226 -0.7270  0.7201 -0.0314
  567TIP3    H123336   3.316   4.451   2.237 -1.8335  0.0842 -0.6652
  567TIP3    H223337   3.345   4.316   2.299 -2.3902 -0.3603 -1.3711
  568TIP3   OH223338   3.141   2.315   1.920  0.4358 -0.1726  0.2421
  568TIP3    H123339   3.048   2.294   1.912  0.4421 -0.9881  1.8823
  568TIP3    H223340   3.146   2.379   1.990  1.1087 -0.1477  0.1787
  569TIP3   OH223341   1.308   2.693   1.372  0.3310 -0.3241 -0.7378
  569TIP3    H123342   1.385   2.732   1.329  0.1189  1.3175  0.2754
  569TIP3    H223343   1.342   2.615   1.415  1.8181  1.1197  0.8976
  570TIP3   OH223344   4.949   0.978   2.134 -0.2301 -0.0752 -0.3016
  570TIP3    H123345   4.936   0.897   2.085  1.8561 -0.1258 -0.8698
  570TIP3    H223346   5.043   0.993   2.131 -0.5133  2.1496  0.1725
  571TIP3   OH223347   2.074   5.366   7.922 -0.0505 -0.2940  0.1098
  571TIP3    H123348   2.138   5.308   7.962  0.1712  1.3138  2.2665
  571TIP3    H223349   2.124   5.420   7.861  0.2633 -0.4176  0.2589
  572TIP3   OH223350   6.694   5.052   0.493  0.8319 -0.1480  0.4034
  572TIP3    H123351   6.721   5.016   0.577  0.3828  0.2337  0.7170
  572TIP3    H223352   6.706   4.981   0.431  0.3458 -0.7118  0.9417
  573TIP3   OH223353   5.140   3.258   6.943  0.6023 -0.0655 -0.0099
  573TIP3    H123354   5.085   3.186   6.912 -0.8915  1.0774 -0.1273
  573TIP3    H223355   5.154   3.312   6.865  2.2982 -0.5555 -0.0861
  574TIP3   OH223356   6.883   2.391   0.072 -0.5770  0.2350 -0.1001
  574TIP3    H123357   6.973   2.406   0.102  0.0359 -2.3292 -0.4055
  574TIP3    H223358   6.854   2.476   0.039  1.1380  1.5107  1.4952
  575TIP3   OH223359   2.477   5.683   0.285  0.2131  0.0188 -0.1225
  575TIP3    H123360   2.492   5.636   0.203 -0.1613  0.5602 -0.5110
  575TIP3    H223361   2.455   5.772   0.257 -0.9871 -0.0628  0.5230
  576TIP3   OH223362   3.726   4.342   7.079  0.6298  0.3262  0.4424
  576TIP3    H123363   3.764   4.423   7.045 -0.2661  0.1894 -0.9735
  576TIP3    H223364   3.786   4.273   7.051 -0.7393  0.0587 -2.1839
  577TIP3   OH223365   0.267   3.661   2.211 -0.5245 -0.1453 -0.6259
  577TIP3    H123366   0.254   3.704   2.296 -1.2439 -2.3882  0.4540
  577TIP3    H223367   0.200   3.700   2.155  0.0736  1.5039 -0.2614
  578TIP3   OH223368   3.185   6.681   0.128 -0.6811  0.5048  0.0604
  578TIP3    H123369   3.108   6.629   0.106 -0.1616 -0.0061 -0.5740
  578TIP3    H223370   3.249   6.618   0.162 -0.8555  1.0517  1.4599
  579TIP3   OH223371   0.092   5.221   7.059 -0.4330 -0.4998  1.2045
  579TIP3    H123372   0.066   5.159   7.128 -1.0594 -0.5500  0.9344
  579TIP3    H223373   0.182   5.244   7.080  0.5715 -3.1313  0.1457
  580TIP3   OH223374   2.398   0.711   2.400  0.0666 -0.2656 -0.5089
  580TIP3    H123375   2.446   0.745   2.324  0.5055 -0.0520 -0.1425
  580TIP3    H223376   2.308   0.741   2.387 -0.0225 -0.8470 -1.3120
  581TIP3   OH223377   6.309   6.027   6.959  0.1479 -0.2818  0.3893
  581TIP3    H123378   6.261   5.959   6.912 -0.2015  1.0887 -1.3502
  581TIP3    H223379   6.241   6.076   7.006  0.3343 -0.7287  1.1522
  582TIP3   OH223380   1.341   2.429   1.901  0.5866 -0.3165  0.5177
  582TIP3    H123381   1.266   2.403   1.848 -0.1764 -0.0151  1.4231
  582TIP3    H223382   1.412   2.372   1.871  0.3738  0.3045 -1.2764
  583TIP3   OH223383   6.173   0.093   7.450  0.0897  0.0281  0.4484
  583TIP3    H123384   6.142   0.128   7.533  0.4984 -0.2266  0.7131
  583TIP3    H223385   6.268   0.104   7.453 -0.0213  2.0849 -0.9320
  584TIP3   OH223386   3.212   1.837   8.602 -0.5256  0.2935 -0.0439
  584TIP3    H123387   3.228   1.826   8.508  0.4924  0.3558  0.1161
  584TIP3    H223388   3.132   1.788   8.618  1.0391 -2.5483 -0.3316
  585TIP3   OH223389   3.149   3.515   0.828  0.7132 -0.3744 -0.0864
  585TIP3    H123390   3.129   3.509   0.735 -3.8479  0.5459  0.6133
  585TIP3    H223391   3.223   3.576   0.833  1.9988 -1.4875 -3.0701
  586TIP3   OH223392   6.052   0.253   1.966  0.1340 -0.3221 -0.2741
  586TIP3    H123393   5.965   0.220   1.943  0.5696 -1.4519 -0.3358
  586TIP3    H223394   6.045   0.276   2.058  0.0139 -1.2253 -0.0543
  587TIP3   OH223395   2.997   4.760   8.234 -0.2684  0.4309  0.3791
  587TIP3    H123396   2.979   4.850   8.206 -1.2025  0.1363  0.0108
  587TIP3    H223397   2.927   4.708   8.195  0.6906 -0.5796 -0.0415
  588TIP3   OH223398   4.303   4.074   1.026 -0.2862 -0.4422 -0.0097
  588TIP3    H123399   4.367   4.105   1.091 -0.7973 -0.8485  0.7069
  588TIP3    H223400   4.351   4.072   0.944 -0.1738  2.0899 -0.0779
  589TIP3   OH223401   6.400   2.501   2.239 -0.2481  0.5536  0.2709
  589TIP3    H123402   6.329   2.502   2.174 -0.6059 -0.1677  0.6316
  589TIP3    H223403   6.356   2.475   2.321  0.6730 -1.5415  0.1706
  590TIP3   OH223404   2.788   2.357   8.104  0.2529  0.3361  0.1227
  590TIP3    H123405   2.707   2.314   8.080  0.7990 -2.0329  2.1044
  590TIP3    H223406   2.855   2.289   8.098  2.1273  2.1520 -1.2613
  591TIP3   OH223407   2.546   6.017   7.481 -0.5743 -0.8773 -0.0644
  591TIP3    H123408   2.551   6.083   7.550  0.4832 -1.2647  0.2572
  591TIP3    H223409   2.535   6.067   7.400  0.4944 -0.2707  0.1398
  592TIP3   OH223410   2.195   6.547   1.356  0.3653  0.4640 -0.6825
  592TIP3    H123411   2.200   6.467   1.409  1.2221  1.5929  1.0277
  592TIP3    H223412   2.252   6.609   1.401  0.1827  1.8715 -2.3031
  593TIP3   OH223413   5.994   6.491   7.842 -0.7311  0.1905  0.1138
  593TIP3    H123414   6.065   6.449   7.795  1.8020  0.6952  3.1474
  593TIP3    H223415   5.992   6.581   7.809 -2.1125 -0.5769 -2.1016
  594TIP3   OH223416   6.006   6.310   1.062  0.0325  0.2145  0.4315
  594TIP3    H123417   6.058   6.389   1.048 -0.0394  0.0288 -0.9847
  594TIP3    H223418   6.064   6.252   1.112 -0.7342  1.9890  3.7045
  595TIP3   OH223419   3.019   6.023   2.762 -0.2570 -0.3138  0.1086
  595TIP3    H123420   3.006   6.108   2.720 -1.0813 -1.2129 -1.5743
  595TIP3    H223421   3.114   6.013   2.767 -0.1378  1.2302  1.5096
  596TIP3   OH223422   5.670   4.495   0.718 -0.7557 -0.2418  0.5204
  596TIP3    H123423   5.720   4.551   0.659 -0.2234 -0.3655  0.8475
  596TIP3    H223424   5.582   4.532   0.718 -0.6580  0.0019 -0.0329
  597TIP3   OH223425   2.205   4.699   8.565  0.3737  0.3649 -0.0991
  597TIP3    H123426   2.235   4.738   8.647  2.3785  1.2895 -1.1947
  597TIP3    H223427   2.184   4.775   8.510  0.9584 -0.1958 -1.1048
  598TIP3   OH223428   5.105   0.538   0.812 -0.0387 -0.2180  0.5047
  598TIP3    H123429   5.017   0.550   0.846  0.5537  2.3836  1.3545
  598TIP3    H223430   5.162   0.574   0.880  1.4819  0.6438 -1.1311
  599TIP3   OH223431   3.578   0.427   7.815 -0.0543 -0.0867  0.4853
  599TIP3    H123432   3.483   0.419   7.803  0.1587 -0.6655 -1.1635
  599TIP3    H223433   3.595   0.521   7.802 -0.4388  0.0902  1.2077
  600TIP3   OH223434   1.167   5.065   1.553  0.1107 -0.2964  0.6398
  600TIP3    H123435   1.162   5.045   1.646  0.7305  2.3110  1.3300
  600TIP3    H223436   1.159   5.161   1.549  3.5715  0.0872 -1.6524
  601TIP3   OH223437   6.637   3.020   8.047  0.0573  0.1472 -0.1698
  601TIP3    H123438   6.664   3.087   8.111  1.1231 -1.2498  0.9020
  601TIP3    H223439   6.553   2.988   8.081  1.3950 -1.7496  1.5383
  602TIP3   OH223440   6.621   3.570   8.157 -0.0901  0.0921 -0.1723
  602TIP3    H123441   6.695   3.573   8.218 -0.7862  1.1003  0.6809
  602TIP3    H223442   6.544   3.576   8.214 -0.8519 -1.2625 -1.0194
  603TIP3   OH223443   5.475   2.627   0.918  0.5661 -0.1597 -0.0634
  603TIP3    H123444   5.560   2.586   0.898 -0.0153 -1.6291  0.3338
  603TIP3    H223445   5.416   2.592   0.852  0.1620  0.5139 -0.0648
  604TIP3   OH223446   2.658   3.438   8.628 -0.6224 -0.5006 -0.6304
  604TIP3    H123447   2.612   3.473   8.552  0.5917  0.4821 -0.9473
  604TIP3    H223448   2.747   3.473   8.621 -0.1428 -1.3803  0.5911
  605TIP3   OH223449   5.607   3.445   2.226  0.2111 -0.4773  0.0646
  605TIP3    H123450   5.586   3.470   2.316  0.2742 -0.4307  0.0665
  605TIP3    H223451   5.677   3.380   2.235  0.8210  0.1606  0.0168
  606TIP3   OH223452   6.442   0.707   2.241  0.2350  0.3320  0.2624
  606TIP3    H123453   6.476   0.735   2.326  0.0346 -0.4575  0.6093
  606TIP3    H223454   6.478   0.619   2.228 -1.4799 -0.4684  0.5583
  607TIP3   OH223455   3.725   6.338   7.882  0.0306 -0.1264  0.1186
  607TIP3    H123456   3.693   6.274   7.945  0.5987 -1.5989 -1.0090
  607TIP3    H223457   3.758   6.410   7.935 -0.0471 -1.0450  1.4656
  608TIP3   OH223458   4.546   1.589   1.868  0.1358  0.1460  0.4448
  608TIP3    H123459   4.633   1.559   1.893  0.3669 -1.2874 -1.7529
  608TIP3    H223460   4.489   1.514   1.886 -0.0358 -0.1431 -1.1151
  609TIP3   OH223461   0.183   2.103   0.766  0.3574  0.3550  0.2395
  609TIP3    H123462   0.100   2.056   0.760  1.5034 -1.9211  1.0502
  609TIP3    H223463   0.160   2.195   0.752 -2.3823 -0.1152  1.1575
  610TIP3   OH223464   2.473   3.759   0.882  0.2325  0.6671  0.1509
  610TIP3    H123465   2.451   3.778   0.790 -1.9043 -1.1444  0.2071
  610TIP3    H223466   2.438   3.834   0.930  1.0313  1.4492 -0.4319
  611TIP3   OH223467   5.258   1.704   2.976  0.2869 -0.3028 -0.2417
  611TIP3    H123468   5.337   1.650   2.966  1.2872  0.8807  0.8931
  611TIP3    H223469   5.205   1.656   3.039  1.3066  0.1558  0.9977
  612TIP3   OH223470   1.072   4.328   8.358  0.0791 -0.5307  0.1889
  612TIP3    H123471   1.049   4.415   8.326 -0.4633 -0.5957  0.3968
  612TIP3    H223472   1.031   4.267   8.297 -0.2955 -0.6462  0.5498
  613TIP3   OH223473   3.123   5.163   0.963 -0.0653  0.2038 -0.3838
  613TIP3    H123474   3.146   5.079   1.003 -0.7539 -0.0073 -0.4249
  613TIP3    H223475   3.083   5.214   1.034 -0.6681  0.0803 -0.6295
  614TIP3   OH223476   3.468   0.135   8.379 -0.2244  0.7900  0.2316
  614TIP3    H123477   3.557   0.145   8.414 -0.4063  1.2161  0.5819
  614TIP3    H223478   3.471   0.180   8.295  0.2384 -0.3151 -0.3691
  615TIP3   OH223479   6.710   5.054   2.453 -0.8876  0.2596 -0.2257
  615TIP3    H123480   6.638   4.991   2.443  0.2045 -0.7510 -2.2391
  615TIP3    H223481   6.674   5.137   2.422 -1.2738 -0.1701 -0.9371
  616TIP3   OH223482   2.840   1.081   8.519 -0.3292 -0.1650  0.1135
  616TIP3    H123483   2.791   1.003   8.545 -1.1613  0.7692  1.4451
  616TIP3    H223484   2.906   1.092   8.588 -1.3686  1.2897  0.9376
  617TIP3   OH223485   1.222   3.667   1.690 -0.4932 -0.7330  0.5842
  617TIP3    H123486   1.177   3.751   1.701  0.5010 -0.0993 -0.0880
  617TIP3    H223487   1.153   3.602   1.702 -1.8001  0.2328 -1.2025
  618TIP3   OH223488   6.704   0.706   0.871  0.6560 -0.6208  0.4896
  618TIP3    H123489   6.787   0.746   0.846  0.8292 -0.2783  1.5742
  618TIP3    H223490   6.663   0.681   0.788  2.2836 -1.7018 -0.0209
  619TIP3   OH223491   1.672   0.136   8.098  0.0205  0.3404  0.4703
  619TIP3    H123492   1.684   0.092   8.014 -0.2938  0.4637  0.3604
  619TIP3    H223493   1.594   0.096   8.136  0.6225 -0.2832  1.0717
  620TIP3   OH223494   5.740   5.968   0.865  0.5732  0.3761 -0.4802
  620TIP3    H123495   5.763   5.952   0.957 -0.7208  0.7467 -0.0621
  620TIP3    H223496   5.780   6.053   0.845 -2.2263  2.2150  0.9853
  621TIP3   OH223497   0.710   3.747   7.266 -0.2683  0.5629 -0.7460
  621TIP3    H123498   0.793   3.700   7.266  0.8603  2.4646  0.2413
  621TIP3    H223499   0.644   3.678   7.253  1.2430 -1.3443  1.0358
  622TIP3   OH223500   1.993   6.294   1.266  0.2502  0.3057 -0.0179
  622TIP3    H123501   1.923   6.322   1.325  1.3741  1.0975  0.9922
  622TIP3    H223502   1.994   6.360   1.197 -0.2648  0.0659 -0.2540
  623TIP3   OH223503   6.276   1.149   7.386 -0.1111 -0.2879 -0.2715
  623TIP3    H123504   6.370   1.155   7.369  0.3947  0.0084  2.2625
  623TIP3    H223505   6.266   1.070   7.440 -1.4143 -0.6482 -0.9940
  624TIP3   OH223506   5.202   3.818   8.645  0.0175  0.1880 -0.0173
  624TIP3    H123507   5.212   3.893   8.704  0.7969 -0.8677  1.2488
  624TIP3    H223508   5.247   3.746   8.690  1.8232 -0.3758 -2.4932
  625TIP3   OH223509   6.800   1.525   1.054  0.3296  1.2957 -0.1171
  625TIP3    H123510   6.725   1.571   1.018  0.5190  1.4411 -0.3250
  625TIP3    H223511   6.764   1.474   1.127 -0.1102  0.7525 -0.7004
  626TIP3   OH223512   1.420   1.621   2.679  0.4155 -0.2198 -0.1012
  626TIP3    H123513   1.443   1.571   2.600  0.5511 -0.5033  0.1179
  626TIP3    H223514   1.328   1.599   2.695  0.6837 -1.0077  0.4350
  627TIP3   OH223515   5.154   0.528   1.887 -0.7188 -0.1036  0.2070
  627TIP3    H123516   5.117   0.445   1.856 -2.9864  0.9286 -0.0839
  627TIP3    H223517   5.120   0.593   1.826  2.1713  0.9249 -0.4192
  628TIP3   OH223518   3.532   3.205   7.436  0.7250  0.1048 -0.1723
  628TIP3    H123519   3.556   3.117   7.406 -0.3574 -0.1217 -0.4141
  628TIP3    H223520   3.615   3.252   7.441  1.4037 -1.1498  0.6932
  629TIP3   OH223521   3.794   4.539   1.119 -0.1465  0.0733 -0.1362
  629TIP3    H123522   3.741   4.459   1.110 -0.5125  0.2106  0.6808
  629TIP3    H223523   3.884   4.509   1.108 -0.2521 -0.5245  0.5186
  630TIP3   OH223524   3.325   2.387   1.715 -0.3315 -0.3287 -0.0142
  630TIP3    H123525   3.259   2.378   1.784 -0.8556 -0.5652 -0.5279
  630TIP3    H223526   3.399   2.429   1.757 -0.9309  0.2298  0.5095
  631TIP3   OH223527   2.213   1.873   1.399 -0.5157  0.3010 -0.4618
  631TIP3    H123528   2.174   1.926   1.468 -1.5024 -1.6453  0.5703
  631TIP3    H223529   2.148   1.806   1.381  1.5355 -1.9719 -0.0067
  632TIP3   OH223530   4.350   3.338   8.412 -0.4502 -0.4520  0.7616
  632TIP3    H123531   4.420   3.304   8.469 -1.2107 -1.7919  0.9448
  632TIP3    H223532   4.395   3.364   8.332  0.5194  0.6052  1.6113
  633TIP3   OH223533   3.825   5.476   1.607  0.0787  0.1174 -0.3794
  633TIP3    H123534   3.743   5.460   1.653  0.2122 -1.5047 -0.6609
  633TIP3    H223535   3.836   5.401   1.549  2.2372 -0.2436  0.3830
  634TIP3   OH223536   4.660   5.220   8.027 -0.0091 -0.3008  0.3405
  634TIP3    H123537   4.740   5.272   8.024  0.0081 -0.2652  1.2015
  634TIP3    H223538   4.614   5.249   8.106 -1.4125  0.4451 -0.7054
  635TIP3   OH223539   1.285   6.758   1.766 -0.2184  0.1627 -0.8092
  635TIP3    H123540   1.372   6.765   1.804 -0.1542 -0.6328 -0.8063
  635TIP3    H223541   1.237   6.834   1.801  0.4200  0.5187 -0.6981
  636TIP3   OH223542   1.247   5.245   1.835 -0.9433 -0.4674 -0.0958
  636TIP3    H123543   1.294   5.301   1.896  0.4063 -1.5199 -0.1312
  636TIP3    H223544   1.240   5.298   1.755  0.7098 -0.4877 -0.2790
  637TIP3   OH223545   3.047   4.519   7.606 -0.1482 -0.3213 -0.1989
  637TIP3    H123546   2.952   4.530   7.603 -0.1668  2.8971  3.5896
  637TIP3    H223547   3.080   4.587   7.546 -0.3900  1.6462  1.7510
  638TIP3   OH223548   4.114   4.790   1.754  0.3056  0.1186 -0.0854
  638TIP3    H123549   4.177   4.772   1.685  0.2376  0.5433 -0.2605
  638TIP3    H223550   4.081   4.878   1.735  0.0757  0.1254  0.3231
  639TIP3   OH223551   0.243   3.413   0.010 -0.0927  0.5780  0.3034
  639TIP3    H123552   0.301   3.444   0.080 -0.3698 -1.1996  1.3704
  639TIP3    H223553   0.276   3.326  -0.011  0.0992  1.1192 -1.9709
  640TIP3   OH223554   3.167   2.289   2.742 -0.1994  0.2455 -0.0957
  640TIP3    H123555   3.127   2.211   2.704  0.9517 -0.8996  0.9683
  640TIP3    H223556   3.170   2.271   2.836  2.1270  0.6036 -0.0595
  641TIP3   OH223557   5.069   6.413   7.878  0.1424 -0.0686 -0.3802
  641TIP3    H123558   5.113   6.334   7.908  0.5822  1.5633  4.0595
  641TIP3    H223559   4.983   6.383   7.848  1.0448 -2.3743 -0.8109
  642TIP3   OH223560   0.825   6.275   8.165 -0.7680  0.1202  0.4202
  642TIP3    H123561   0.822   6.323   8.248 -0.6811 -1.1036  1.1620
  642TIP3    H223562   0.815   6.183   8.191  1.2438 -0.4792 -0.7357
  643TIP3   OH223563   2.527   2.269   7.696 -0.1229  0.4771 -0.5765
  643TIP3    H123564   2.551   2.200   7.633  1.2526 -0.0019  0.4199
  643TIP3    H223565   2.432   2.262   7.705  0.0248 -1.5298 -0.2452
  644TIP3   OH223566   3.004   5.515   8.594 -0.2425  0.3821  0.0846
  644TIP3    H123567   3.005   5.526   8.499  0.6698  0.6012  0.1091
  644TIP3    H223568   3.097   5.505   8.618 -0.3156  1.7441  1.1035
  645TIP3   OH223569   5.987   1.222   8.203  0.3181 -0.4598  0.0648
  645TIP3    H123570   5.939   1.267   8.133  1.6605  1.7507  0.4582
  645TIP3    H223571   5.997   1.133   8.171 -0.3195  0.1193 -1.9437
  646TIP3   OH223572   2.380   2.016   7.733 -0.9120 -0.3115  0.9839
  646TIP3    H123573   2.296   2.050   7.700  0.0722  0.8451 -0.4318
  646TIP3    H223574   2.367   1.921   7.735 -1.7121 -0.2953 -0.8829
  647TIP3   OH223575   3.697   2.972   1.878 -0.3356  0.1189 -0.0151
  647TIP3    H123576   3.790   2.960   1.860 -0.6991 -0.4148 -1.7072
  647TIP3    H223577   3.658   2.886   1.864 -0.7957 -0.3067  3.1212
  648TIP3   OH223578   4.141   2.940   0.755 -0.4352  0.2110 -0.2048
  648TIP3    H123579   4.170   2.924   0.844  1.6891 -2.1354 -1.1841
  648TIP3    H223580   4.080   3.014   0.762 -1.0734 -0.4787  3.2512
  649TIP3   OH223581   5.974   3.625   1.624  0.8997  0.1751  0.0612
  649TIP3    H123582   6.061   3.589   1.605  1.0646  0.1063  0.9003
  649TIP3    H223583   5.916   3.582   1.561  1.5470  0.6178 -0.8638
  650TIP3   OH223584   6.389   0.007   7.246 -0.2540  0.5988  0.0521
  650TIP3    H123585   6.425  -0.063   7.300  1.9435  1.2842 -0.4200
  650TIP3    H223586   6.322  -0.036   7.192 -1.1609 -0.4582  1.9405
  651TIP3   OH223587   4.560   5.517   2.651  0.4118 -0.0743 -0.3949
  651TIP3    H123588   4.602   5.566   2.580  2.4456 -2.0703 -0.6664
  651TIP3    H223589   4.612   5.539   2.729 -1.2435  1.3777  0.3812
  652TIP3   OH223590   6.823   0.134   1.389 -0.3096 -0.1835  0.2506
  652TIP3    H123591   6.772   0.100   1.462 -0.3347  0.6774  0.6408
  652TIP3    H223592   6.787   0.090   1.312 -1.6919  0.4521  0.5010
  653TIP3   OH223593   1.907   6.194   7.005 -0.6822 -0.3094 -0.0361
  653TIP3    H123594   1.949   6.113   6.976 -1.5042  0.1038 -2.6158
  653TIP3    H223595   1.934   6.260   6.941 -0.6979  1.2974  1.5312
  654TIP3   OH223596   1.185   5.934   1.894  0.3206  0.0410  0.0079
  654TIP3    H123597   1.250   5.958   1.959 -0.2150  0.3108  0.4514
  654TIP3    H223598   1.226   5.863   1.843  1.1488  0.5619 -0.0554
  655TIP3   OH223599   0.888   3.528   0.700  0.1888  0.1350 -0.0659
  655TIP3    H123600   0.869   3.610   0.656  0.2226  0.4813  0.5543
  655TIP3    H223601   0.806   3.479   0.696 -0.0175  0.4622  0.1163
  656TIP3   OH223602   1.751   4.301   2.727 -0.1884 -0.3064  0.9022
  656TIP3    H123603   1.708   4.228   2.682  1.8729 -0.8421 -0.3537
  656TIP3    H223604   1.806   4.258   2.793  0.7156  0.1292  0.4419
  657TIP3   OH223605   1.142   2.030   7.997  0.3845 -0.3223 -0.7964
  657TIP3    H123606   1.095   1.950   8.018 -0.4762 -0.4440 -2.9500
  657TIP3    H223607   1.190   2.052   8.077 -0.9718 -1.8389  0.4835
  658TIP3   OH223608   2.792   0.004   1.954 -0.5392 -0.4061 -0.0145
  658TIP3    H123609   2.749   0.044   2.029 -0.4082 -1.3009  0.5541
  658TIP3    H223610   2.827   0.077   1.903 -0.4283  0.1959  0.9185
  659TIP3   OH223611   5.682   3.734   1.434  0.3663 -0.2090 -0.1074
  659TIP3    H123612   5.613   3.761   1.494  0.3002 -0.5167 -0.0426
  659TIP3    H223613   5.652   3.650   1.399  0.1651  0.2190 -0.9680
  660TIP3   OH223614   2.738   3.164   0.123 -0.4787  0.5534  0.0139
  660TIP3    H123615   2.660   3.218   0.113 -0.5258  0.7513  1.2900
  660TIP3    H223616   2.729   3.124   0.210  0.7894  0.5035  0.1400
  661TIP3   OH223617   5.160   1.066   1.432  0.3863  0.1837  0.1345
  661TIP3    H123618   5.223   1.123   1.386 -0.4480  0.5707 -0.5544
  661TIP3    H223619   5.215   1.004   1.480  1.2998  0.1478 -0.9080
  662TIP3   OH223620   2.771   0.376   8.067 -0.3274 -0.6103 -0.0607
  662TIP3    H123621   2.836   0.322   8.113  0.6871 -0.2589 -1.0496
  662TIP3    H223622   2.689   0.356   8.112 -0.1114 -3.3851 -0.6918
  663TIP3   OH223623   5.695   4.140   8.317 -0.3029 -0.2852  0.9197
  663TIP3    H123624   5.646   4.069   8.358 -1.0304  0.5443  1.5195
  663TIP3    H223625   5.659   4.220   8.355 -0.3180  0.4816 -0.5983
  664TIP3   OH223626   3.622   6.101   6.614 -0.4016  0.0460 -0.1495
  664TIP3    H123627   3.574   6.169   6.566 -0.6126  1.8562  2.4364
  664TIP3    H223628   3.642   6.141   6.699 -0.0784 -2.9665  1.3137
  665TIP3   OH223629   3.411   0.776   0.171  0.0452 -0.5195  0.1436
  665TIP3    H123630   3.489   0.750   0.122 -1.0167 -1.9886 -0.8403
  665TIP3    H223631   3.437   0.767   0.263  1.5038  0.5432 -0.1310
  666TIP3   OH223632   2.290   0.407   0.035 -0.4461  0.0847  0.3143
  666TIP3    H123633   2.215   0.397   0.093 -0.0328  0.3839  0.9078
  666TIP3    H223634   2.359   0.353   0.074  0.3743  1.6202  1.0619
  667TIP3   OH223635   2.873   6.263   1.239 -0.1670  0.1515 -0.2890
  667TIP3    H123636   2.943   6.201   1.262  0.6010  1.5912  1.5264
  667TIP3    H223637   2.804   6.245   1.302 -0.6091  0.0855 -0.7889
  668TIP3   OH223638   6.320   6.153   0.921 -0.5499 -0.2602  0.4054
  668TIP3    H123639   6.262   6.218   0.879  1.1416  1.3746  0.4513
  668TIP3    H223640   6.401   6.158   0.870  0.4936 -0.4540  2.0026
  669TIP3   OH223641   5.712   1.952   2.278  0.0689 -0.1459 -0.0994
  669TIP3    H123642   5.800   1.950   2.241  0.0503  1.2556 -0.2489
  669TIP3    H223643   5.723   1.917   2.366  0.3783 -2.0580 -0.8517
  670TIP3   OH223644   2.518   5.235   0.192 -0.2265  0.2027 -0.1495
  670TIP3    H123645   2.435   5.201   0.225 -0.6950 -0.5467 -1.9742
  670TIP3    H223646   2.570   5.157   0.171 -0.0427  0.6324 -1.3487
  671TIP3   OH223647   6.505   0.368   7.511  0.2808 -0.2819  0.2041
  671TIP3    H123648   6.466   0.300   7.455  1.1501 -0.1842 -0.5302
  671TIP3    H223649   6.562   0.417   7.453 -0.0032  0.8165  0.8384
  672TIP3   OH223650   1.132   2.877   8.645  0.0106  0.1488  0.2412
  672TIP3    H123651   1.132   2.945   8.577  3.0839  1.7451  1.6450
  672TIP3    H223652   1.052   2.827   8.628 -1.3630  2.8327 -2.1423
  673TIP3   OH223653   2.153   3.328   7.588  0.2353  0.4161  0.0435
  673TIP3    H123654   2.070   3.281   7.584 -0.1409  1.0811 -0.0872
  673TIP3    H223655   2.148   3.393   7.518  1.7385 -0.8991 -1.3684
  674TIP3   OH223656   4.542   0.786   2.807 -0.1298  0.5213 -0.0031
  674TIP3    H123657   4.606   0.845   2.768  0.5584  1.3516  2.2154
  674TIP3    H223658   4.465   0.842   2.822  0.9035  1.3053  3.1276
  675TIP3   OH223659   5.974   3.948   2.565  0.0053 -0.2465  0.7912
  675TIP3    H123660   5.897   3.951   2.623 -0.1885  1.3730  0.4916
  675TIP3    H223661   5.998   4.040   2.552 -1.0228 -0.3910 -3.1323
  676TIP3   OH223662   0.346   5.937   0.696 -0.5757 -0.0307  0.0008
  676TIP3    H123663   0.267   5.883   0.687 -0.6994 -0.3204  2.2657
  676TIP3    H223664   0.313   6.027   0.694 -1.2309 -0.1541  2.3759
  677TIP3   OH223665   3.474   0.377   6.564 -0.2296  0.0150 -0.1527
  677TIP3    H123666   3.432   0.405   6.483 -1.3361 -1.2678 -0.0580
  677TIP3    H223667   3.452   0.446   6.627 -0.2389  0.4984 -0.6738
  678TIP3   OH223668   5.900   0.032   7.372  0.2133 -0.2187  0.0055
  678TIP3    H123669   5.869   0.011   7.284  0.5394  0.6627 -0.3297
  678TIP3    H223670   5.990   0.062   7.359 -0.5367  2.3868  0.2898
  679TIP3   OH223671   1.096   0.326   2.492  0.1657  0.1695 -0.1308
  679TIP3    H123672   1.021   0.354   2.545 -1.1567  0.2512 -1.9651
  679TIP3    H223673   1.112   0.236   2.520 -0.7475  0.0813  0.1510
  680TIP3   OH223674   5.575   5.605   7.672  0.2615 -0.2419 -0.1727
  680TIP3    H123675   5.545   5.535   7.616 -1.2400 -0.2434  0.5899
  680TIP3    H223676   5.549   5.686   7.627  1.3051 -0.1729 -0.6777
  681TIP3   OH223677   5.963   5.551   7.618 -0.1789  0.0190  0.0444
  681TIP3    H123678   6.056   5.561   7.597  0.5725 -0.6733  2.6918
  681TIP3    H223679   5.918   5.567   7.535  2.3183 -0.3228 -1.4813
  682TIP3   OH223680   1.036   2.660   7.226 -0.1748 -0.7485  0.2138
  682TIP3    H123681   1.012   2.657   7.134 -0.8598  0.7467  0.3153
  682TIP3    H223682   1.035   2.753   7.248  0.5113 -1.0437  1.5939
  683TIP3   OH223683   0.834   3.380   7.058  0.0478  0.1806  0.2138
  683TIP3    H123684   0.845   3.474   7.048  0.2392  0.2851  1.3129
  683TIP3    H223685   0.923   3.346   7.068  0.0191 -0.1906 -0.6584
  684TIP3   OH223686   2.718   5.277   1.951 -0.6727 -0.2200 -0.6985
  684TIP3    H123687   2.771   5.328   1.889 -0.1194 -0.4097 -0.3938
  684TIP3    H223688   2.677   5.209   1.897  0.9329 -1.2650 -0.6694
  685TIP3   OH223689   1.354   1.850   2.786 -0.6652 -0.8854  0.1394
  685TIP3    H123690   1.375   1.761   2.760  0.7258 -0.2472 -1.0310
  685TIP3    H223691   1.435   1.899   2.773 -1.2031  0.4215  1.4266
  686TIP3   OH223692   5.964   4.404   1.956  0.4527  0.8629 -0.8551
  686TIP3    H123693   5.891   4.466   1.945  0.0623  0.3939 -0.9450
  686TIP3    H223694   5.987   4.410   2.048 -0.8642 -0.2468 -0.4137
  687TIP3   OH223695   0.867   3.716   0.495 -0.1631  0.1244 -0.0614
  687TIP3    H123696   0.800   3.699   0.429 -1.4628  1.0167  0.9760
  687TIP3    H223697   0.949   3.720   0.446 -0.9108 -0.5684 -1.4231
  688TIP3   OH223698   6.705   4.950   3.148 -0.2536 -0.2423  0.1235
  688TIP3    H123699   6.731   5.038   3.120 -2.7809  1.9519  3.7356
  688TIP3    H223700   6.770   4.926   3.215 -0.1136 -0.6927 -0.1731
  689TIP3   OH223701   3.869   4.857   0.247 -0.0072 -0.0223  0.2148
  689TIP3    H123702   3.828   4.906   0.176 -1.3438  0.0434  1.0045
  689TIP3    H223703   3.849   4.907   0.326  0.4085 -0.7351  0.7909
  690TIP3   OH223704   2.644   0.754   2.037  0.1131 -0.2614 -0.4019
  690TIP3    H123705   2.697   0.748   2.117  2.1759 -0.6062 -1.7216
  690TIP3    H223706   2.648   0.846   2.012 -0.9315 -0.0588  0.1074
  691TIP3   OH223707   5.958   1.058   7.300  0.3028  0.1138 -0.4865
  691TIP3    H123708   5.942   1.131   7.241 -0.8148 -0.3488 -0.7831
  691TIP3    H223709   6.023   1.090   7.362 -1.4747  2.0017  0.5141
  692TIP3   OH223710   0.901   6.808   0.238 -0.3981  0.4080 -0.5134
  692TIP3    H123711   0.958   6.866   0.189 -2.0109  0.4192 -2.4645
  692TIP3    H223712   0.815   6.850   0.237 -0.7605 -0.1480  1.4042
  693TIP3   OH223713   0.611   6.192   1.231 -0.4859  0.1720  0.4184
  693TIP3    H123714   0.701   6.175   1.259 -0.5904 -1.2160 -0.0076
  693TIP3    H223715   0.612   6.283   1.201  0.5075  0.5129  1.4179
  694TIP3   OH223716   3.862   4.233   7.462 -0.6115  0.0048 -0.4398
  694TIP3    H123717   3.785   4.208   7.409  0.7394 -1.5285 -1.8032
  694TIP3    H223718   3.934   4.235   7.399  0.0557  4.6768  0.0943
  695TIP3   OH223719   3.064   1.312   6.385  0.1110  0.3951 -0.4186
  695TIP3    H123720   3.153   1.290   6.412  0.2819  1.2038 -0.3034
  695TIP3    H223721   3.049   1.400   6.419 -0.4499  0.5764 -1.1022
  696TIP3   OH223722   5.090   6.865   6.496  0.4878 -0.1389  0.2110
  696TIP3    H123723   5.138   6.885   6.576  0.0211  0.9687  0.2263
  696TIP3    H223724   5.107   6.939   6.438 -0.0070 -0.4453 -0.3418
  697TIP3   OH223725   0.254   4.093   8.459 -0.0171  0.2073 -0.2334
  697TIP3    H123726   0.164   4.076   8.488  0.3867 -0.7597  0.5370
  697TIP3    H223727   0.247   4.110   8.366 -0.7080 -3.0543 -0.8998
  698TIP3   OH223728   4.857   0.368   1.944  0.5125  0.3361  0.4993
  698TIP3    H123729   4.938   0.367   1.996  0.5371 -1.1267  0.4785
  698TIP3    H223730   4.887   0.351   1.855  0.0837 -1.6498  0.6990
  699TIP3   OH223731   6.756   6.499   1.300  1.0211 -0.2340 -0.0527
  699TIP3    H123732   6.746   6.594   1.307  1.9529 -0.2360  2.3614
  699TIP3    H223733   6.670   6.467   1.272  0.4601  1.2662 -0.0989
  700TIP3   OH223734   0.077   1.110   7.151 -0.4111  0.3430 -0.0144
  700TIP3    H123735   0.037   1.195   7.172 -1.7381 -0.2410 -0.0961
  700TIP3    H223736   0.149   1.132   7.092 -0.0413  1.5077  0.8178
  701TIP3   OH223737   2.435   2.980   2.396  0.1257  0.4232 -0.1048
  701TIP3    H123738   2.455   3.074   2.389  1.7796  0.1779  0.7704
  701TIP3    H223739   2.360   2.976   2.454  1.5229  1.1483  1.8791
  702TIP3   OH223740   6.330   3.599   7.046 -0.0375  0.1861  0.3864
  702TIP3    H123741   6.273   3.630   7.116 -1.0944  0.7471 -0.6945
  702TIP3    H223742   6.375   3.678   7.015 -1.2825  0.3604 -1.0722
  703TIP3   OH223743   4.696   1.883   2.105 -0.2747 -0.2514 -0.4274
  703TIP3    H123744   4.792   1.873   2.101 -0.2224 -0.9671  1.4842
  703TIP3    H223745   4.683   1.975   2.127  0.1131 -0.5938  1.4367
  704TIP3   OH223746   1.013   6.819   7.302 -0.7430 -0.0409 -0.2429
  704TIP3    H123747   1.047   6.731   7.286  1.9574  0.5136  1.7384
  704TIP3    H223748   1.067   6.853   7.374 -2.2911  2.9050 -0.3166
  705TIP3   OH223749   2.621   2.562   1.033 -0.3631  0.3574 -0.1520
  705TIP3    H123750   2.608   2.642   0.983 -1.7044  1.2896  1.5736
  705TIP3    H223751   2.563   2.571   1.109 -0.9290 -2.4738 -0.1359
  706TIP3   OH223752   2.417   5.962   2.246  0.2417 -0.6602 -0.2439
  706TIP3    H123753   2.442   5.875   2.277  0.0174 -0.4483  0.5635
  706TIP3    H223754   2.478   6.021   2.290  1.5689 -0.5069 -2.1337
  707TIP3   OH223755   1.809   2.441   0.395 -0.4898 -0.2408  0.0558
  707TIP3    H123756   1.795   2.477   0.483  0.8337 -0.3873  0.3498
  707TIP3    H223757   1.805   2.346   0.407 -0.1608 -0.2637 -0.0189
  708TIP3   OH223758   0.070   3.307   0.738  0.5884  0.4706  0.2816
  708TIP3    H123759  -0.025   3.307   0.737  0.5880  0.1517  0.0342
  708TIP3    H223760   0.094   3.223   0.778  0.7550 -0.9585 -2.5117
  709TIP3   OH223761   5.601   2.182   7.587 -1.0222 -0.6118  0.2418
  709TIP3    H123762   5.641   2.119   7.646  4.0977  1.1565 -0.8290
  709TIP3    H223763   5.589   2.133   7.505  2.2738 -0.6075 -0.3843
  710TIP3   OH223764   1.735   4.202   7.579  0.3508 -0.2470 -0.4897
  710TIP3    H123765   1.706   4.212   7.670 -0.9212  0.7459 -0.9688
  710TIP3    H223766   1.760   4.290   7.552 -2.7117  0.2712 -2.1543
  711TIP3   OH223767   3.785   3.523   0.105 -0.1080 -0.4972 -0.3607
  711TIP3    H123768   3.879   3.511   0.090 -0.2215  0.3279 -2.0113
  711TIP3    H223769   3.745   3.444   0.070 -0.0559 -0.6817 -0.0056
  712TIP3   OH223770   5.007   4.515   0.726 -0.2753  0.1067  0.4394
  712TIP3    H123771   5.035   4.554   0.643  0.7964 -2.2960 -0.3975
  712TIP3    H223772   5.038   4.577   0.793  3.8235 -0.4685 -0.6642
  713TIP3   OH223773   0.205   4.669   0.071 -0.3130  0.3738 -0.3990
  713TIP3    H123774   0.153   4.745   0.045 -0.7970 -0.0639 -0.7229
  713TIP3    H223775   0.288   4.706   0.101 -1.1212  1.1542  0.9674
  714TIP3   OH223776   1.725   2.028   8.020 -0.0188 -0.5152  0.1386
  714TIP3    H123777   1.788   2.092   7.986 -0.9401  0.3035 -0.0862
  714TIP3    H223778   1.640   2.060   7.988 -0.8445 -0.2229  2.4288
  715TIP3   OH223779   0.649   2.467   8.010 -0.3349  0.0319  0.0713
  715TIP3    H123780   0.565   2.472   8.056 -0.0978 -0.2588  0.5484
  715TIP3    H223781   0.631   2.414   7.933 -0.9415  1.2567 -0.6565
  716TIP3   OH223782   6.888   3.326   0.101 -0.1282  0.6286  0.4082
  716TIP3    H123783   6.965   3.365   0.060 -1.1714  0.6588 -1.6742
  716TIP3    H223784   6.814   3.375   0.064 -1.2090  0.0132  1.6537
  717TIP3   OH223785   5.463   3.787   1.608 -0.0949 -0.1693  0.3485
  717TIP3    H123786   5.482   3.861   1.667  1.6787 -0.8886  0.7423
  717TIP3    H223787   5.402   3.823   1.544  0.9265  1.7216  0.3665
  718TIP3   OH223788   0.844   3.091   7.546  0.1058 -0.5165  0.2960
  718TIP3    H123789   0.881   3.174   7.574  1.1689 -0.9164  0.1575
  718TIP3    H223790   0.885   3.074   7.461 -0.5580 -0.8904  0.0420
  719TIP3   OH223791   2.038   1.500   6.967  0.0606 -0.0729  0.1015
  719TIP3    H123792   2.093   1.452   6.905  0.8769  1.7347 -0.6773
  719TIP3    H223793   2.084   1.492   7.051  0.1071 -0.7591  0.0148
  720TIP3   OH223794   4.024   1.259   2.220 -0.2024  0.7861 -0.3358
  720TIP3    H123795   3.929   1.257   2.210 -0.1644  2.3481 -1.2379
  720TIP3    H223796   4.037   1.270   2.314 -0.7281 -4.5881  0.7070
  721TIP3   OH223797   4.240   5.222   2.489  0.1298 -0.8557  0.0346
  721TIP3    H123798   4.264   5.301   2.441  0.5589 -0.9502  0.0912
  721TIP3    H223799   4.239   5.250   2.581  0.9263 -1.0718  0.1135
  722TIP3   OH223800   1.103   3.003   8.185 -0.6148  0.4275  0.6111
  722TIP3    H123801   1.148   2.952   8.253  1.1187  0.8112 -0.2052
  722TIP3    H223802   1.058   2.937   8.132 -0.7037 -0.0025  1.2006
  723TIP3   OH223803   3.237   6.116   0.161  0.7357  0.6556 -0.2635
  723TIP3    H123804   3.250   6.203   0.125  0.1433  0.4157 -1.0733
  723TIP3    H223805   3.325   6.086   0.184  0.8691  1.8058  0.8743
  724TIP3   OH223806   3.442   4.520   1.159  0.0857  0.1868 -0.1813
  724TIP3    H123807   3.418   4.436   1.120  0.1193  0.0767  0.0344
  724TIP3    H223808   3.360   4.570   1.163  0.1834  0.4112 -0.9103
  725TIP3   OH223809   4.196   4.046   1.509  0.0118 -0.1248  0.4162
  725TIP3    H123810   4.241   3.978   1.460 -0.2307 -0.8685  1.2125
  725TIP3    H223811   4.198   4.123   1.451  1.6625 -0.3412  0.1554
  726TIP3   OH223812   1.180   6.617   7.964 -0.5227  0.7066 -0.1172
  726TIP3    H123813   1.138   6.681   7.906 -0.3114  1.0266  0.0780
  726TIP3    H223814   1.135   6.629   8.048  0.0358  1.1350  0.1264
  727TIP3   OH223815   3.502   5.924   1.172 -0.4051 -0.5525 -0.1248
  727TIP3    H123816   3.590   5.950   1.148  0.5516 -2.9684  0.4866
  727TIP3    H223817   3.450   5.940   1.093  0.7451  0.1261 -0.7737
  728TIP3   OH223818   4.098   1.454   2.014  0.4707  0.0559  0.2650
  728TIP3    H123819   4.028   1.390   2.019 -0.1716  0.6671 -0.6791
  728TIP3    H223820   4.109   1.485   2.104 -1.2028  0.7265  0.2600
  729TIP3   OH223821   5.009   5.507   0.505  0.1598  0.1134  0.2867
  729TIP3    H123822   4.977   5.545   0.587  0.1792  0.2261  0.2428
  729TIP3    H223823   4.954   5.430   0.491 -0.5283  0.6660 -0.1211
  730TIP3   OH223824   3.016   5.069   2.818 -0.3893  0.2408 -0.4664
  730TIP3    H123825   3.090   5.127   2.800 -0.0776  0.2282  0.6759
  730TIP3    H223826   3.045   5.016   2.892 -0.9043 -0.9503 -1.0897
  731TIP3   OH223827   6.105   6.847   2.116  0.1567 -0.4948 -0.1786
  731TIP3    H123828   6.122   6.883   2.204  1.9941 -2.7412  0.4894
  731TIP3    H223829   6.151   6.906   2.057  0.8020 -0.1905  0.6053
  732TIP3   OH223830   4.703   2.241   7.425 -0.1377 -0.4108  0.2443
  732TIP3    H123831   4.735   2.219   7.338  0.2963 -2.1499  0.8030
  732TIP3    H223832   4.735   2.329   7.441  2.2840 -1.1493 -0.2006
  733TIP3   OH223833   2.221   2.134   1.826 -0.1499 -0.3444  0.0392
  733TIP3    H123834   2.260   2.125   1.913 -1.9150  1.3036  1.0677
  733TIP3    H223835   2.146   2.191   1.839 -0.5822 -0.2060 -2.5629
  734TIP3   OH223836   1.511   3.417   1.769  0.5347  0.1360 -0.6288
  734TIP3    H123837   1.588   3.368   1.742  0.7955  1.3904 -2.3460
  734TIP3    H223838   1.543   3.483   1.830  0.4656 -0.6236  0.2535
  735TIP3   OH223839   2.059   6.105   1.109  0.0961  0.0946 -0.2270
  735TIP3    H123840   1.999   6.066   1.046 -0.3128  0.2011  0.0939
  735TIP3    H223841   2.014   6.182   1.142  0.6269  0.4731 -0.3683
  736TIP3   OH223842   3.942   3.808   7.671  0.3525  0.0811  0.0283
  736TIP3    H123843   3.904   3.794   7.585 -0.9480  2.7071  0.0604
  736TIP3    H223844   3.876   3.777   7.733  1.4749 -2.2269  0.1457
  737TIP3   OH223845   1.254   1.259   7.310  0.5958  0.5252 -0.2495
  737TIP3    H123846   1.226   1.172   7.281  1.9013  0.0224 -0.0767
  737TIP3    H223847   1.206   1.320   7.253 -0.1685 -0.3054 -0.5166
  738TIP3   OH223848   4.754   5.697   0.129  0.7106  0.0034  0.4746
  738TIP3    H123849   4.714   5.646   0.199 -0.2378  0.9965  0.6816
  738TIP3    H223850   4.681   5.738   0.083  1.3494 -0.1556 -0.7430
  739TIP3   OH223851   0.566   3.579   7.577 -0.4080  0.2944 -0.1484
  739TIP3    H123852   0.599   3.569   7.667  0.3336 -2.2182 -0.6096
  739TIP3    H223853   0.540   3.671   7.571  0.0456  0.6767  2.4508
  740TIP3   OH223854   4.616   5.580   0.343  0.5686  0.0306 -0.3658
  740TIP3    H123855   4.640   5.491   0.370  0.9516  0.1313 -0.3634
  740TIP3    H223856   4.522   5.576   0.328  1.0061 -1.2778 -3.7569
  741TIP3   OH223857   1.009   6.746   6.556 -0.2414 -0.3172  0.3684
  741TIP3    H123858   1.099   6.731   6.585 -0.2418 -0.5696  0.2473
  741TIP3    H223859   0.954   6.712   6.627 -0.2429 -1.0704  0.0174
  742TIP3   OH223860   1.236   2.510   0.871  0.3168 -0.2367 -0.1189
  742TIP3    H123861   1.163   2.479   0.925  1.6960 -1.5025  1.1029
  742TIP3    H223862   1.247   2.442   0.804  1.5974 -1.0950  0.9092
  743TIP3   OH223863   2.212   2.034   8.109  0.2272  0.4331  0.1421
  743TIP3    H123864   2.125   2.058   8.139  0.5572  1.2087  0.5110
  743TIP3    H223865   2.205   1.941   8.087 -0.0426 -0.2054  2.6384
  744TIP3   OH223866   4.591   4.563   7.267  0.7982  0.0650 -0.1098
  744TIP3    H123867   4.622   4.596   7.182  4.0482 -0.0108  0.9466
  744TIP3    H223868   4.667   4.569   7.325 -0.9730 -1.0531  2.5114
  745TIP3   OH223869   1.682   5.534   0.869 -0.0184  0.2792  0.1851
  745TIP3    H123870   1.590   5.555   0.850 -0.7408 -3.2677 -1.1890
  745TIP3    H223871   1.677   5.450   0.915  2.5338  0.3620  0.7205
  746TIP3   OH223872   3.585   2.407   1.968  0.2197  0.4104 -0.1144
  746TIP3    H123873   3.591   2.501   1.987 -0.4409  0.4691 -0.1428
  746TIP3    H223874   3.574   2.402   1.873  1.0313  0.2553 -0.2054
  747TIP3   OH223875   4.986   3.431   8.142  0.3479 -0.0625 -0.5483
  747TIP3    H123876   4.983   3.437   8.238 -0.8898  1.7019 -0.6488
  747TIP3    H223877   5.070   3.389   8.123  1.3411  0.9777  1.2709
  748TIP3   OH223878   2.865   4.233   8.448 -0.1220  0.6664 -0.1889
  748TIP3    H123879   2.799   4.219   8.381  0.9021 -1.4507 -0.8309
  748TIP3    H223880   2.910   4.149   8.457  2.2778  1.8957  0.4415
  749TIP3   OH223881   0.832   0.215   2.309  0.0459  0.7454 -0.2148
  749TIP3    H123882   0.880   0.215   2.391  0.7731  0.8653 -0.6283
  749TIP3    H223883   0.742   0.195   2.333  0.8699 -3.0594  0.2557
  750TIP3   OH223884   4.370   3.536   6.651  0.0299 -0.0698 -0.0215
  750TIP3    H123885   4.414   3.619   6.632 -0.1898 -0.0076 -0.2648
  750TIP3    H223886   4.394   3.479   6.578 -0.4333  0.0194 -0.2453
  751TIP3   OH223887   2.030   4.376   8.408  0.4653  0.4162 -0.0185
  751TIP3    H123888   2.126   4.375   8.402  0.4670 -1.4273 -0.2932
  751TIP3    H223889   2.005   4.464   8.380  2.0891  1.0570  0.4482
  752TIP3   OH223890   6.406   2.403   7.871 -0.1640  0.5127  0.2643
  752TIP3    H123891   6.400   2.483   7.819 -0.7181  0.1405 -0.2572
  752TIP3    H223892   6.318   2.392   7.909 -0.0260  0.2786  0.5245
  753TIP3   OH223893   6.270   1.775   1.896  0.2697 -0.1607  0.4159
  753TIP3    H123894   6.281   1.680   1.903  0.1014 -0.3521 -1.5168
  753TIP3    H223895   6.175   1.788   1.900  0.1865 -0.2490 -0.8675
  754TIP3   OH223896   2.505   3.487   7.617  0.3684 -0.1562  0.1870
  754TIP3    H123897   2.503   3.396   7.647  0.7157 -1.1220 -2.3758
  754TIP3    H223898   2.424   3.525   7.649  0.0907 -1.4525  1.1158
  755TIP3   OH223899   4.310   5.059   0.073 -0.3040  0.1462 -0.0589
  755TIP3    H123900   4.289   5.032   0.162  1.3623 -1.5247 -0.1220
  755TIP3    H223901   4.384   5.119   0.082 -0.5541  0.4942 -0.2841
  756TIP3   OH223902   3.985   1.559   1.398 -0.7772  0.1551 -0.0858
  756TIP3    H123903   4.009   1.471   1.426  1.3375  0.8926  0.5920
  756TIP3    H223904   4.053   1.584   1.335 -0.7841  1.6556  0.4606
  757TIP3   OH223905   0.193   5.796   0.003 -0.1697 -0.7212 -0.2624
  757TIP3    H123906   0.110   5.804   0.051 -0.3150 -0.4210 -0.5568
  757TIP3    H223907   0.205   5.882  -0.039  0.3185 -0.7426 -0.1762
  758TIP3   OH223908   0.776   1.207   1.723  0.6746  0.0469  0.4091
  758TIP3    H123909   0.786   1.277   1.658 -0.0867  1.0020  1.2781
  758TIP3    H223910   0.821   1.132   1.685  1.6277  1.0432 -0.5033
  759TIP3   OH223911   1.347   0.148   0.610  0.4598  0.0891 -0.1619
  759TIP3    H123912   1.278   0.183   0.666  0.6076 -0.5856  0.4623
  759TIP3    H223913   1.302   0.121   0.530  0.3442  1.6435 -0.6366
  760TIP3   OH223914   6.191   2.190   2.540 -0.2403 -1.1625  0.1645
  760TIP3    H123915   6.178   2.117   2.481  0.4708 -0.3993 -0.9713
  760TIP3    H223916   6.203   2.150   2.626 -0.2112 -2.3453 -0.3816
  761TIP3   OH223917   2.930   5.926   7.407 -0.2370  0.0835  0.0688
  761TIP3    H123918   2.959   5.890   7.323  0.6519 -1.4707  1.0002
  761TIP3    H223919   2.884   5.853   7.450 -2.6517  1.4838  0.0742
  762TIP3   OH223920   0.457   0.534   0.314 -0.1942 -0.2168  0.7086
  762TIP3    H123921   0.417   0.610   0.357 -0.0591 -0.7191  1.7653
  762TIP3    H223922   0.536   0.568   0.273  0.1862  0.1182  1.6860
  763TIP3   OH223923   6.111   4.726   7.357  0.8373  0.9115 -0.1060
  763TIP3    H123924   6.093   4.690   7.270 -1.5796  1.0287  0.2816
  763TIP3    H223925   6.077   4.815   7.354 -0.5272  0.4836  1.3255
  764TIP3   OH223926   3.320   4.524   0.063 -0.0278 -0.1132 -0.1151
  764TIP3    H123927   3.392   4.479   0.018  0.0995 -0.4810  0.4467
  764TIP3    H223928   3.242   4.474   0.038 -0.0543  0.1293 -0.5181
  765TIP3   OH223929   5.028   0.862   8.445 -0.4561 -0.2147  0.3552
  765TIP3    H123930   5.111   0.902   8.416 -0.7868  1.0127  1.0255
  765TIP3    H223931   5.009   0.904   8.529 -0.5141 -2.2868  1.4383
  766TIP3   OH223932   1.790   6.786   2.148  0.6072 -0.1824 -0.3739
  766TIP3    H123933   1.723   6.794   2.216  0.5165  1.9117 -0.6564
  766TIP3    H223934   1.855   6.726   2.186 -0.5270 -0.8249  0.6297
  767TIP3   OH223935   1.083   5.768   7.066 -0.7915  0.2982  0.7994
  767TIP3    H123936   1.009   5.720   7.028 -1.7814  1.4599  1.1749
  767TIP3    H223937   1.154   5.759   7.002 -1.8584  0.7234 -0.5010
  768TIP3   OH223938   6.653   0.037   0.398 -0.3341  0.0125 -0.7077
  768TIP3    H123939   6.585   0.072   0.455  0.6403 -0.4046  0.7923
  768TIP3    H223940   6.607   0.006   0.320 -2.2181 -2.4244  1.2093
  769TIP3   OH223941   6.808   0.527   6.801  0.0069  0.1650  0.1083
  769TIP3    H123942   6.858   0.538   6.721 -0.9243 -1.4685 -0.7459
  769TIP3    H223943   6.728   0.578   6.787  0.5027  1.1318  0.6577
  770TIP3   OH223944   4.809   1.882   8.591 -0.2846 -0.2785  0.1453
  770TIP3    H123945   4.875   1.817   8.611  1.7969  1.8348  0.6044
  770TIP3    H223946   4.739   1.867   8.654  0.0012 -2.1746  0.0494
  771TIP3   OH223947   4.629   6.430   2.730  0.0806 -0.2250 -0.0939
  771TIP3    H123948   4.716   6.463   2.751 -0.0660  0.7669 -0.9313
  771TIP3    H223949   4.640   6.376   2.652  0.1857 -1.5238  0.7864
  772TIP3   OH223950   0.420   4.229   2.627 -0.2413  0.2567  0.1320
  772TIP3    H123951   0.399   4.226   2.720  1.4334  0.9251  0.5657
  772TIP3    H223952   0.403   4.140   2.596 -0.2987 -0.1219  1.2064
  773TIP3   OH223953   1.882   5.006   0.007 -0.0645 -0.2066  0.0661
  773TIP3    H123954   1.952   5.057   0.046 -0.4395  0.3342  0.0420
  773TIP3    H223955   1.894   4.918   0.043  0.9681 -0.2629 -0.3927
  774TIP3   OH223956   2.222   0.719   2.899  0.0186  0.6303  0.4069
  774TIP3    H123957   2.203   0.739   2.807 -0.7647  0.6236  0.5555
  774TIP3    H223958   2.164   0.646   2.920  0.9009 -0.0217  0.6391
  775TIP3   OH223959   0.857   1.306   8.452 -0.4736 -0.0790  0.2018
  775TIP3    H123960   0.873   1.277   8.362  1.6819 -2.0315  1.1002
  775TIP3    H223961   0.934   1.357   8.474 -1.7155  1.7377  0.4902
  776TIP3   OH223962   5.360   0.953   7.169 -0.2306  0.2096  0.0952
  776TIP3    H123963   5.290   0.893   7.196 -0.4117  0.5332  0.3550
  776TIP3    H223964   5.433   0.931   7.226  0.0267 -0.4206 -0.4649
  777TIP3   OH223965   2.179   5.770   7.640  0.2553 -0.0324 -0.1834
  777TIP3    H123966   2.084   5.769   7.650  0.2800 -0.8836  0.0577
  777TIP3    H223967   2.199   5.859   7.611 -0.6958 -0.0880 -1.0918
  778TIP3   OH223968   5.497   1.155   0.967  0.6274 -0.1714 -0.1310
  778TIP3    H123969   5.515   1.249   0.961 -0.1626 -0.0935 -2.2346
  778TIP3    H223970   5.402   1.149   0.980  0.7043 -0.6668  0.2205
  779TIP3   OH223971   0.628   4.316   0.432  0.1026 -0.3412 -0.3996
  779TIP3    H123972   0.567   4.351   0.367  0.1471 -1.3988 -1.0450
  779TIP3    H223973   0.654   4.392   0.484 -0.5682  0.3910 -1.0942
  780TIP3   OH223974   0.421   0.484   7.628 -0.1488  0.2305  0.2443
  780TIP3    H123975   0.374   0.522   7.702  0.2946  1.8590 -0.2769
  780TIP3    H223976   0.465   0.407   7.665 -3.7080 -1.8466  0.6125
  781TIP3   OH223977   2.786   5.799   0.044  0.1334 -0.6222  0.1723
  781TIP3    H123978   2.848   5.742   0.089  0.1625 -2.2763 -1.8168
  781TIP3    H223979   2.837   5.842  -0.024 -0.1602  0.9295  0.8726
  782TIP3   OH223980   4.969   3.091   7.897 -0.2422  0.0508  0.2769
  782TIP3    H123981   4.879   3.121   7.882 -0.2231  0.8793  1.6203
  782TIP3    H223982   5.024   3.157   7.854 -0.2542 -0.7783 -1.0723
  783TIP3   OH223983   6.873   6.721   8.208  0.3179 -0.6180 -0.3295
  783TIP3    H123984   6.885   6.646   8.150 -1.1274 -0.3734 -1.0079
  783TIP3    H223985   6.903   6.796   8.155 -0.9034 -0.4073 -0.7579
  784TIP3   OH223986   0.002   4.991   7.184 -0.1367  0.0157 -0.9031
  784TIP3    H123987  -0.087   5.005   7.151 -0.7684  1.3624  1.1561
  784TIP3    H223988   0.001   4.902   7.217 -0.2429 -0.4859 -2.1975
  785TIP3   OH223989   0.222   1.603   1.906  0.1891 -0.5741  0.0964
  785TIP3    H123990   0.186   1.559   1.982 -2.5025  0.7519 -0.2784
  785TIP3    H223991   0.197   1.695   1.917  2.9457  0.3414 -0.6166
  786TIP3   OH223992   3.420   2.744   0.527  0.1985 -0.5077  0.1458
  786TIP3    H123993   3.478   2.785   0.591  0.8153 -0.7156 -0.2773
  786TIP3    H223994   3.391   2.817   0.472  0.7724 -0.5310 -0.1966
  787TIP3   OH223995   2.567   5.615   8.378 -0.6292 -0.5130  0.0795
  787TIP3    H123996   2.607   5.577   8.300 -0.7305  1.0107 -0.7487
  787TIP3    H223997   2.634   5.606   8.446  0.0701 -0.4648 -0.5895
  788TIP3   OH223998   0.073   1.313   2.402  0.0597  0.6161  0.7711
  788TIP3    H123999   0.114   1.393   2.433  0.8586  0.4624  0.1377
  788TIP3    H224000   0.005   1.294   2.467  0.2894  1.4492  1.2667
  789TIP3   OH224001   2.716   3.680   7.597 -0.2482 -0.0763  0.4967
  789TIP3    H124002   2.687   3.766   7.626 -1.3756 -0.1029 -0.4790
  789TIP3    H224003   2.639   3.623   7.607 -1.1761  0.1535 -3.4358
  790TIP3   OH224004   3.747   2.566   3.135 -0.3892  0.3541 -0.3276
  790TIP3    H124005   3.808   2.530   3.200 -1.0252  0.5947  0.4120
  790TIP3    H224006   3.681   2.498   3.124 -0.7095  0.6257 -0.1267
  791TIP3   OH224007   4.535   3.436   8.236  0.0919  0.0195 -0.1007
  791TIP3    H124008   4.581   3.414   8.317  0.2085 -0.3996 -0.2794
  791TIP3    H224009   4.578   3.516   8.205 -0.0081  0.2284  0.2927
  792TIP3   OH224010   4.215   3.854   1.807 -0.4502 -0.3375  0.2366
  792TIP3    H124011   4.199   3.760   1.814 -1.5986 -0.1466  0.4055
  792TIP3    H224012   4.127   3.893   1.803 -0.0116  0.7708  0.8835
  793TIP3   OH224013   6.728   2.855   6.790 -0.2140  0.0194  0.5992
  793TIP3    H124014   6.719   2.927   6.728  0.5580  2.2335  2.8787
  793TIP3    H224015   6.654   2.865   6.850 -0.7394 -1.8386  0.3305
  794TIP3   OH224016   2.812   3.564   1.442  0.0100 -0.4982 -0.3792
  794TIP3    H124017   2.780   3.512   1.516 -0.9779  2.4015  1.3744
  794TIP3    H224018   2.880   3.620   1.479 -1.5882  2.1581 -1.1966
  795TIP3   OH224019   5.872   2.748   7.438 -0.0871  0.2003 -0.3138
  795TIP3    H124020   5.879   2.669   7.385 -1.8965 -1.1098  1.2299
  795TIP3    H224021   5.954   2.753   7.487  0.7588  0.3046 -1.7020
  796TIP3   OH224022   4.133   6.743   0.755 -0.4341  0.2384 -0.5008
  796TIP3    H124023   4.119   6.765   0.846 -1.4321  1.6155 -0.9639
  796TIP3    H224024   4.228   6.736   0.746 -0.2364  1.7165  0.2872
  797TIP3   OH224025   5.263   5.672   1.219  0.0870 -0.2681 -0.4738
  797TIP3    H124026   5.323   5.601   1.195  1.6423  0.5864  0.7191
  797TIP3    H224027   5.268   5.676   1.314  0.2140  1.5790 -0.5280
  798TIP3   OH224028   0.004   4.802   0.870  0.1678 -0.4113  0.1786
  798TIP3    H124029  -0.080   4.773   0.905 -0.1112  1.3622  1.1007
  798TIP3    H224030   0.064   4.729   0.888 -0.8992 -1.2143  0.5926
  799TIP3   OH224031   0.019   6.493   0.439  0.1966 -0.0000 -0.5084
  799TIP3    H124032   0.080   6.567   0.433  0.4379 -0.2289 -0.9388
  799TIP3    H224033  -0.064   6.529   0.407 -0.4804  0.9054  1.9935
  800TIP3   OH224034   0.673   1.802   2.685 -0.3762  0.4506  0.1451
  800TIP3    H124035   0.654   1.713   2.654  0.6246  0.6719 -1.2134
  800TIP3    H224036   0.588   1.841   2.703 -0.9715  0.0249 -1.6247
  801TIP3   OH224037   0.660   5.160   7.473  0.3257 -0.3091  0.2229
  801TIP3    H124038   0.704   5.235   7.434  1.8283 -1.0088  0.4846
  801TIP3    H224039   0.694   5.155   7.562  1.7892 -2.4111 -0.3793
  802TIP3   OH224040   3.936   1.035   7.974  0.5179  0.2416  0.2035
  802TIP3    H124041   4.027   1.056   7.993  0.9154 -1.0352 -0.1807
  802TIP3    H224042   3.902   1.000   8.057  1.2721 -2.1063 -0.4054
  803TIP3   OH224043   4.104   1.055   2.479  0.2712  0.2150 -0.1061
  803TIP3    H124044   4.148   1.025   2.558  0.6307 -1.5829 -0.9415
  803TIP3    H224045   4.084   1.148   2.496  0.3832 -0.1084  2.0374
  804TIP3   OH224046   2.994   5.180   8.156 -0.3489 -0.5568 -0.4602
  804TIP3    H124047   3.022   5.245   8.220  0.8212 -0.1792 -1.3142
  804TIP3    H224048   3.068   5.172   8.096 -0.8366 -1.9967 -0.9147
  805TIP3   OH224049   1.954   4.622   2.500 -0.3986 -0.4995  0.2396
  805TIP3    H124050   2.000   4.591   2.578 -0.5909 -1.9245 -0.1838
  805TIP3    H224051   1.953   4.718   2.509  1.6732 -0.4730  0.7893
  806TIP3   OH224052   2.592   4.278   7.640  0.2041 -0.1353 -0.4430
  806TIP3    H124053   2.513   4.231   7.667  0.8629 -1.6135 -1.0105
  806TIP3    H224054   2.570   4.316   7.555 -0.6001  1.3539  0.3686
  807TIP3   OH224055   3.011   2.593   1.782 -0.0762  0.0741  0.0039
  807TIP3    H124056   3.021   2.498   1.777  0.5740  0.1591 -0.5010
  807TIP3    H224057   2.922   2.610   1.749 -1.1728 -0.5284  2.4252
  808TIP3   OH224058   6.019   1.963   8.590 -0.5277 -0.2913  0.5832
  808TIP3    H124059   6.010   2.058   8.600 -0.1967 -0.3393  1.3641
  808TIP3    H224060   6.044   1.931   8.677  2.2291 -0.7607 -0.2747
  809TIP3   OH224061   3.633   1.959   7.226 -0.4106  0.1153 -0.1372
  809TIP3    H124062   3.565   2.024   7.239  0.2531  0.6642  0.7918
  809TIP3    H224063   3.657   1.967   7.134 -1.5249 -0.0239 -0.4489
  810TIP3   OH224064   3.568   1.519   2.397 -0.4656 -0.1815 -0.0309
  810TIP3    H124065   3.502   1.584   2.376  0.1132  0.2414 -0.5929
  810TIP3    H224066   3.574   1.520   2.492 -0.6877  0.3685 -0.0210
  811TIP3   OH224067   6.147   2.870   8.576 -0.2434 -0.0256  0.4158
  811TIP3    H124068   6.163   2.875   8.670 -3.1551  1.7481  0.9641
  811TIP3    H224069   6.054   2.889   8.567  0.4816  3.1588 -2.9946
  812TIP3   OH224070   0.624   1.726   0.800 -0.0735  0.4128  0.3240
  812TIP3    H124071   0.535   1.707   0.772  0.2256  2.1880 -2.1784
  812TIP3    H224072   0.617   1.807   0.851  0.0208  0.0623  0.9048
  813TIP3   OH224073   0.835   1.680   8.519  0.3281 -0.4112  0.2581
  813TIP3    H124074   0.813   1.644   8.433 -0.0029 -1.3760  0.7300
  813TIP3    H224075   0.872   1.766   8.500 -3.7240  1.3883 -0.6293
  814TIP3   OH224076   1.356   1.413   1.594 -0.1551 -0.2045 -0.2351
  814TIP3    H124077   1.430   1.387   1.540 -0.7314 -2.3401 -0.1152
  814TIP3    H224078   1.363   1.359   1.672 -2.5900 -1.6019 -0.8607
  815TIP3   OH224079   4.253   5.162   0.968  0.1722 -0.0494  0.2792
  815TIP3    H124080   4.183   5.196   1.024 -1.8733 -0.9276 -1.5479
  815TIP3    H224081   4.266   5.072   0.997  0.0734 -0.0801  0.2296
  816TIP3   OH224082   6.790   3.172   8.232  0.0710 -0.2709  0.3282
  816TIP3    H124083   6.851   3.127   8.292 -0.4165 -1.3207  0.0675
  816TIP3    H224084   6.815   3.264   8.237  2.3285 -0.7880 -0.5289
  817TIP3   OH224085   2.227   1.060   7.877 -0.2070  0.1987  0.2318
  817TIP3    H124086   2.239   0.979   7.926 -0.0967  0.1191  0.0751
  817TIP3    H224087   2.288   1.121   7.916  0.6693 -0.1808 -0.5123
  818TIP3   OH224088   1.203   5.108   0.019 -0.7215  0.2182 -0.2901
  818TIP3    H124089   1.281   5.054   0.028  1.5969  3.5617  2.2923
  818TIP3    H224090   1.138   5.066   0.074 -0.5643 -2.1466 -1.7736
  819TIP3   OH224091   2.323   1.294   0.681 -0.1396 -0.0695  0.4747
  819TIP3    H124092   2.363   1.269   0.765 -0.2204 -0.0818  0.5097
  819TIP3    H224093   2.358   1.381   0.663  0.3900 -0.3369  0.1954
  820TIP3   OH224094   5.223   4.493   0.025  0.4985 -0.7148  0.0141
  820TIP3    H124095   5.270   4.567   0.063  1.6106  1.6061 -5.0343
  820TIP3    H224096   5.131   4.509   0.048  1.0886 -0.0445  2.1751
  821TIP3   OH224097   0.392   5.872   2.014  0.4035  0.6996 -0.2228
  821TIP3    H124098   0.453   5.800   1.998  0.3986  0.5249  0.4863
  821TIP3    H224099   0.355   5.853   2.100 -2.0246 -0.1601 -1.3725
  822TIP3   OH224100   1.720   0.472   7.114 -0.1913  0.0966  0.0309
  822TIP3    H124101   1.658   0.521   7.168  1.9149  0.6585  2.1041
  822TIP3    H224102   1.780   0.538   7.080  0.1592 -0.5813 -0.7081
  823TIP3   OH224103   2.402   3.383   8.083  0.0073 -0.6866  0.0683
  823TIP3    H124104   2.373   3.297   8.113 -0.6426 -1.7546 -3.2379
  823TIP3    H224105   2.324   3.439   8.092 -0.0687 -0.8799  0.6425
  824TIP3   OH224106   2.823   3.343   0.957 -0.1441 -0.3392  0.4583
  824TIP3    H124107   2.917   3.327   0.968 -0.3645 -0.9680  1.5659
  824TIP3    H224108   2.808   3.427   1.001  0.0085  0.1109 -0.3293
  825TIP3   OH224109   0.749   6.209   0.993  0.3138  0.1407  0.0716
  825TIP3    H124110   0.708   6.172   0.914  0.7675 -0.4469  0.1057
  825TIP3    H224111   0.702   6.291   1.008 -1.3806 -0.8727  0.5443
  826TIP3   OH224112   3.854   6.786   8.449  0.6608  0.1127  0.1686
  826TIP3    H124113   3.866   6.881   8.452  0.2815  0.3233 -2.3156
  826TIP3    H224114   3.762   6.775   8.425  0.6928 -0.8790  0.4789
  827TIP3   OH224115   3.806   1.588   0.771 -0.1731  0.5184  0.2457
  827TIP3    H124116   3.844   1.504   0.795 -2.8379 -0.7416  0.4175
  827TIP3    H224117   3.852   1.615   0.692  0.6016 -1.1799  0.0925
  828TIP3   OH224118   6.344   1.980   1.483  0.3091 -0.4316  0.1311
  828TIP3    H124119   6.412   2.009   1.423  0.3721  0.5382  0.6499
  828TIP3    H224120   6.272   1.952   1.427  0.3257  0.5614 -0.4068
  829TIP3   OH224121   0.013   3.004   7.986 -0.2906 -0.2533  0.2197
  829TIP3    H124122  -0.075   3.029   7.960  0.7794  1.5376 -2.0175
  829TIP3    H224123   0.035   3.061   8.059 -0.2653  0.8085 -0.5933
  830TIP3   OH224124   3.198   2.513   2.086 -0.0033 -0.4223 -0.1600
  830TIP3    H124125   3.228   2.576   2.020  3.5544 -0.6150  1.0373
  830TIP3    H224126   3.179   2.567   2.163 -0.9249 -0.4919 -0.3304
  831TIP3   OH224127   5.846   3.332   0.670  0.0061 -0.2542  0.5320
  831TIP3    H124128   5.931   3.299   0.639 -0.5483 -0.1764 -1.1525
  831TIP3    H224129   5.856   3.427   0.669  0.7815 -0.2374  3.0251
  832TIP3   OH224130   3.409   2.383   2.181  0.2145 -0.4695 -0.4748
  832TIP3    H124131   3.332   2.416   2.134 -0.3242 -1.1499 -0.0900
  832TIP3    H224132   3.477   2.379   2.114 -0.2855 -0.5590 -0.9947
  833TIP3   OH224133   4.164   1.802   0.359  0.4474 -1.1367 -0.2598
  833TIP3    H124134   4.139   1.800   0.267  0.0995 -1.3777 -0.1626
  833TIP3    H224135   4.231   1.870   0.364 -0.1200 -0.5340 -0.5454
  834TIP3   OH224136   6.121   6.138   1.215  0.0267 -0.2116  0.0913
  834TIP3    H124137   6.063   6.109   1.286 -1.8798 -0.2899 -1.4005
  834TIP3    H224138   6.188   6.070   1.209 -0.5005 -0.8296  1.0193
  835TIP3   OH224139   5.170   5.420   8.309  0.0946 -0.3903  0.2210
  835TIP3    H124140   5.129   5.352   8.363 -1.1018  0.1449  0.0026
  835TIP3    H224141   5.206   5.372   8.234 -1.6447 -0.6915 -0.4572
  836TIP3   OH224142   1.082   0.622   2.159  0.3822  0.5475  0.2374
  836TIP3    H124143   1.051   0.536   2.190  0.1838  0.0593 -1.2355
  836TIP3    H224144   1.115   0.665   2.237  0.3240 -0.8114  1.0445
  837TIP3   OH224145   2.834   5.474   2.669  0.6359  0.7755  0.4605
  837TIP3    H124146   2.856   5.474   2.576  1.9369 -0.4327  0.7358
  837TIP3    H224147   2.837   5.566   2.695  0.3680  1.1142 -0.6523
  838TIP3   OH224148   2.853   1.413   0.126 -0.3838 -0.0786  0.1572
  838TIP3    H124149   2.825   1.426   0.035 -2.2375  0.3809  0.7504
  838TIP3    H224150   2.858   1.318   0.137 -0.8732 -0.1511 -0.2273
  839TIP3   OH224151   5.732   6.291   2.035 -0.7177  0.3487  0.0014
  839TIP3    H124152   5.699   6.371   1.996 -0.7734  0.0492 -0.5765
  839TIP3    H224153   5.698   6.292   2.124  0.7521  1.8507  0.6008
  840TIP3   OH224154   0.150   5.215   2.077 -0.5024 -0.1931  0.4337
  840TIP3    H124155   0.127   5.307   2.093 -0.3432  0.2389 -1.5634
  840TIP3    H224156   0.066   5.170   2.077 -1.0873  0.6598 -2.4157
  841TIP3   OH224157   2.998   5.130   0.343  0.0103 -0.1415 -0.1915
  841TIP3    H124158   2.920   5.075   0.329 -1.1908  1.2922  0.5617
  841TIP3    H224159   2.963   5.214   0.370  1.7281  1.3439 -2.2061
  842TIP3   OH224160   4.136   5.359   7.292 -0.6605 -0.7185  1.0036
  842TIP3    H124161   4.173   5.272   7.308  0.1646 -0.2456  1.7364
  842TIP3    H224162   4.209   5.408   7.254 -0.9324 -0.1613  1.2036
  843TIP3   OH224163   4.472   3.206   1.677 -0.6716  0.6409  0.1732
  843TIP3    H124164   4.481   3.209   1.772  2.7752  1.6274 -0.0683
  843TIP3    H224165   4.501   3.119   1.652 -0.0330  0.9127 -0.0583
  844TIP3   OH224166   1.313   4.178   1.575  0.1861  0.0804 -0.1193
  844TIP3    H124167   1.236   4.194   1.630 -1.3081  0.5982 -2.2265
  844TIP3    H224168   1.383   4.159   1.637 -1.5789 -0.2420  1.9170
  845TIP3   OH224169   3.281   5.712   1.549  0.1973 -0.6577 -0.5714
  845TIP3    H124170   3.255   5.722   1.640 -0.0024  1.0988 -0.7778
  845TIP3    H224171   3.209   5.665   1.508 -2.2662  2.9429 -0.8504
  846TIP3   OH224172   6.322   2.895   1.181 -0.0515 -0.4566  0.3073
  846TIP3    H124173   6.319   2.985   1.216 -1.1833 -0.4690  0.2554
  846TIP3    H224174   6.297   2.840   1.255 -2.2489 -0.5018 -0.4158
  847TIP3   OH224175   2.012   0.920   2.276 -0.1216 -0.0030  0.2396
  847TIP3    H124176   1.997   0.959   2.362  2.8097  2.9432 -0.3944
  847TIP3    H224177   2.064   0.842   2.294 -0.6533 -0.1490  1.1944
  848TIP3   OH224178   1.789   6.853   0.089 -0.2155  0.2109  0.9432
  848TIP3    H124179   1.810   6.806   0.008 -1.7644  0.2514  0.4818
  848TIP3    H224180   1.872   6.889   0.119  0.4380 -0.0839 -0.4596
  849TIP3   OH224181   1.595   4.015   8.175 -0.4163  0.1104  0.4518
  849TIP3    H124182   1.664   3.949   8.185  0.0098  0.7208  1.7254
  849TIP3    H224183   1.522   3.967   8.136  0.7544 -0.5170 -1.0688
  850TIP3   OH224184   5.685   1.488   8.575 -0.3926 -0.1876  0.1095
  850TIP3    H124185   5.689   1.583   8.591 -2.1178 -0.1001  0.2769
  850TIP3    H224186   5.638   1.480   8.492  1.8512 -0.8692 -1.1711
  851TIP3   OH224187   0.135   3.310   2.031 -0.7229 -0.0687 -0.4536
  851TIP3    H124188   0.221   3.346   2.052 -0.5987 -1.3010  1.3182
  851TIP3    H224189   0.118   3.246   2.100 -1.5455 -2.4047 -2.6752
  852TIP3   OH224190   0.924   0.981   7.288  0.4477 -0.4803  0.0824
  852TIP3    H124191   1.016   1.006   7.281  0.0665  0.4507 -2.0998
  852TIP3    H224192   0.896   0.966   7.198 -1.3288 -1.5904  0.7746
  853TIP3   OH224193   1.491   4.836   2.169  0.0415 -0.0530 -0.2620
  853TIP3    H124194   1.511   4.777   2.242  1.0310  1.2889  0.6008
  853TIP3    H224195   1.469   4.778   2.096 -0.8361 -1.4414  1.0456
  854TIP3   OH224196   4.807   2.622   7.221  0.3008 -0.4578 -0.1317
  854TIP3    H124197   4.899   2.626   7.192  0.3192 -0.2031 -0.0391
  854TIP3    H224198   4.772   2.708   7.200  0.5095 -0.0076  1.2713
  855TIP3   OH224199   1.607   0.175   8.526 -0.2057  0.5366 -0.2432
  855TIP3    H124200   1.519   0.182   8.490 -0.0321  2.3548 -0.4185
  855TIP3    H224201   1.594   0.172   8.621 -0.5032 -0.4527 -0.3135
  856TIP3   OH224202   2.058   6.080   7.770 -0.4426 -0.0029  0.3212
  856TIP3    H124203   2.093   6.120   7.849  0.1351 -1.9106  1.1061
  856TIP3    H224204   2.134   6.068   7.713 -0.3864 -0.9904  0.5820
  857TIP3   OH224205   5.545   4.523   1.283 -0.0142  0.8098  0.2052
  857TIP3    H124206   5.522   4.445   1.334 -0.6458  1.3032  0.6917
  857TIP3    H224207   5.519   4.501   1.194 -1.6024  1.0052  0.5895
  858TIP3   OH224208   4.533   2.031   1.477 -0.1164 -0.1459 -0.1003
  858TIP3    H124209   4.524   1.983   1.395 -0.2071  0.1327 -0.2563
  858TIP3    H224210   4.557   1.965   1.541 -0.0579 -0.3685 -0.3495
  859TIP3   OH224211   5.794   0.227   1.823  0.3042 -0.0535 -0.3947
  859TIP3    H124212   5.704   0.193   1.816  0.3956 -0.5624  0.6831
  859TIP3    H224213   5.800   0.293   1.754 -0.3357 -1.2348 -1.6388
  860TIP3   OH224214   5.737   1.830   1.206  0.5381  0.0363 -0.0829
  860TIP3    H124215   5.710   1.741   1.226  1.7179 -0.3621 -0.1962
  860TIP3    H224216   5.675   1.885   1.253 -0.4760 -0.8299 -0.3733
  861TIP3   OH224217   3.413   6.434   2.209 -0.3347  0.0129 -0.0952
  861TIP3    H124218   3.505   6.444   2.186 -0.5867  0.6197 -0.8878
  861TIP3    H224219   3.414   6.383   2.290  0.7568  1.4445  0.8338
  862TIP3   OH224220   5.683   2.580   1.212 -0.2779  0.2842  0.3259
  862TIP3    H124221   5.766   2.600   1.255  0.0558 -0.4430  0.0325
  862TIP3    H224222   5.702   2.503   1.158 -0.3436  1.9232 -2.1741
  863TIP3   OH224223   2.663   1.090   1.982  0.0856 -0.4719  0.0264
  863TIP3    H124224   2.647   1.086   1.887 -0.7481  0.4431  0.1134
  863TIP3    H224225   2.707   1.174   1.996 -0.8413 -0.0524  0.5684
  864TIP3   OH224226   5.035   5.206   6.721 -0.1656  0.1420 -0.1752
  864TIP3    H124227   5.013   5.299   6.725  0.8549  0.3811  0.0931
  864TIP3    H224228   4.982   5.166   6.790 -1.9854  0.2108 -1.4432
  865TIP3   OH224229   5.008   2.971   0.006 -0.4099 -0.0747 -0.6478
  865TIP3    H124230   5.051   3.045  -0.036 -0.8116  0.4676 -0.1282
  865TIP3    H224231   4.978   3.005   0.090  0.2798 -1.0960  0.0513
  866TIP3   OH224232   5.298   2.060   2.848  0.0083  0.2415  0.0557
  866TIP3    H124233   5.255   2.035   2.929  1.0258  0.1888  0.5927
  866TIP3    H224234   5.306   1.978   2.799 -0.7648  0.3029 -0.1862
  867TIP3   OH224235   5.301   5.321   1.852 -0.4106  0.4094  0.4127
  867TIP3    H124236   5.299   5.307   1.946  0.9524  0.9918  0.5656
  867TIP3    H224237   5.352   5.402   1.841 -1.7090  1.1144 -0.7565
  868TIP3   OH224238   2.408   1.451   8.384 -0.2344 -0.1604 -0.4451
  868TIP3    H124239   2.376   1.366   8.355  0.9812 -0.9862  0.5188
  868TIP3    H224240   2.378   1.458   8.475 -0.3111  0.4424 -0.5110
  869TIP3   OH224241   2.426   5.223   0.525  0.1940  0.3257  0.6767
  869TIP3    H124242   2.361   5.267   0.579  1.9311  0.8345  2.4874
  869TIP3    H224243   2.510   5.257   0.556  1.3808 -0.8351 -1.0615
  870TIP3   OH224244   4.124   1.018   0.328 -0.1154  0.2447 -0.3223
  870TIP3    H124245   4.080   0.950   0.277 -1.5168 -1.4082  2.7730
  870TIP3    H224246   4.214   0.986   0.339 -0.7475 -1.1960  1.0509
  871TIP3   OH224247   2.059   2.850   7.976 -0.6334 -0.0683  0.3786
  871TIP3    H124248   2.041   2.886   8.062 -1.3937 -0.0976  0.2393
  871TIP3    H224249   2.154   2.856   7.966 -0.5318 -0.1657  1.2549
  872TIP3   OH224250   6.090   5.058   7.648 -0.0448  0.2567  0.1287
  872TIP3    H124251   6.080   5.078   7.555 -0.0992  1.0150  0.2845
  872TIP3    H224252   6.053   5.135   7.693  1.1591  0.4895  0.7701
  873TIP3   OH224253   3.310   6.758   0.546  0.1480 -0.3661  0.4120
  873TIP3    H124254   3.227   6.746   0.500 -0.1990  0.7800  0.6905
  873TIP3    H224255   3.343   6.669   0.561 -0.1104 -0.7856 -1.3207
  874TIP3   OH224256   1.237   3.104   7.230 -0.2409  0.3156 -0.2987
  874TIP3    H124257   1.211   3.185   7.275 -0.5266  0.2401 -0.3230
  874TIP3    H224258   1.238   3.128   7.137 -0.3858  0.2759 -0.3110
  875TIP3   OH224259   4.632   4.539   0.354  0.0465 -0.3772  0.2317
  875TIP3    H124260   4.588   4.619   0.322 -0.7034 -0.7883  0.1960
  875TIP3    H224261   4.560   4.476   0.365  0.5681 -0.8828  0.7605
  876TIP3   OH224262   3.468   3.475   0.681  0.3477 -0.0800 -0.6068
  876TIP3    H124263   3.530   3.409   0.712 -0.3316 -1.0710 -1.2782
  876TIP3    H224264   3.445   3.525   0.760  0.2634 -1.1737  0.0895
  877TIP3   OH224265   5.411   6.344   6.770 -0.4335  0.6564 -0.1695
  877TIP3    H124266   5.460   6.262   6.773 -1.2685  0.0685 -1.6246
  877TIP3    H224267   5.476   6.411   6.791  0.7923 -0.1749 -1.1450
  878TIP3   OH224268   4.750   0.842   0.808  0.1196 -0.2509  0.4624
  878TIP3    H124269   4.767   0.896   0.731  1.0848 -0.3176  0.6133
  878TIP3    H224270   4.677   0.786   0.783  0.5002 -0.3598 -0.4589
  879TIP3   OH224271   1.658   1.227   0.938  0.0496  0.0381  0.3214
  879TIP3    H124272   1.570   1.190   0.936 -0.7232  1.8090 -0.7618
  879TIP3    H224273   1.704   1.184   0.867 -0.6564  0.6613 -0.5440
  880TIP3   OH224274   5.972   4.184   0.804 -0.6959 -0.0038  0.3281
  880TIP3    H124275   6.007   4.145   0.724 -0.2384  0.0044  0.5204
  880TIP3    H224276   5.958   4.110   0.862  0.4264  0.1282  0.7910
  881TIP3   OH224277   1.428   2.081   7.576  0.6218  0.1110  0.5081
  881TIP3    H124278   1.333   2.072   7.576  0.4500  1.1959 -1.7546
  881TIP3    H224279   1.443   2.174   7.558  2.0258 -0.5783 -2.4712
  882TIP3   OH224280   3.331   2.996   2.389  0.1318 -0.3287  0.0613
  882TIP3    H124281   3.309   3.065   2.451 -0.9054 -0.3219 -0.2829
  882TIP3    H224282   3.246   2.969   2.352  0.6009 -1.1843 -0.4408
  883TIP3   OH224283   5.723   1.997   8.330 -0.0331 -0.4824  0.4179
  883TIP3    H124284   5.715   1.907   8.299  0.9403 -0.2400 -0.5580
  883TIP3    H224285   5.671   1.998   8.411 -1.1960 -1.5541 -0.2723
  884TIP3   OH224286   2.058   3.470   7.977 -1.0887 -0.0101 -0.1213
  884TIP3    H124287   2.060   3.549   7.923 -1.3270  0.1392  0.0873
  884TIP3    H224288   2.113   3.407   7.929 -0.2789  0.5191  0.0857
  885TIP3   OH224289   6.479   3.325   6.981  0.1155  0.1140  0.2125
  885TIP3    H124290   6.425   3.330   7.060 -0.7143  0.7512 -0.3785
  885TIP3    H224291   6.547   3.390   6.994 -1.4386  2.0271 -0.6043
  886TIP3   OH224292   6.350   0.888   1.588 -0.3189 -0.1397  0.2571
  886TIP3    H124293   6.427   0.842   1.621 -0.4726 -0.0704  0.7224
  886TIP3    H224294   6.357   0.882   1.493 -1.1236 -2.4939  0.2853
  887TIP3   OH224295   3.972   3.880   8.502  0.0029  0.2615 -0.3980
  887TIP3    H124296   3.884   3.911   8.479  0.6372  0.9576 -2.0363
  887TIP3    H224297   4.028   3.911   8.431  1.3598 -1.3189 -0.0896
  888TIP3   OH224298   1.155   4.830   7.153  0.3555 -0.5687  0.1671
  888TIP3    H124299   1.203   4.811   7.233  1.2375  1.3197  0.1309
  888TIP3    H224300   1.155   4.926   7.146  0.2896 -0.6658 -2.0598
  889TIP3   OH224301   6.713   3.155   7.747 -0.4409  0.0053 -0.1397
  889TIP3    H124302   6.800   3.176   7.712 -0.6784  0.9149 -0.2053
  889TIP3    H224303   6.708   3.204   7.829 -0.8026 -0.2272 -0.0250
  890TIP3   OH224304   1.081   1.316   0.964 -0.9549 -0.8323  0.0917
  890TIP3    H124305   1.140   1.314   0.889 -1.7138 -1.8491 -0.5054
  890TIP3    H224306   1.088   1.406   0.998  2.0017 -1.2798  0.9625
  891TIP3   OH224307   5.545   1.891   1.644  0.2191 -0.1784  1.0746
  891TIP3    H124308   5.607   1.944   1.694 -0.8496  1.0733  1.1203
  891TIP3    H224309   5.570   1.905   1.552 -0.5424  1.0927  1.0345
  892TIP3   OH224310   4.467   5.733   0.036 -0.5192  0.3130  0.3187
  892TIP3    H124311   4.480   5.798  -0.033 -1.1531 -0.4976 -0.5844
  892TIP3    H224312   4.394   5.766   0.087 -1.9609 -0.4650 -1.1441
  893TIP3   OH224313   0.583   2.149   0.638 -0.3898  0.3833 -0.3680
  893TIP3    H124314   0.527   2.216   0.599 -0.3584  0.6816  0.0950
  893TIP3    H224315   0.528   2.071   0.641 -1.4644  1.1414  1.8344
  894TIP3   OH224316   2.128   1.501   8.450  0.0972 -0.0070 -0.1027
  894TIP3    H124317   2.140   1.470   8.360 -1.3844 -2.3733  0.4079
  894TIP3    H224318   2.089   1.588   8.441  0.1808 -0.1093 -1.7330
  895TIP3   OH224319   5.574   2.870   0.020 -0.0419 -0.5465  0.0806
  895TIP3    H124320   5.658   2.889  -0.022 -0.3883 -0.1513 -0.4380
  895TIP3    H224321   5.540   2.794  -0.027 -1.2022  0.8834 -1.4973
  896TIP3   OH224322   6.437   5.260   0.281  0.7032  0.1846 -0.5553
  896TIP3    H124323   6.478   5.238   0.197  0.7460  0.6765 -0.6635
  896TIP3    H224324   6.510   5.275   0.341  0.6746  0.1743 -0.5173
  897TIP3   OH224325   3.558   5.976   8.263  0.1018  1.0459 -0.6362
  897TIP3    H124326   3.470   5.979   8.300  0.3636 -0.6043  0.2294
  897TIP3    H224327   3.612   6.024   8.326 -0.2915  2.9331 -1.6687
  898TIP3   OH224328   3.532   5.764   7.890 -0.4525 -0.2584  0.1165
  898TIP3    H124329   3.462   5.729   7.836  0.8174 -0.9856 -1.1118
  898TIP3    H224330   3.500   5.850   7.918 -1.4061 -0.1413 -1.2559
  899TIP3   OH224331   0.126   6.459   2.094  0.4444 -0.6776 -0.2817
  899TIP3    H124332   0.047   6.424   2.134  0.9159  0.0180  1.3328
  899TIP3    H224333   0.099   6.487   2.007 -1.3768  0.5997  0.6419
  900TIP3   OH224334   5.235   3.544   2.207  0.0243  0.3755  0.0212
  900TIP3    H124335   5.178   3.611   2.170 -1.1854 -0.7759 -0.2763
  900TIP3    H224336   5.301   3.529   2.139  0.7574  1.7630  0.3928
  901TIP3   OH224337   3.786   3.035   0.099 -0.4029  0.2302 -0.2458
  901TIP3    H124338   3.723   2.983   0.049  0.3390  0.4684 -1.4666
  901TIP3    H224339   3.814   2.977   0.170 -1.4448 -0.1240 -0.0928
  902TIP3   OH224340   6.270   3.166   3.006  0.5180  0.0110  0.0946
  902TIP3    H124341   6.264   3.180   2.911 -1.6273  1.2927  0.3595
  902TIP3    H224342   6.179   3.161   3.036  1.1167 -2.8559  1.8033
  903TIP3   OH224343   0.071   4.768   7.860  0.4054 -0.3333  0.4447
  903TIP3    H124344  -0.023   4.771   7.841  0.6286 -0.3926 -0.7883
  903TIP3    H224345   0.083   4.688   7.911 -0.3619  0.2631  1.5856
  904TIP3   OH224346   3.343   3.734   6.501 -0.2928 -0.1067  0.4942
  904TIP3    H124347   3.371   3.645   6.480  0.0231 -0.5802  2.7108
  904TIP3    H224348   3.248   3.727   6.514 -0.6563  0.3840 -1.5315
  905TIP3   OH224349   1.378   0.229   6.911 -0.5560 -0.0736 -0.3419
  905TIP3    H124350   1.294   0.225   6.866  0.4116 -1.7952 -2.1904
  905TIP3    H224351   1.419   0.309   6.879 -0.4274 -0.6087 -1.5938
  906TIP3   OH224352   0.967   5.986   8.401 -0.2170  0.3324 -0.1135
  906TIP3    H124353   0.958   5.928   8.476  0.2996  1.2008  0.6327
  906TIP3    H224354   0.971   6.074   8.438 -0.5762  0.8259 -1.1967
  907TIP3   OH224355   6.673   0.564   1.933  0.4567  0.6068 -0.2143
  907TIP3    H124356   6.753   0.517   1.956 -1.0343 -1.3536  1.2759
  907TIP3    H224357   6.659   0.544   1.841  0.2627 -1.3110  0.1969
  908TIP3   OH224358   4.838   1.470   2.311  0.2498 -0.1141 -0.1880
  908TIP3    H124359   4.803   1.390   2.271 -2.0424  0.9728 -0.5524
  908TIP3    H224360   4.786   1.540   2.271  0.3935  1.3205  2.0146
  909TIP3   OH224361   4.225   4.304   1.384 -0.3139  0.3397 -0.3480
  909TIP3    H124362   4.222   4.306   1.288 -2.4148  0.9695 -0.3175
  909TIP3    H224363   4.262   4.390   1.408 -1.8711  1.1189 -0.6006
  910TIP3   OH224364   5.916   2.861   7.922  0.2343  0.1229 -0.0585
  910TIP3    H124365   5.849   2.803   7.885  1.1347 -1.9589  1.3322
  910TIP3    H224366   5.903   2.855   8.017  1.2121  1.1545  0.1639
  911TIP3   OH224367   6.585   4.548   2.798  0.4595 -0.2945  0.1859
  911TIP3    H124368   6.573   4.643   2.792 -1.1988 -0.5575 -3.9340
  911TIP3    H224369   6.655   4.529   2.736  0.5948 -1.8052  0.7709
  912TIP3   OH224370   2.707   4.595   2.445  0.5625 -0.3664 -0.7744
  912TIP3    H124371   2.636   4.649   2.411  1.7834  2.1656  0.4937
  912TIP3    H224372   2.680   4.573   2.534  1.1192  0.1899 -0.4600
  913TIP3   OH224373   4.440   4.378   2.263  0.5200 -0.4951 -0.0564
  913TIP3    H124374   4.441   4.468   2.294 -2.9128 -0.4158  0.2549
  913TIP3    H224375   4.508   4.334   2.313 -0.8580  0.9449  3.3755
  914TIP3   OH224376   2.516   1.579   2.971  0.2594  0.4134 -0.0519
  914TIP3    H124377   2.482   1.593   2.883 -1.2590  1.6632  0.6831
  914TIP3    H224378   2.443   1.544   3.021  0.8466  0.5108  0.9149
  915TIP3   OH224379   4.314   3.341   7.358  0.1418  0.6254  0.1026
  915TIP3    H124380   4.340   3.392   7.281 -2.6056 -0.1362 -1.4671
  915TIP3    H224381   4.361   3.258   7.350 -0.6596  0.2709 -1.2160
  916TIP3   OH224382   6.496   5.258   2.630 -0.5775  0.2970  0.6173
  916TIP3    H124383   6.490   5.339   2.682  2.1831  0.3860  0.9264
  916TIP3    H224384   6.578   5.218   2.657 -0.2407 -0.9335 -1.9188
  917TIP3   OH224385   0.471   4.391   2.398 -0.8536 -0.4429  0.5871
  917TIP3    H124386   0.484   4.350   2.483  1.4998 -0.9709  0.0481
  917TIP3    H224387   0.488   4.484   2.414 -0.8342 -0.4810  0.7919
  918TIP3   OH224388   2.570   3.870   1.286  0.1103  0.9621 -0.2406
  918TIP3    H124389   2.644   3.916   1.326  0.6600  0.7972 -1.0427
  918TIP3    H224390   2.500   3.878   1.350  1.6034 -1.2829  1.8832
  919TIP3   OH224391   1.380   4.088   7.468 -0.0303  0.0929  0.6268
  919TIP3    H124392   1.425   4.082   7.384 -1.7205  2.4223 -0.5681
  919TIP3    H224393   1.417   4.166   7.509 -0.1914 -0.2495  1.4353
  920TIP3   OH224394   3.977   5.829   7.113 -0.1515 -1.0671  0.4929
  920TIP3    H124395   4.049   5.858   7.170 -1.1139  0.2477  1.0889
  920TIP3    H224396   3.980   5.889   7.039  0.4802 -2.1616 -0.3893
  921TIP3   OH224397   4.941   4.839   8.037 -0.1296 -0.4242 -0.6457
  921TIP3    H124398   4.943   4.928   8.003  1.5725  0.0544  0.5843
  921TIP3    H224399   5.028   4.826   8.075 -1.3292 -1.5235  1.9328
  922TIP3   OH224400   0.908   3.306   1.564 -0.0187  0.1267  0.4913
  922TIP3    H124401   0.875   3.355   1.639 -0.3584 -0.1314  0.5137
  922TIP3    H224402   0.870   3.349   1.487  1.7730  1.5313  0.3323
  923TIP3   OH224403   4.595   5.441   2.361 -0.0479 -0.6028 -0.5493
  923TIP3    H124404   4.670   5.383   2.360  0.8886  0.5633 -0.3727
  923TIP3    H224405   4.622   5.515   2.416 -2.3253 -1.4530  1.9529
  924TIP3   OH224406   5.976   2.314   6.891 -0.6364 -0.2152 -0.3463
  924TIP3    H124407   6.068   2.301   6.868 -0.6889 -0.4386 -0.4373
  924TIP3    H224408   5.977   2.385   6.955 -0.4621  0.2694 -0.8689
  925TIP3   OH224409   6.239   0.622   8.043  0.0374 -0.2938 -0.0342
  925TIP3    H124410   6.173   0.600   7.977 -2.5065  0.2588  2.1370
  925TIP3    H224411   6.247   0.717   8.039  0.3615 -0.3175  0.0161
  926TIP3   OH224412   6.166   2.794   7.569 -0.2062 -0.3297 -0.4400
  926TIP3    H124413   6.219   2.783   7.490 -0.9983  2.0540 -1.3809
  926TIP3    H224414   6.165   2.888   7.585 -2.3488 -0.4857  0.8007
  927TIP3   OH224415   5.181   4.339   6.723 -0.4183 -0.4865  0.7706
  927TIP3    H124416   5.181   4.269   6.658  0.8758 -2.0010  2.3158
  927TIP3    H224417   5.109   4.318   6.782 -2.2347  1.4286 -0.6194
  928TIP3   OH224418   4.167   3.002   2.745 -0.0895  0.4404 -0.8086
  928TIP3    H124419   4.101   2.963   2.803 -0.5022  0.8195 -1.0129
  928TIP3    H224420   4.156   2.955   2.662 -0.2081  0.6082 -0.8884
  929TIP3   OH224421   5.393   6.647   2.191 -0.1692  0.1684  0.7395
  929TIP3    H124422   5.337   6.629   2.115 -0.4456  1.3821  0.6338
  929TIP3    H224423   5.331   6.671   2.260  0.1945  0.9961  0.7785
  930TIP3   OH224424   6.286   6.586   2.914  0.0927 -0.1827  0.5744
  930TIP3    H124425   6.320   6.580   2.825 -1.0960 -0.9950  0.1415
  930TIP3    H224426   6.328   6.514   2.961  2.2166  1.3847  1.2637
  931TIP3   OH224427   0.911   6.375   7.633  0.3394  0.2848  0.3759
  931TIP3    H124428   0.905   6.470   7.623  0.8097  0.1985 -1.0930
  931TIP3    H224429   0.979   6.362   7.699 -0.5530  0.9704  1.4515
  932TIP3   OH224430   0.385   1.441   8.504 -0.2894 -0.0045 -0.2030
  932TIP3    H124431   0.385   1.400   8.590  1.2859  0.1638 -0.1043
  932TIP3    H224432   0.470   1.419   8.466  0.2992  2.4680 -0.4663
  933TIP3   OH224433   1.698   3.173   0.842  0.7433  0.2026 -0.5939
  933TIP3    H124434   1.789   3.164   0.812  0.8949  1.7688 -0.6825
  933TIP3    H224435   1.671   3.259   0.811  0.0151  0.7752  1.4906
  934TIP3   OH224436   2.418   3.451   0.595 -0.0100 -0.2664  0.4753
  934TIP3    H124437   2.502   3.465   0.639 -0.6136  2.5650  0.9632
  934TIP3    H224438   2.353   3.451   0.665 -0.7270  1.5340 -0.1300
  935TIP3   OH224439   3.240   2.830   1.415  0.0099 -0.2005 -0.3421
  935TIP3    H124440   3.236   2.919   1.379 -0.1564  0.2120  0.6361
  935TIP3    H224441   3.166   2.827   1.476  0.9726 -0.4395  0.8523
  936TIP3   OH224442   4.280   0.056   7.617 -0.2177 -0.0009  0.2430
  936TIP3    H124443   4.370   0.026   7.603 -0.7544 -2.0191  0.8200
  936TIP3    H224444   4.236  -0.018   7.657 -2.4042  0.6139 -0.8695
  937TIP3   OH224445   3.444   3.368   1.194  0.2179  0.0729  0.0069
  937TIP3    H124446   3.532   3.354   1.159 -0.6585 -0.9501 -1.9627
  937TIP3    H224447   3.432   3.463   1.189  1.7541  0.4258  1.8420
  938TIP3   OH224448   0.169   3.799   7.929 -0.5401  0.3009  0.2709
  938TIP3    H124449   0.093   3.855   7.917 -0.3726  0.5647  0.4444
  938TIP3    H224450   0.219   3.840   8.000  0.0513  0.4528 -0.2189
  939TIP3   OH224451   1.172   5.268   7.886  0.3150 -0.7470  0.0375
  939TIP3    H124452   1.167   5.363   7.899  0.1826 -0.7408 -0.0553
  939TIP3    H224453   1.194   5.258   7.793  3.2165 -0.7433  0.6320
  940TIP3   OH224454   0.350   5.306   1.686 -0.3795  0.5223 -0.2486
  940TIP3    H124455   0.276   5.308   1.625 -0.0941  1.4024 -0.5923
  940TIP3    H224456   0.380   5.397   1.689 -0.5464  0.5614  1.4155
  941TIP3   OH224457   5.563   0.522   0.186  0.8491 -0.1939  0.5889
  941TIP3    H124458   5.564   0.589   0.255  1.4454  0.4622 -0.0477
  941TIP3    H224459   5.630   0.459   0.213 -0.6323 -1.3124  1.9027
  942TIP3   OH224460   3.954   1.620   0.066 -0.0312  0.3091  0.1252
  942TIP3    H124461   3.907   1.573   0.135  0.8868 -1.8780 -0.6337
  942TIP3    H224462   4.046   1.606   0.087  0.2531  0.0819 -1.2225
  943TIP3   OH224463   3.401   6.342   1.380  0.9236 -0.4243 -0.1820
  943TIP3    H124464   3.332   6.408   1.382  1.5041  0.2054 -0.4728
  943TIP3    H224465   3.422   6.327   1.473  0.6584 -0.3435 -0.1086
  944TIP3   OH224466   2.948   6.392   1.947  0.5765  0.0315  0.3053
  944TIP3    H124467   3.035   6.363   1.974  0.1045 -1.5860  0.1761
  944TIP3    H224468   2.942   6.368   1.854 -0.5471 -1.2733  0.6852
  945TIP3   OH224469   4.327   2.793   1.349 -0.1801  0.4996 -0.3788
  945TIP3    H124470   4.375   2.873   1.329 -0.1715  0.5172 -0.2900
  945TIP3    H224471   4.235   2.818   1.341 -0.1861  0.6229  0.0343
  946TIP3   OH224472   1.130   4.219   8.597 -0.1178 -0.3128 -0.4251
  946TIP3    H124473   1.142   4.264   8.514  0.1534 -1.4012 -1.0011
  946TIP3    H224474   1.035   4.206   8.604 -0.1935  0.2917 -0.2728
  947TIP3   OH224475   3.734   4.696   0.914  0.2888 -0.4474  0.1115
  947TIP3    H124476   3.681   4.755   0.967  0.5539 -0.1860  0.0923
  947TIP3    H224477   3.766   4.630   0.975 -1.8247 -1.9076 -0.2487
  948TIP3   OH224478   0.562   1.284   1.505  0.1546  0.3796 -0.4069
  948TIP3    H124479   0.509   1.331   1.570  1.8089 -0.3566  1.6224
  948TIP3    H224480   0.615   1.353   1.464  1.2058  0.5964  1.1986
  949TIP3   OH224481   1.242   2.781   0.914  0.7083 -0.1509 -0.2510
  949TIP3    H124482   1.244   2.699   0.864  1.5682 -1.4117  1.7695
  949TIP3    H224483   1.303   2.839   0.868  2.2112 -1.6062 -0.1397
  950TIP3   OH224484   0.795   0.254   7.538 -0.1153 -0.0773 -0.1932
  950TIP3    H124485   0.801   0.211   7.453 -0.5755 -1.3701  0.4167
  950TIP3    H224486   0.724   0.209   7.584 -0.4604  1.1780  0.5590
  951TIP3   OH224487   4.472   3.669   2.552 -0.2362 -0.7287  0.1760
  951TIP3    H124488   4.405   3.721   2.508 -0.6186 -1.8090 -0.5473
  951TIP3    H224489   4.442   3.578   2.544  1.6218 -1.3120 -0.7515
  952TIP3   OH224490   6.579   3.990   1.297 -0.6478  0.1160 -0.3773
  952TIP3    H124491   6.626   4.067   1.266 -2.4208  1.0831 -0.7815
  952TIP3    H224492   6.531   3.959   1.221 -1.6058 -0.1270  0.3112
  953TIP3   OH224493   3.514   2.934   0.983 -0.0958  0.1856  0.1230
  953TIP3    H124494   3.495   2.844   1.008  1.6080  0.1064  1.3315
  953TIP3    H224495   3.428   2.976   0.976 -0.8525 -1.0616  1.4321
  954TIP3   OH224496   0.717   0.629   0.733 -0.1215 -0.0509 -0.5404
  954TIP3    H124497   0.782   0.645   0.664  0.1712  0.5761 -0.1369
  954TIP3    H224498   0.634   0.619   0.687 -0.0801  1.2847 -0.9404
  955TIP3   OH224499   4.254   6.877   8.568 -0.2788 -0.0843 -0.3648
  955TIP3    H124500   4.182   6.815   8.578 -0.5823  0.2242 -0.6235
  955TIP3    H224501   4.213   6.963   8.576 -0.2299  0.1421 -2.2942
  956TIP3   OH224502   5.455   4.038   0.925  0.0214  0.1209 -0.1740
  956TIP3    H124503   5.506   4.094   0.866  1.6588  0.3351  1.3373
  956TIP3    H224504   5.364   4.063   0.910  0.5479  1.5458 -1.1980
  957TIP3   OH224505   1.086   3.271   7.415 -0.1688  0.1410 -0.4078
  957TIP3    H124506   0.997   3.270   7.381 -0.5420  1.0697  0.5007
  957TIP3    H224507   1.114   3.362   7.406  0.7195 -0.1519 -0.7388
  958TIP3   OH224508   1.697   3.306   8.125 -0.5779  0.2415  0.1250
  958TIP3    H124509   1.637   3.289   8.197 -1.4213 -0.9726 -0.7995
  958TIP3    H224510   1.700   3.223   8.077  0.9773  0.6205 -0.4942
  959TIP3   OH224511   5.953   4.789   8.103 -0.5048 -0.4955  0.2522
  959TIP3    H124512   5.895   4.714   8.117 -0.9540  0.0804  1.7555
  959TIP3    H224513   5.928   4.852   8.171  0.5362  0.6068 -0.3311
  960TIP3   OH224514   6.532   0.762   1.739  0.4811  0.4006 -0.4301
  960TIP3    H124515   6.445   0.731   1.761  0.6285 -0.5246 -1.0443
  960TIP3    H224516   6.578   0.683   1.708  1.7134  0.7493  0.4376
  961TIP3   OH224517   3.136   3.966   0.169  0.6859 -0.1549  0.2176
  961TIP3    H124518   3.213   4.002   0.214  0.0250  0.0269  1.2566
  961TIP3    H224519   3.066   4.028   0.191  0.3645  0.0261 -1.2307
  962TIP3   OH224520   5.380   0.215   0.756 -0.1740 -0.1939  0.2690
  962TIP3    H124521   5.450   0.272   0.786 -1.2267  1.9800 -1.1416
  962TIP3    H224522   5.410   0.183   0.671  0.7597 -2.5213  1.3877
  963TIP3   OH224523   0.471   1.537   1.980 -0.5515 -0.7593  0.1090
  963TIP3    H124524   0.532   1.556   1.909 -0.4206  0.5491  0.5315
  963TIP3    H224525   0.390   1.581   1.953 -0.5707 -0.4548  0.6582
  964TIP3   OH224526   5.704   3.394   0.070  0.3064 -0.3957  1.1460
  964TIP3    H124527   5.642   3.463   0.093  0.2530 -0.6661  1.8207
  964TIP3    H224528   5.714   3.401  -0.025  0.2323  0.4802  1.2017
  965TIP3   OH224529   4.951   0.303   8.532  0.1597 -0.0645  0.2463
  965TIP3    H124530   4.986   0.316   8.444 -1.7089  0.2724 -0.4871
  965TIP3    H224531   4.913   0.388   8.555 -0.2114 -0.4292  0.9895
  966TIP3   OH224532   4.412   1.817   7.812  0.1980  0.4896 -0.2567
  966TIP3    H124533   4.422   1.901   7.855  0.8098  0.8428 -1.0615
  966TIP3    H224534   4.323   1.819   7.775 -0.4410  0.0680  1.1795
  967TIP3   OH224535   2.697   3.382   1.616  0.1733  0.1593 -0.3432
  967TIP3    H124536   2.605   3.398   1.636  0.1884  0.9665 -0.8497
  967TIP3    H224537   2.732   3.339   1.694 -0.8690 -1.1450 -0.5626
  968TIP3   OH224538   0.180   2.969   1.690 -0.1167  0.3182 -0.0735
  968TIP3    H124539   0.162   3.061   1.712 -1.1635  0.5388 -1.6483
  968TIP3    H224540   0.096   2.925   1.700  0.0751 -0.1874 -0.6417
  969TIP3   OH224541   4.766   4.884   8.305 -0.3029  0.2082  0.1330
  969TIP3    H124542   4.812   4.836   8.236 -0.8318  2.5273 -1.9949
  969TIP3    H224543   4.690   4.829   8.325  0.2746 -0.8830 -0.5361
  970TIP3   OH224544   0.892   6.812   1.879  0.2063 -0.7039 -0.4706
  970TIP3    H124545   0.865   6.898   1.845  0.2075 -0.7943 -0.7063
  970TIP3    H224546   0.818   6.782   1.931  1.0410  0.4026  1.4304
  971TIP3   OH224547   5.216   2.118   0.702  0.1782 -0.8918  0.1352
  971TIP3    H124548   5.302   2.126   0.743  0.5644 -0.8771 -0.6579
  971TIP3    H224549   5.171   2.051   0.753  0.8109 -1.1920  0.3050
  972TIP3   OH224550   1.127   5.917   0.344  0.0004 -0.2190  0.0830
  972TIP3    H124551   1.062   5.862   0.388  2.8072 -2.9377  1.2228
  972TIP3    H224552   1.165   5.970   0.414  0.6901 -0.4784 -0.0879
  973TIP3   OH224553   4.648   4.400   1.719  0.1555 -0.1389 -0.4452
  973TIP3    H124554   4.741   4.391   1.698  0.2740 -1.7381  0.6463
  973TIP3    H224555   4.647   4.448   1.802  0.0087 -0.3307 -0.3375
  974TIP3   OH224556   3.475   1.242   1.939  0.5573 -0.1889  0.7673
  974TIP3    H124557   3.543   1.175   1.944  1.6358  0.8749  0.9295
  974TIP3    H224558   3.441   1.235   1.850  2.9516  1.1553 -0.3541
  975TIP3   OH224559   5.365   5.289   0.738 -0.3978 -0.4774 -0.0429
  975TIP3    H124560   5.411   5.369   0.763  0.3965 -1.0606  0.3974
  975TIP3    H224561   5.415   5.254   0.664  1.3852 -2.3888  1.9318
  976TIP3   OH224562   3.827   6.825   8.018  0.4394  0.0062 -0.0153
  976TIP3    H124563   3.914   6.851   7.986 -0.0819  1.2690 -0.4621
  976TIP3    H224564   3.818   6.870   8.102  0.4175 -0.5273  0.2686
  977TIP3   OH224565   4.819   4.402   8.562  0.2030 -0.7988  0.2840
  977TIP3    H124566   4.881   4.346   8.609  1.0796  0.3245  0.4969
  977TIP3    H224567   4.830   4.489   8.600 -1.3071 -0.5022  0.1223
  978TIP3   OH224568   5.797   4.686   7.186 -0.1662 -0.1141 -0.7024
  978TIP3    H124569   5.808   4.780   7.178 -0.3188 -0.1443 -1.2827
  978TIP3    H224570   5.884   4.649   7.171  0.3523  0.0359  1.5755
  979TIP3   OH224571   5.595   6.071   1.819 -0.0016  0.2754 -0.0350
  979TIP3    H124572   5.653   6.141   1.848  1.1933 -0.0141 -1.5649
  979TIP3    H224573   5.524   6.116   1.773  0.5510  0.5409 -0.6567
  980TIP3   OH224574   6.623   5.278   6.688  0.1629  0.2914 -0.3649
  980TIP3    H124575   6.589   5.324   6.764  1.4943  1.0899 -0.2136
  980TIP3    H224576   6.713   5.310   6.679  0.4457 -0.7386 -1.5119
  981TIP3   OH224577   6.277   5.704   2.576  0.3621 -0.5831 -0.4697
  981TIP3    H124578   6.252   5.760   2.649 -0.1959 -0.5071 -0.7144
  981TIP3    H224579   6.201   5.648   2.562  0.7732 -1.1472 -0.4725
  982TIP3   OH224580   2.453   5.634   7.138  0.6223  0.3543  0.1006
  982TIP3    H124581   2.394   5.707   7.117 -0.1508  0.1508  1.4931
  982TIP3    H224582   2.488   5.655   7.225  1.5036 -0.2492 -0.0878
  983TIP3   OH224583   1.571   3.467   1.355  0.1237  0.5341 -0.8225
  983TIP3    H124584   1.529   3.518   1.286 -2.3755 -0.0930  0.1475
  983TIP3    H224585   1.513   3.475   1.431  2.6292  0.9671  1.1937
  984TIP3   OH224586   3.051   2.054   7.410 -0.7275 -0.3617 -0.6542
  984TIP3    H124587   3.013   2.000   7.341 -1.2210 -2.1730  0.9579
  984TIP3    H224588   3.091   2.128   7.363 -0.2352 -1.9684 -2.9303
  985TIP3   OH224589   1.418   1.411   8.031 -0.3625  0.5455 -0.6604
  985TIP3    H124590   1.371   1.328   8.021  0.2087  0.1513 -0.2196
  985TIP3    H224591   1.485   1.408   7.963  2.1849 -1.1882  1.6800
  986TIP3   OH224592   6.196   4.357   0.102  1.0660  0.7611 -0.3076
  986TIP3    H124593   6.156   4.333   0.019 -0.8537 -2.2122  1.2889
  986TIP3    H224594   6.288   4.329   0.093  0.5612 -0.7685 -0.9964
  987TIP3   OH224595   4.139   0.757   7.662 -0.4027 -0.7193  0.5586
  987TIP3    H124596   4.166   0.844   7.691  0.4683 -0.4211 -1.0138
  987TIP3    H224597   4.127   0.766   7.568 -0.1812 -2.3332  0.3484
  988TIP3   OH224598   6.855   2.630   8.599 -0.1871 -0.4390  0.1123
  988TIP3    H124599   6.818   2.701   8.651  0.1419 -0.5911  0.5598
  988TIP3    H224600   6.930   2.668   8.555 -1.5961  0.2350 -1.8506
  989TIP3   OH224601   2.913   5.821   7.857  0.1967 -0.1193  0.0808
  989TIP3    H124602   2.870   5.822   7.943  1.7141  1.6008  0.8691
  989TIP3    H224603   3.006   5.817   7.877  0.5477 -1.0363 -1.5545
  990TIP3   OH224604   1.456   5.936   1.103  0.0345  0.0358 -0.3412
  990TIP3    H124605   1.497   5.890   1.176 -1.1076 -0.3973  0.0396
  990TIP3    H224606   1.379   5.884   1.082  0.1066  0.3993 -1.5767
  991TIP3   OH224607   1.790   4.086   8.537 -0.4387  0.3526 -0.3650
  991TIP3    H124608   1.884   4.075   8.522 -0.5689  0.3061 -1.2001
  991TIP3    H224609   1.776   4.055   8.626  0.3359  0.3434 -0.2393
  992TIP3   OH224610   2.762   4.826   0.467 -0.7149 -0.8882  0.4056
  992TIP3    H124611   2.739   4.827   0.560 -0.6502 -2.0893  0.4458
  992TIP3    H224612   2.679   4.838   0.421 -0.6912  0.1576  0.6100
  993TIP3   OH224613   4.339   3.758   0.318 -0.1719  0.4864 -0.4546
  993TIP3    H124614   4.402   3.828   0.303  1.1021 -0.1826  1.3806
  993TIP3    H224615   4.268   3.799   0.367 -0.0618  0.7896 -0.5488
  994TIP3   OH224616   4.322   4.696   1.958 -0.1962  0.0530  0.1748
  994TIP3    H124617   4.309   4.763   2.025  0.0673  0.4284 -0.1468
  994TIP3    H224618   4.261   4.719   1.888  0.3193  0.3152 -0.1990
  995TIP3   OH224619   3.103   4.920   3.027  0.1239 -0.1712  0.6966
  995TIP3    H124620   3.165   4.880   2.966  0.4982  1.0545  0.2406
  995TIP3    H224621   3.059   4.846   3.068  1.0447 -1.0496  0.1566
  996TIP3   OH224622   4.576   0.343   1.465 -0.7479  0.2622  0.1177
  996TIP3    H124623   4.590   0.338   1.560  1.8961 -2.4353 -0.2840
  996TIP3    H224624   4.652   0.391   1.432 -0.4203 -0.8540 -0.8086
  997TIP3   OH224625   6.752   1.715   7.454  0.0865 -0.4348 -0.1463
  997TIP3    H124626   6.766   1.795   7.505 -1.1919  1.0268 -1.9618
  997TIP3    H224627   6.832   1.708   7.401 -1.5160  2.3908 -3.3527
  998TIP3   OH224628   5.025   3.480   6.636  0.0115  0.2042  0.0931
  998TIP3    H124629   5.015   3.574   6.622 -2.2270 -0.0191 -0.2658
  998TIP3    H224630   5.027   3.470   6.731 -0.1425  0.5947  0.1396
  999TIP3   OH224631   2.234   3.842   1.255 -0.7046 -0.2058 -0.4678
  999TIP3    H124632   2.262   3.903   1.323  2.4300 -2.9400  0.9059
  999TIP3    H224633   2.258   3.886   1.173  1.4827  0.4695  0.4657
 1000TIP3   OH224634   1.017   1.195   0.473 -0.0562  1.0073 -0.2717
 1000TIP3    H124635   1.013   1.120   0.414 -0.2904  1.2052 -0.5092
 1000TIP3    H224636   1.110   1.208   0.490  0.1381  1.8784 -1.8115
 1001TIP3   OH224637   5.323   2.918   7.962  0.0813 -0.0034 -0.2838
 1001TIP3    H124638   5.332   2.952   8.051 -0.3881 -1.7487  0.4670
 1001TIP3    H224639   5.390   2.965   7.912 -0.1230  1.5321  0.8068
 1002TIP3   OH224640   0.215   1.492   1.278 -0.0110  0.3830  0.7128
 1002TIP3    H124641   0.125   1.506   1.307 -0.4862 -1.4820  0.2776
 1002TIP3    H224642   0.219   1.399   1.254  2.0520  0.3834  0.7984
 1003TIP3   OH224643   2.912   1.527   6.998  0.1026  0.1306 -0.3352
 1003TIP3    H124644   2.905   1.512   7.092 -1.1564 -1.0504 -0.5936
 1003TIP3    H224645   2.993   1.579   6.988 -1.2706  2.8965  1.6505
 1004TIP3   OH224646   5.189   1.455   1.104 -0.5418 -0.2124 -0.4013
 1004TIP3    H124647   5.108   1.411   1.078 -0.1371 -2.0573  1.2716
 1004TIP3    H224648   5.165   1.507   1.181 -0.3654  0.1967 -0.6161
 1005TIP3   OH224649   3.790   5.854   7.566  0.0735 -0.2286 -0.4435
 1005TIP3    H124650   3.802   5.772   7.615 -0.3042  0.7853  1.4542
 1005TIP3    H224651   3.822   5.922   7.625 -1.3387  1.1676 -1.2075
 1006TIP3   OH224652   4.807   5.084   1.269 -0.3428 -0.6718 -0.1872
 1006TIP3    H124653   4.753   5.008   1.290  0.0707 -1.0881 -0.5996
 1006TIP3    H224654   4.794   5.143   1.343 -0.1939 -1.4097  0.4487
 1007TIP3   OH224655   6.019   1.539   1.813  0.0704 -0.0270  0.1893
 1007TIP3    H124656   6.001   1.633   1.814  0.0116 -0.0010 -1.1829
 1007TIP3    H224657   6.106   1.531   1.851  2.2932  1.1821 -3.9130
 1008TIP3   OH224658   4.433   5.047   8.333  0.0230  0.0172 -0.1005
 1008TIP3    H124659   4.485   4.969   8.316  0.2266  0.5627 -2.3020
 1008TIP3    H224660   4.343   5.014   8.344  0.2638 -0.6051  0.0270
 1009TIP3   OH224661   2.193   0.814   0.440 -0.3975 -0.2700  0.0573
 1009TIP3    H124662   2.218   0.904   0.457  1.3831 -0.3436 -1.7601
 1009TIP3    H224663   2.252   0.762   0.496  0.1679 -0.3337 -0.5846
 1010TIP3   OH224664   6.237   2.976   2.108 -0.0238  0.4009 -0.2103
 1010TIP3    H124665   6.147   3.009   2.102  0.8041  2.5579 -2.1139
 1010TIP3    H224666   6.257   2.980   2.201 -1.3173  1.6237  0.0523
 1011TIP3   OH224667   0.479   2.720   8.158 -0.2897  0.2901 -0.2233
 1011TIP3    H124668   0.398   2.765   8.137 -1.4870 -1.4624  0.3470
 1011TIP3    H224669   0.534   2.731   8.081 -1.3622  0.8735 -0.9275
 1012TIP3   OH224670   1.181   3.339   1.489 -0.3564  0.2727  0.3014
 1012TIP3    H124671   1.189   3.332   1.394 -1.9551  2.6927 -0.1003
 1012TIP3    H224672   1.093   3.305   1.508 -0.3135  0.4420  0.8262
 1013TIP3   OH224673   1.420   4.540   2.156 -0.0691 -0.3913 -0.0176
 1013TIP3    H124674   1.405   4.517   2.247  0.4644 -1.0461 -0.0860
 1013TIP3    H224675   1.343   4.590   2.131 -1.4966 -2.4212  0.0309
 1014TIP3   OH224676   2.006   1.578   0.889  0.0829  0.3667  0.2406
 1014TIP3    H124677   2.000   1.489   0.922 -0.1644 -0.4719 -1.8901
 1014TIP3    H224678   2.067   1.622   0.948 -0.2132 -1.0329  1.6526
 1015TIP3   OH224679   4.748   1.633   0.613  0.2384  0.0698 -0.2721
 1015TIP3    H124680   4.811   1.578   0.567 -0.0494  1.3386 -2.2705
 1015TIP3    H224681   4.663   1.597   0.588  0.0935 -0.3032  0.7076
 1016TIP3   OH224682   5.482   5.456   7.443 -0.7465 -0.1758 -0.1400
 1016TIP3    H124683   5.416   5.445   7.374  0.8002 -0.3686 -1.6813
 1016TIP3    H224684   5.552   5.396   7.418  0.7358  1.2314  0.4683
 1017TIP3   OH224685   3.960   5.910   0.541  0.5889  0.4269 -0.1401
 1017TIP3    H124686   3.973   5.835   0.482 -0.7076 -0.0088  0.1055
 1017TIP3    H224687   3.948   5.984   0.482  0.6973  0.2419 -0.4012
 1018TIP3   OH224688   5.062   2.686   2.861 -0.2847 -0.5523  0.3997
 1018TIP3    H124689   5.036   2.778   2.855 -0.9589 -0.7244  0.6745
 1018TIP3    H224690   4.983   2.640   2.888  0.3103 -1.0797  1.2692
 1019TIP3   OH224691   3.572   2.120   1.682  0.2444  0.2013  0.1290
 1019TIP3    H124692   3.644   2.181   1.697  0.8848  0.0312 -1.9641
 1019TIP3    H224693   3.555   2.124   1.588 -4.0625  1.9299  0.7505
 1020TIP3   OH224694   6.866   6.670   6.785 -0.0693 -0.1049  0.6052
 1020TIP3    H124695   6.848   6.742   6.846  0.0325  0.9455 -0.5779
 1020TIP3    H224696   6.946   6.696   6.740 -0.6501 -0.4115 -0.6473
 1021TIP3   OH224697   4.226   1.387   1.659  0.3553 -0.1358  0.3475
 1021TIP3    H124698   4.151   1.350   1.613 -0.1298 -1.3104  1.9683
 1021TIP3    H224699   4.208   1.480   1.665 -0.3862 -0.2282 -0.3010
 1022TIP3   OH224700   6.849   1.135   7.469  0.0744 -0.1952  0.3890
 1022TIP3    H124701   6.917   1.154   7.404  0.8041  0.3736  1.2976
 1022TIP3    H224702   6.863   1.043   7.491  0.1253 -0.2603  0.0889
 1023TIP3   OH224703   3.137   5.146   7.887  0.2201  0.0926 -0.1358
 1023TIP3    H124704   3.050   5.138   7.848  0.3093 -0.1985 -0.2804
 1023TIP3    H224705   3.143   5.237   7.917 -0.0309  0.1829 -0.3681
 1024TIP3   OH224706   4.894   1.493   8.249 -0.4325  0.4036 -0.4363
 1024TIP3    H124707   4.930   1.520   8.333 -1.3712  0.6340 -0.0890
 1024TIP3    H224708   4.847   1.571   8.217 -0.0298  0.3406 -1.2080
 1025TIP3   OH224709   2.165   5.848   1.201  0.4131  0.6349  0.0543
 1025TIP3    H124710   2.184   5.910   1.131 -0.7020  0.0350 -0.8030
 1025TIP3    H224711   2.201   5.765   1.170  1.0307  0.6180  0.7687
 1026TIP3   OH224712   3.809   4.358   1.653 -0.5963 -0.4034  0.4758
 1026TIP3    H124713   3.732   4.408   1.680  0.0015  0.1258  1.2408
 1026TIP3    H224714   3.880   4.422   1.651 -0.1662 -0.8762 -0.2532
 1027TIP3   OH224715   1.702   6.579   7.290  0.4858 -0.6414 -0.1573
 1027TIP3    H124716   1.609   6.589   7.310  1.1330  0.1351  2.9444
 1027TIP3    H224717   1.714   6.485   7.275 -0.8491 -0.6801 -1.0977
 1028TIP3   OH224718   4.774   2.747   1.357 -0.4609  0.4391 -0.1102
 1028TIP3    H124719   4.694   2.715   1.400 -0.0331  0.4378  0.6920
 1028TIP3    H224720   4.796   2.827   1.405 -0.3147  0.7816 -0.7304
 1029TIP3   OH224721   6.589   5.864   0.037  0.3052 -0.1488  0.2019
 1029TIP3    H124722   6.503   5.828   0.018  0.6391 -1.3735  0.8463
 1029TIP3    H224723   6.576   5.918   0.115 -0.3116  1.6488 -1.1108
 1030TIP3   OH224724   0.871   1.793   7.337  0.0850 -0.9329 -0.3155
 1030TIP3    H124725   0.871   1.701   7.362  0.2063 -1.0400 -0.6913
 1030TIP3    H224726   0.808   1.797   7.264 -0.6363 -0.5428  0.3102
 1031TIP3   OH224727   2.676   5.887   7.747  0.5227  0.2670 -0.4479
 1031TIP3    H124728   2.679   5.886   7.652  0.3186  0.7616 -0.4653
 1031TIP3    H224729   2.763   5.858   7.774  0.6874  0.4412 -0.7873
 1032TIP3   OH224730   2.472   6.071   0.349  0.3141 -0.0510 -0.1381
 1032TIP3    H124731   2.495   6.011   0.278  1.0938  0.9597 -0.7583
 1032TIP3    H224732   2.444   6.014   0.420  0.3253 -1.1197 -0.9669
 1033TIP3   OH224733   4.978   4.202   2.162  0.4083 -0.0633  0.1677
 1033TIP3    H124734   5.060   4.214   2.211  0.3463 -1.8919  0.8113
 1033TIP3    H224735   4.927   4.142   2.217 -2.0260  2.1586  0.5059
 1034TIP3   OH224736   4.405   6.536   6.930  0.3283 -0.4908  0.5843
 1034TIP3    H124737   4.446   6.450   6.941 -0.8178 -1.4793 -2.0481
 1034TIP3    H224738   4.311   6.517   6.923 -0.2245  1.2778  2.2894
 1035TIP3   OH224739   5.499   3.094   7.817 -0.2615 -0.2849  0.1341
 1035TIP3    H124740   5.507   3.126   7.907 -0.6303  2.5683 -0.7186
 1035TIP3    H224741   5.466   3.170   7.768 -2.3961 -2.4125 -1.9993
 1036TIP3   OH224742   3.561   4.138   0.013  0.7616  0.2357 -0.4305
 1036TIP3    H124743   3.628   4.097   0.067 -0.1768 -0.1877  0.4635
 1036TIP3    H224744   3.600   4.220  -0.016  2.0656 -0.5210 -0.8817
 1037TIP3   OH224745   3.200   0.758   7.334  0.5556  0.3686 -0.0641
 1037TIP3    H124746   3.216   0.771   7.241  3.0233  1.5891  0.4517
 1037TIP3    H224747   3.219   0.665   7.349  2.2605  0.6358 -0.4371
 1038TIP3   OH224748   0.589   2.874   2.972  0.2522  0.0587  0.2507
 1038TIP3    H124749   0.509   2.822   2.984  1.4412 -1.6657  1.2704
 1038TIP3    H224750   0.617   2.855   2.883 -0.0137 -0.0386  0.1866
 1039TIP3   OH224751   4.941   4.640   0.003 -0.2212  0.4998  0.4987
 1039TIP3    H124752   4.979   4.668  -0.081 -1.3435  1.8497  0.3957
 1039TIP3    H224753   4.863   4.695   0.013 -2.0443 -1.9757  0.8049
 1040TIP3   OH224754   3.225   5.309   1.765  0.0146 -0.2745  0.3473
 1040TIP3    H124755   3.280   5.326   1.689  0.2647 -1.0459  0.3444
 1040TIP3    H224756   3.276   5.339   1.840  0.1396 -0.3208  0.2800
 1041TIP3   OH224757   5.397   4.593   2.255  0.2381 -0.0901  0.6177
 1041TIP3    H124758   5.432   4.658   2.317  1.2073 -0.4007  0.4109
 1041TIP3    H224759   5.472   4.566   2.203 -0.6378  0.4860 -1.0178
 1042TIP3   OH224760   4.889   4.058   2.395  0.5203  0.8630 -0.0948
 1042TIP3    H124761   4.980   4.032   2.409 -0.0856 -0.8741  0.9760
 1042TIP3    H224762   4.847   3.978   2.363 -1.4476  0.3684  3.2495
 1043TIP3   OH224763   0.609   3.624   1.204  0.3575  0.0814 -0.0809
 1043TIP3    H124764   0.592   3.717   1.190 -0.5416 -0.1908 -0.9919
 1043TIP3    H224765   0.521   3.585   1.211  0.7109 -0.4146  2.4878
 1044TIP3   OH224766   2.601   0.809   0.664 -0.3957  0.2485  0.3696
 1044TIP3    H124767   2.682   0.813   0.716  0.5531  1.2687 -1.0737
 1044TIP3    H224768   2.566   0.898   0.669  0.8533  1.0162 -2.3069
 1045TIP3   OH224769   2.108   4.432   0.177  0.7747  0.4772 -0.1938
 1045TIP3    H124770   2.014   4.453   0.176  1.3168  3.5344  1.8620
 1045TIP3    H224771   2.112   4.342   0.145 -2.7583  0.5461 -1.2474
 1046TIP3   OH224772   2.218   0.675   8.626 -0.4442  0.0084  0.3494
 1046TIP3    H124773   2.295   0.726   8.648 -1.4025  2.2354 -1.0815
 1046TIP3    H224774   2.234   0.589   8.664  2.4957  0.5330  0.4772
 1047TIP3   OH224775   6.825   5.431   0.036  0.6775  1.2311  0.3536
 1047TIP3    H124776   6.840   5.397  -0.053  1.3120  2.6554 -0.1115
 1047TIP3    H224777   6.891   5.389   0.090 -0.2875 -0.3486  0.3613
 1048TIP3   OH224778   3.390   1.697   0.400 -0.1632 -0.6428 -0.9694
 1048TIP3    H124779   3.375   1.737   0.314 -0.1939  2.2069  0.2517
 1048TIP3    H224780   3.330   1.743   0.459  1.9037 -0.4076  1.1007
 1049TIP3   OH224781   6.733   5.367   7.470 -0.2717  0.1184 -0.0711
 1049TIP3    H124782   6.737   5.395   7.561  0.9106 -3.3805  1.1011
 1049TIP3    H224783   6.640   5.349   7.454 -0.2958 -0.7920  1.0080
 1050TIP3   OH224784   0.996   1.551   0.083 -0.0263  0.0809  0.7909
 1050TIP3    H124785   0.987   1.609   0.008  3.1270 -0.8966 -0.5121
 1050TIP3    H224786   0.987   1.608   0.159  0.3682  1.7926 -0.3909
 1051TIP3   OH224787   6.326   3.471   0.436  0.0149  0.3279  0.1749
 1051TIP3    H124788   6.333   3.414   0.359  0.2274 -0.4066  0.7285
 1051TIP3    H224789   6.325   3.559   0.400  1.3262  0.0529 -0.6087
 1052TIP3   OH224790   0.133   4.510   2.034  0.9769  0.1957 -0.3899
 1052TIP3    H124791   0.130   4.417   2.010  1.0459  0.0907 -0.0023
 1052TIP3    H224792   0.164   4.510   2.124 -2.3389  0.3766  0.8866
 1053TIP3   OH224793   3.092   3.001   7.647  0.1090  0.5710 -0.2706
 1053TIP3    H124794   3.086   2.994   7.552  0.4729 -1.7874 -0.1734
 1053TIP3    H224795   3.143   2.925   7.674  2.6160  2.7286  1.6248
 1054TIP3   OH224796   4.524   2.532   7.070  0.2901  0.4248 -0.0794
 1054TIP3    H124797   4.485   2.615   7.043 -0.1039  0.1771 -0.2642
 1054TIP3    H224798   4.470   2.465   7.029  1.8940  0.0764 -1.7586
 1055TIP3   OH224799   6.512   1.759   7.723 -0.7964 -0.1842 -0.0212
 1055TIP3    H124800   6.505   1.819   7.649  0.1913 -1.1399 -0.9287
 1055TIP3    H224801   6.561   1.808   7.789 -0.7337  0.2985 -0.4253
 1056TIP3   OH224802   6.623   6.881   0.806  0.2595  0.3421 -0.2809
 1056TIP3    H124803   6.670   6.935   0.742 -0.7307  0.5777 -0.8472
 1056TIP3    H224804   6.598   6.802   0.757  2.9214 -1.3944  0.9016
 1057TIP3   OH224805   6.352   2.700   7.366 -0.1022  0.2823  0.2030
 1057TIP3    H124806   6.354   2.792   7.340  2.0968  0.1374 -0.4041
 1057TIP3    H224807   6.429   2.690   7.422 -1.9862 -0.5456  2.8503
 1058TIP3   OH224808   6.680   4.306   8.130  0.2037  0.1437  0.3635
 1058TIP3    H124809   6.632   4.332   8.051  0.5170 -0.3490 -0.0009
 1058TIP3    H224810   6.736   4.234   8.100 -0.2292 -0.5537  1.2150
 1059TIP3   OH224811   5.234   0.085   0.931 -0.0136  0.2589  0.0281
 1059TIP3    H124812   5.302   0.057   0.992  0.5968 -0.1234 -0.8121
 1059TIP3    H224813   5.283   0.119   0.856 -0.7288  2.0417  0.3103
 1060TIP3   OH224814   2.668   1.797   6.763  0.2967  0.0768 -0.0746
 1060TIP3    H124815   2.629   1.825   6.680  0.8571 -1.1187 -0.7610
 1060TIP3    H224816   2.760   1.819   6.756  0.1852  0.8082  0.6175
 1061TIP3   OH224817   4.454   6.173   1.509 -1.0781 -0.2587 -0.4842
 1061TIP3    H124818   4.511   6.107   1.548 -0.5883  0.3908 -0.0752
 1061TIP3    H224819   4.369   6.160   1.551 -0.4450  0.7473  1.2454
 1062TIP3   OH224820   0.842   0.301   2.584 -0.6830  0.1190 -0.3211
 1062TIP3    H124821   0.809   0.241   2.652 -1.0449  1.6200  0.8719
 1062TIP3    H224822   0.770   0.308   2.522 -0.3792 -1.2065 -0.8650
 1063TIP3   OH224823   2.507   3.753   2.085  0.8498  0.2058 -0.1764
 1063TIP3    H124824   2.553   3.696   2.146  0.3253 -0.2684 -0.2273
 1063TIP3    H224825   2.499   3.701   2.005 -1.6288 -0.5320  0.4677
 1064TIP3   OH224826   5.985   6.461   0.212 -0.0410 -0.2221 -0.2544
 1064TIP3    H124827   5.906   6.433   0.258 -0.0496  1.4474  0.8479
 1064TIP3    H224828   6.011   6.541   0.258  1.2504  0.2527 -1.7633
 1065TIP3   OH224829   5.167   1.908   1.912 -0.2439  0.5688  0.0416
 1065TIP3    H124830   5.211   1.988   1.942  0.8587  0.5105 -1.2964
 1065TIP3    H224831   5.154   1.922   1.818 -2.3578  0.2081  0.2300
 1066TIP3   OH224832   5.066   6.060   0.071 -0.3802 -0.6586 -0.2620
 1066TIP3    H124833   5.045   6.146   0.108  0.1173 -0.7841  0.3215
 1066TIP3    H224834   5.004   6.000   0.113  0.0826 -0.7768  0.2505
 1067TIP3   OH224835   1.815   0.244   1.718  0.0212  0.1506 -0.5885
 1067TIP3    H124836   1.790   0.188   1.792  0.5441 -1.1776 -1.3775
 1067TIP3    H224837   1.833   0.329   1.758 -0.1760 -0.3942  0.7406
 1068TIP3   OH224838   6.346   3.154   1.319  0.1359 -0.5668  0.1224
 1068TIP3    H124839   6.357   3.128   1.411  1.4582 -0.1621  0.1065
 1068TIP3    H224840   6.432   3.190   1.295 -0.0284 -1.1777 -1.4359
 1069TIP3   OH224841   4.184   4.328   0.673  0.4156 -0.3015  0.6570
 1069TIP3    H124842   4.279   4.344   0.670  0.4066 -0.3692 -0.7837
 1069TIP3    H224843   4.175   4.233   0.668  0.2692 -0.2500 -0.3666
 1070TIP3   OH224844   5.635   5.382   8.007 -0.8641 -0.0551 -0.6271
 1070TIP3    H124845   5.661   5.369   8.098  1.2551 -1.5574 -1.3828
 1070TIP3    H224846   5.708   5.430   7.968 -0.7078 -1.3510 -2.0145
 1071TIP3   OH224847   1.076   6.258   8.068 -0.1088 -0.6032 -0.4654
 1071TIP3    H124848   1.118   6.180   8.103  0.8683 -0.0695 -0.4122
 1071TIP3    H224849   0.993   6.264   8.115  0.3153 -0.9805  0.3472
 1072TIP3   OH224850   3.672   1.871   1.689 -0.3097  0.0513  0.3830
 1072TIP3    H124851   3.667   1.964   1.664 -2.0802  0.0904  0.7059
 1072TIP3    H224852   3.760   1.844   1.664 -0.2149  1.4613 -0.9858
 1073TIP3   OH224853   6.462   5.794   7.074 -0.0115 -0.3094  0.3043
 1073TIP3    H124854   6.431   5.831   7.156 -2.2339  0.8323 -0.9653
 1073TIP3    H224855   6.437   5.857   7.007  0.3146 -1.9140 -1.4373
 1074TIP3   OH224856   6.458   4.595   7.759  0.6074  0.4908  0.0959
 1074TIP3    H124857   6.538   4.581   7.707  1.1644  0.3201  0.9743
 1074TIP3    H224858   6.387   4.587   7.695  1.2099 -0.7242 -0.4650
 1075TIP3   OH224859   5.629   3.648   7.691 -0.1222  0.0184 -0.4732
 1075TIP3    H124860   5.716   3.615   7.713  0.1336  0.5932 -0.6038
 1075TIP3    H224861   5.622   3.731   7.738 -1.0937 -0.6092  0.5383
 1076TIP3   OH224862   0.787   0.357   7.951  0.4660  0.3242 -0.0786
 1076TIP3    H124863   0.700   0.394   7.961  0.7746  0.7265  1.3961
 1076TIP3    H224864   0.807   0.318   8.037  2.2858  1.5098  0.0990
 1077TIP3   OH224865   2.690   3.106   0.383  0.4491  0.4207  0.0476
 1077TIP3    H124866   2.687   3.201   0.381 -1.1052  0.3872 -0.0465
 1077TIP3    H224867   2.639   3.081   0.460  0.6631 -0.3413 -0.0481
 1078TIP3   OH224868   5.228   1.225   1.985  0.2401 -0.2501 -0.6445
 1078TIP3    H124869   5.218   1.205   2.078 -0.4628  0.4783 -0.5519
 1078TIP3    H224870   5.230   1.321   1.982  0.9523 -0.2759 -1.3194
 1079TIP3   OH224871   4.282   5.813   8.064  0.1740  0.0179  0.8188
 1079TIP3    H124872   4.332   5.776   8.137 -0.7746 -2.0532  0.5055
 1079TIP3    H224873   4.329   5.892   8.040  1.7452 -0.4153  2.2515
 1080TIP3   OH224874   5.650   5.010   1.957 -0.1165  0.2170 -0.0522
 1080TIP3    H124875   5.663   4.996   1.863  0.5165  0.9946 -0.0896
 1080TIP3    H224876   5.593   4.938   1.984 -2.1726  1.2149 -1.4647
 1081TIP3   OH224877   2.957   2.147   8.061 -0.3209  0.2782  0.6754
 1081TIP3    H124878   2.951   2.052   8.057  0.8880  0.1264  1.5151
 1081TIP3    H224879   3.027   2.169   7.999  0.1001  0.4995  1.2162
 1082TIP3   OH224880   5.040   6.414   7.179 -0.2806 -0.3834 -0.1379
 1082TIP3    H124881   4.964   6.366   7.149 -1.0585  0.3476  0.6083
 1082TIP3    H224882   5.107   6.397   7.113 -1.2099 -0.7022 -1.0174
 1083TIP3   OH224883   6.232   1.685   1.600  0.0027 -0.3338 -0.1767
 1083TIP3    H124884   6.271   1.761   1.643 -1.1258 -0.2842  0.8266
 1083TIP3    H224885   6.280   1.610   1.634 -1.6977 -0.4209  2.3064
 1084TIP3   OH224886   2.362   3.983   2.156  0.2680  0.0754 -0.6337
 1084TIP3    H124887   2.413   3.905   2.133 -2.1031 -1.7688 -0.0738
 1084TIP3    H224888   2.284   3.978   2.100  0.1612  2.2247 -0.7543
 1085TIP3   OH224889   4.749   5.666   7.688  0.0775 -0.1567  0.3311
 1085TIP3    H124890   4.721   5.587   7.734  2.8128 -1.3134  0.2579
 1085TIP3    H224891   4.762   5.731   7.757  1.1641 -0.9130  0.8736
 1086TIP3   OH224892   2.457   2.271   6.827 -0.0854  0.4085 -0.4564
 1086TIP3    H124893   2.463   2.220   6.908  1.9653  0.9886 -0.1721
 1086TIP3    H224894   2.380   2.236   6.782 -1.9162  0.7653  2.1763
 1087TIP3   OH224895   0.160   5.750   0.931 -0.2845 -0.0680  0.5486
 1087TIP3    H124896   0.117   5.665   0.927 -1.9518  0.7562 -0.4774
 1087TIP3    H224897   0.216   5.753   0.853  0.9369 -0.7596  1.3655
 1088TIP3   OH224898   3.754   4.438   2.970 -0.0226  0.3459  0.0171
 1088TIP3    H124899   3.704   4.360   2.948 -1.5334  1.4349 -0.5364
 1088TIP3    H224900   3.727   4.460   3.059 -0.4413  0.8632 -0.2349
 1089TIP3   OH224901   2.684   5.514   7.036  0.2371 -0.2628 -0.3028
 1089TIP3    H124902   2.592   5.543   7.040 -0.1415 -1.4656 -0.0467
 1089TIP3    H224903   2.690   5.466   6.954  0.8523  0.4506 -0.6918
 1090TIP3   OH224904   6.196   6.092   0.269  0.3511 -0.3648 -0.2398
 1090TIP3    H124905   6.153   6.007   0.277  0.6659 -0.4726  0.4181
 1090TIP3    H224906   6.157   6.146   0.338 -0.9873  0.5431 -1.6394
 1091TIP3   OH224907   5.636   2.113   2.587  0.1971  0.0967  0.3217
 1091TIP3    H124908   5.723   2.137   2.620  0.2785  0.4458 -0.1520
 1091TIP3    H224909   5.575   2.158   2.645  0.2997 -1.0529  1.3792
 1092TIP3   OH224910   5.116   1.272   8.466  0.1957 -0.2968 -0.1694
 1092TIP3    H124911   5.115   1.367   8.453  1.0386 -0.2372  0.1110
 1092TIP3    H224912   5.080   1.260   8.554  2.1021 -0.0361  0.7047
 1093TIP3   OH224913   3.565   3.712   8.191  0.5079  0.3380 -0.4237
 1093TIP3    H124914   3.563   3.622   8.223  1.3972 -0.1859 -1.7527
 1093TIP3    H224915   3.475   3.743   8.200  0.6774  0.2148  2.4357
 1094TIP3   OH224916   5.011   2.993   8.130 -0.4585  0.0053 -0.5906
 1094TIP3    H124917   5.104   2.990   8.152 -0.3310 -1.5423 -1.2002
 1094TIP3    H224918   5.009   3.020   8.039 -0.7841  2.6001  0.1155
 1095TIP3   OH224919   5.643   3.404   8.421  0.2909  0.3477  0.0609
 1095TIP3    H124920   5.643   3.419   8.326 -0.3892 -0.3751 -0.0643
 1095TIP3    H224921   5.551   3.413   8.447  0.2088 -1.0694  0.3690
 1096TIP3   OH224922   6.339   4.417   0.502  0.8909  0.0437  0.3513
 1096TIP3    H124923   6.327   4.332   0.460 -0.4608 -0.8220  2.3356
 1096TIP3    H224924   6.417   4.407   0.556  1.0475  0.2417  0.1618
 1097TIP3   OH224925   3.525   0.119   0.054  0.6804 -0.1033  0.0669
 1097TIP3    H124926   3.513   0.212   0.072 -1.0039  0.0645 -1.6065
 1097TIP3    H224927   3.442   0.079   0.079  0.4699 -0.7409 -1.5302
 1098TIP3   OH224928   1.539   1.855   0.697 -0.4498  0.8493 -0.0582
 1098TIP3    H124929   1.470   1.824   0.639  0.8827  0.9078 -1.7735
 1098TIP3    H224930   1.533   1.950   0.693  0.4168  0.8821 -1.1554
 1099TIP3   OH224931   6.678   3.768   0.181  0.3424  0.3560 -0.2913
 1099TIP3    H124932   6.707   3.748   0.270  0.5537 -0.3737 -0.5135
 1099TIP3    H224933   6.662   3.682   0.141  1.0049  0.6353 -1.2017
 1100TIP3   OH224934   1.911   1.852   2.540 -0.4886  0.0887 -0.5533
 1100TIP3    H124935   1.904   1.929   2.596  0.5499 -0.4136  0.3025
 1100TIP3    H224936   1.836   1.798   2.565 -0.3606  0.1333 -0.0551
 1101TIP3   OH224937   3.906   5.921   2.033 -0.5890 -0.0934  0.2356
 1101TIP3    H124938   3.895   5.828   2.054 -1.2258  0.0433  0.5459
 1101TIP3    H224939   3.820   5.960   2.051 -1.5007 -0.0973 -3.3472
 1102TIP3   OH224940   3.119   5.723   7.217 -0.0901  0.1271 -0.4787
 1102TIP3    H124941   3.144   5.678   7.136  0.4100  0.4017 -0.4823
 1102TIP3    H224942   3.163   5.808   7.212 -0.5245  0.3730 -0.1845
 1103TIP3   OH224943   5.082   4.691   0.529  0.2587 -0.3849  0.1998
 1103TIP3    H124944   5.115   4.776   0.557 -0.4667 -0.2073  0.5297
 1103TIP3    H224945   4.990   4.706   0.508  0.1408 -1.0728  0.1941
 1104TIP3   OH224946   5.269   5.344   1.582 -0.0883  0.1027 -0.0619
 1104TIP3    H124947   5.213   5.282   1.629 -0.4061  0.5621  0.1692
 1104TIP3    H224948   5.351   5.296   1.567  0.2556  0.1422  1.5100
 1105TIP3   OH224949   4.132   4.142   8.014  0.2033 -0.4216  0.2775
 1105TIP3    H124950   4.221   4.109   8.000  0.7030 -0.7827  3.4678
 1105TIP3    H224951   4.075   4.066   8.001  0.7217 -1.0162  1.3478
 1106TIP3   OH224952   5.284   5.814   1.778  0.1071  0.1700 -0.0831
 1106TIP3    H124953   5.359   5.841   1.725 -0.0297  0.8927  0.0801
 1106TIP3    H224954   5.234   5.894   1.791  0.0713 -0.0141  1.0372
 1107TIP3   OH224955   3.747   2.207   0.885  0.0007 -0.0160  0.7095
 1107TIP3    H124956   3.736   2.112   0.886  1.6909 -0.2392  0.6344
 1107TIP3    H224957   3.762   2.228   0.793 -2.7763  0.6973  0.3115
 1108TIP3   OH224958   1.925   6.551   7.519 -0.3631 -0.4271  0.0993
 1108TIP3    H124959   1.959   6.565   7.431 -1.2147 -1.5250 -0.4455
 1108TIP3    H224960   1.852   6.613   7.527  0.2375  0.2572  0.3640
 1109TIP3   OH224961   2.266   2.374   8.412 -0.1758  0.4157 -0.5404
 1109TIP3    H124962   2.331   2.436   8.446  1.4043 -1.4877  0.1433
 1109TIP3    H224963   2.316   2.319   8.352 -1.0479 -1.3341  0.2819
 1110TIP3   OH224964   5.398   0.454   8.268  0.6647 -0.6897  0.1416
 1110TIP3    H124965   5.427   0.363   8.261 -0.3331 -1.0207  0.1646
 1110TIP3    H224966   5.358   0.473   8.183 -2.1734 -1.3907  1.2146
 1111TIP3   OH224967   0.305   2.227   2.151 -0.5119  0.9379  0.3133
 1111TIP3    H124968   0.216   2.248   2.126 -0.9872 -0.5389  0.6364
 1111TIP3    H224969   0.298   2.193   2.240  0.3109  0.4101  0.1950
 1112TIP3   OH224970   2.544   6.190   7.757  0.2064  0.7357  0.0279
 1112TIP3    H124971   2.611   6.144   7.807 -0.6762  0.6147  1.1440
 1112TIP3    H224972   2.586   6.272   7.730  1.3874 -0.1429 -0.9115
 1113TIP3   OH224973   0.732   0.714   7.117 -0.3819 -0.5174 -0.2478
 1113TIP3    H124974   0.656   0.713   7.060  0.0423  1.2369 -0.9264
 1113TIP3    H224975   0.797   0.766   7.069  1.4015 -2.2667  0.1331
 1114TIP3   OH224976   6.670   6.173   8.312  0.0619  0.1501 -0.3963
 1114TIP3    H124977   6.658   6.267   8.298  1.1338  0.1675 -1.4340
 1114TIP3    H224978   6.647   6.133   8.228  1.0153 -0.3620 -0.4273
 1115TIP3   OH224979   4.724   2.871   3.006  0.3348  0.1850 -0.3494
 1115TIP3    H124980   4.756   2.904   3.090  1.8367  0.0091 -0.8186
 1115TIP3    H224981   4.688   2.784   3.026 -1.6494  1.1312  0.5091
 1116TIP3   OH224982   6.212   1.005   8.528 -0.0796  0.3685  0.4549
 1116TIP3    H124983   6.149   0.949   8.480 -1.9293  1.4915  1.4519
 1116TIP3    H224984   6.295   0.958   8.522 -1.6310 -2.8468  1.7410
 1117TIP3   OH224985   3.930   2.900   2.884 -0.2186  0.1291 -0.2424
 1117TIP3    H124986   3.952   2.825   2.939 -1.2787  0.1483  0.2361
 1117TIP3    H224987   3.850   2.936   2.924  0.3615  1.6147 -0.3413
 1118TIP3   OH224988   5.905   6.409   0.641  0.7182  0.1357 -0.5790
 1118TIP3    H124989   5.834   6.428   0.580  0.1798  2.0950  0.5795
 1118TIP3    H224990   5.936   6.495   0.670  1.7496 -0.7176  1.0153
 1119TIP3   OH224991   4.778   2.109   6.986  0.3864  0.1457  0.1931
 1119TIP3    H124992   4.721   2.186   6.996 -1.2280 -1.1368  1.5564
 1119TIP3    H224993   4.782   2.071   7.074  1.3402 -1.2043 -0.3932
 1120TIP3   OH224994   5.269   5.895   0.161  0.2040  0.0126  0.0769
 1120TIP3    H124995   5.205   5.948   0.114  1.2945 -1.0013 -2.8004
 1120TIP3    H224996   5.218   5.846   0.226 -1.7092  0.2451 -1.1884
 1121TIP3   OH224997   3.264   1.486   7.522 -0.5622 -0.0721  0.1356
 1121TIP3    H124998   3.204   1.548   7.562  0.0001  0.8241 -0.3698
 1121TIP3    H224999   3.347   1.500   7.569 -0.3901 -0.3230 -0.0916
 1122TIP3   OH225000   6.106   0.360   1.204  0.1829 -0.8307  0.2222
 1122TIP3    H125001   6.116   0.326   1.115  1.1392  1.3216 -0.5403
 1122TIP3    H225002   6.030   0.418   1.200  0.6003 -0.2484  0.6667
 1123TIP3   OH225003   6.427   1.509   1.328 -0.0699  0.1674 -0.2749
 1123TIP3    H125004   6.340   1.529   1.294  0.4080 -0.9439 -2.3145
 1123TIP3    H225005   6.447   1.421   1.294  0.5264 -1.0604  2.8835
 1124TIP3   OH225006   2.259   2.465   3.050  0.2441 -0.1140  0.2935
 1124TIP3    H125007   2.262   2.477   2.955 -1.6676  3.0337  0.5118
 1124TIP3    H225008   2.310   2.537   3.085  1.5052 -1.6373  1.7124
 1125TIP3   OH225009   3.305   4.758   2.146 -0.2248  0.7240 -0.1396
 1125TIP3    H125010   3.267   4.727   2.228  0.3258  0.3407 -0.0224
 1125TIP3    H225011   3.249   4.722   2.078 -0.2438  0.4115  0.0421
 1126TIP3   OH225012   2.741   4.555   8.202 -0.8664  0.1518  0.1781
 1126TIP3    H125013   2.700   4.556   8.288 -0.7247  1.4064  0.2592
 1126TIP3    H225014   2.743   4.647   8.175  0.4151 -0.0428 -0.5181
 1127TIP3   OH225015   1.852   4.644   8.295 -0.0869 -0.4882  0.1662
 1127TIP3    H125016   1.780   4.598   8.250 -0.6331  1.8496 -1.5404
 1127TIP3    H225017   1.808   4.707   8.352  0.6133 -0.0908  0.2743
 1128TIP3   OH225018   0.048   4.421   1.215 -0.1338  0.5750 -0.0393
 1128TIP3    H125019   0.077   4.330   1.213  0.7491  0.8499 -0.2405
 1128TIP3    H225020   0.066   4.451   1.304 -0.5249  0.5274  0.0590
 1129TIP3   OH225021   1.679   5.996   8.573 -0.2203 -0.0767 -0.0874
 1129TIP3    H125022   1.734   5.968   8.645  1.2825  1.6860 -0.4655
 1129TIP3    H225023   1.686   5.925   8.509  0.7959 -0.3539  0.3028
 1130TIP3   OH225024   4.929   6.377   8.520 -0.5174  0.1399 -0.4673
 1130TIP3    H125025   4.881   6.439   8.574  0.7401  0.6688  0.0998
 1130TIP3    H225026   4.917   6.293   8.564  0.1276  0.4929  0.4247
 1131TIP3   OH225027   2.852   4.695   2.887 -0.0401  0.7204 -0.5609
 1131TIP3    H125028   2.856   4.735   2.974 -1.4675 -1.2782  0.5287
 1131TIP3    H225029   2.938   4.657   2.874 -0.2254 -0.1688  0.6570
 1132TIP3   OH225030   3.661   0.628   8.472  1.0160 -0.3767  0.4374
 1132TIP3    H125031   3.672   0.619   8.377  0.7806 -0.3248  0.4045
 1132TIP3    H225032   3.602   0.703   8.482  2.3416  0.6678  0.6736
 1133TIP3   OH225033   4.799   3.705   8.403  0.1672 -0.4477  0.0826
 1133TIP3    H125034   4.873   3.679   8.458  2.0144  3.5541 -0.1735
 1133TIP3    H225035   4.722   3.692   8.458  1.1807 -2.8339  1.0735
 1134TIP3   OH225036   2.924   5.662   6.489  0.6744 -0.2598 -0.0630
 1134TIP3    H125037   3.009   5.650   6.447  0.3019 -0.0856 -0.9000
 1134TIP3    H225038   2.937   5.732   6.553  0.8457  0.7374 -1.1602
 1135TIP3   OH225039   2.301   0.960   7.313 -0.5157  0.0513  0.3627
 1135TIP3    H125040   2.221   0.993   7.271 -0.1574 -1.1494 -1.3351
 1135TIP3    H225041   2.368   1.023   7.288 -0.3339 -0.5811 -0.7612
 1136TIP3   OH225042   1.560   6.510   2.213 -0.5448 -0.4063 -0.3131
 1136TIP3    H125043   1.549   6.458   2.293  2.0170 -2.6106 -1.2418
 1136TIP3    H225044   1.607   6.588   2.242 -1.7407  0.0082  0.6315
 1137TIP3   OH225045   6.479   1.752   0.534 -0.0226 -0.0490 -0.3979
 1137TIP3    H125046   6.547   1.731   0.470  0.4915  3.0933 -1.0532
 1137TIP3    H225047   6.423   1.675   0.536  1.2659 -1.1580 -2.9026
 1138TIP3   OH225048   0.072   0.232   7.665 -0.0745 -0.6177  0.1894
 1138TIP3    H125049   0.049   0.196   7.751  1.7194  0.1880  1.0598
 1138TIP3    H225050   0.051   0.325   7.672 -0.4933 -0.6577 -0.4810
 1139TIP3   OH225051   3.738   0.307   8.005  0.9013 -0.4042 -0.4785
 1139TIP3    H125052   3.686   0.328   7.927  0.5741  0.1585 -0.1194
 1139TIP3    H225053   3.813   0.365   8.000  1.2138 -0.8247 -0.7063
 1140TIP3   OH225054   5.470   3.692   0.725 -0.3434 -0.1375  0.5328
 1140TIP3    H125055   5.415   3.756   0.770  0.5046  1.5525 -0.7112
 1140TIP3    H225056   5.509   3.742   0.653 -0.6756 -2.3933 -1.3094
 1141TIP3   OH225057   4.003   5.588   8.636  0.1441  0.5315  0.3907
 1141TIP3    H125058   4.085   5.616   8.595 -0.3441  5.6015  2.1034
 1141TIP3    H225059   3.936   5.604   8.569  0.1496  1.0987  0.5096
 1142TIP3   OH225060   2.874   5.757   1.584  0.3298  0.6089  0.1293
 1142TIP3    H125061   2.942   5.696   1.557  0.0751  0.4326 -0.1130
 1142TIP3    H225062   2.889   5.769   1.678  0.2274 -0.0121  0.2275
 1143TIP3   OH225063   4.238   6.489   0.030  0.1129 -0.6859  0.1855
 1143TIP3    H125064   4.246   6.495  -0.066 -0.2484 -1.0283  0.1295
 1143TIP3    H225065   4.249   6.579   0.060 -1.1623 -0.3317 -0.3063
 1144TIP3   OH225066   5.474   0.803   0.090 -0.0362 -0.8223  0.1991
 1144TIP3    H125067   5.497   0.725   0.139  0.2481 -0.2750  0.9559
 1144TIP3    H225068   5.511   0.875   0.140 -1.8188 -0.0466  0.4773
 1145TIP3   OH225069   2.955   6.529   1.239  0.0903 -0.3694 -0.0563
 1145TIP3    H125070   3.012   6.521   1.162  0.5132 -1.8108  0.3639
 1145TIP3    H225071   2.901   6.450   1.235 -0.2155 -0.2093  0.8636
 1146TIP3   OH225072   1.472   1.421   2.974 -0.2568 -0.1941 -0.4180
 1146TIP3    H125073   1.479   1.471   2.893 -0.2786 -0.5456 -0.6370
 1146TIP3    H225074   1.544   1.454   3.028  0.3353 -0.6071 -0.9329
 1147TIP3   OH225075   1.539   0.637   0.497 -0.1066 -0.2647 -0.4558
 1147TIP3    H125076   1.487   0.617   0.418 -1.0264  0.9826 -0.1886
 1147TIP3    H225077   1.478   0.623   0.569 -0.1036  1.2689 -0.1359
 1148TIP3   OH225078   1.395   0.883   7.699 -0.4594 -0.2043  0.3791
 1148TIP3    H125079   1.442   0.964   7.720  0.3834 -0.6844  0.4110
 1148TIP3    H225080   1.332   0.908   7.632  1.2068  0.0886 -1.1485
 1149TIP3   OH225081   4.724   6.402   0.420 -0.1035 -0.8029  0.0765
 1149TIP3    H125082   4.681   6.349   0.487  0.8409 -1.6754  0.0222
 1149TIP3    H225083   4.722   6.348   0.341 -0.6878 -0.0232 -0.4562
 1150TIP3   OH225084   3.074   4.047   2.150 -0.0312  0.3552 -0.1623
 1150TIP3    H125085   3.145   4.033   2.087  0.7524 -1.7778  1.0938
 1150TIP3    H225086   2.998   4.068   2.096  1.1329  0.8639 -1.6652
 1151TIP3   OH225087   6.152   3.427   8.296 -0.9723 -0.0763 -0.0905
 1151TIP3    H125088   6.072   3.469   8.266 -0.9823 -0.7473 -1.0329
 1151TIP3    H225089   6.128   3.335   8.308 -0.2227 -0.3801 -0.8595
 1152TIP3   OH225090   3.846   5.186   2.002 -0.0171  0.6101 -0.2077
 1152TIP3    H125091   3.892   5.110   1.966 -0.8452 -0.1617  0.3413
 1152TIP3    H225092   3.820   5.159   2.090 -1.5102  1.0321 -0.4948
 1153TIP3   OH225093   2.860   0.526   8.432 -0.1539 -0.0903  0.5426
 1153TIP3    H125094   2.882   0.564   8.346 -0.6011  1.4242  1.0558
 1153TIP3    H225095   2.944   0.506   8.472  0.0916  0.0954  0.1257
 1154TIP3   OH225096   3.217   5.329   7.619  0.3119  0.4359  0.0195
 1154TIP3    H125097   3.310   5.316   7.601  0.0518  1.2286 -2.1855
 1154TIP3    H225098   3.200   5.421   7.598 -0.9368  0.3618  0.5733
 1155TIP3   OH225099   0.669   5.077   1.455  0.1741 -0.5189 -0.1497
 1155TIP3    H125100   0.588   5.053   1.410 -0.3447  0.3244  0.3122
 1155TIP3    H225101   0.734   5.084   1.385  0.2334 -2.6216 -0.3896
 1156TIP3   OH225102   5.472   2.738   1.180  0.6106 -0.6455  0.2967
 1156TIP3    H125103   5.554   2.690   1.188  1.0011 -0.0895 -0.3333
 1156TIP3    H225104   5.496   2.830   1.195 -0.3009 -0.6998  2.6527
 1157TIP3   OH225105   6.492   0.396   0.431 -0.7785  0.1221  0.0737
 1157TIP3    H125106   6.477   0.305   0.455 -0.0120 -0.0540 -0.1113
 1157TIP3    H225107   6.514   0.393   0.338  0.8013  0.3280  0.4243
 1158TIP3   OH225108   1.729   6.428   0.404 -0.0001 -0.1534 -0.3524
 1158TIP3    H125109   1.819   6.462   0.406  0.0991 -0.3629 -0.9718
 1158TIP3    H225110   1.694   6.449   0.491  1.5898 -2.6468  1.0064
 1159TIP3   OH225111   2.203   0.081   1.303 -0.0473  0.1682  0.1012
 1159TIP3    H125112   2.130   0.143   1.297 -2.4642 -2.1265  2.4708
 1159TIP3    H225113   2.184   0.016   1.235  0.5566  0.2566 -0.1529
 1160TIP3   OH225114   3.185   4.129   1.728 -0.0939  0.8204  0.3805
 1160TIP3    H125115   3.176   4.224   1.736  0.4987  0.9231 -0.0789
 1160TIP3    H225116   3.278   4.115   1.713 -0.0824  0.1095  1.0831
 1161TIP3   OH225117   2.135   2.596   0.665 -0.3181  0.3657  0.0606
 1161TIP3    H125118   2.155   2.585   0.758 -0.5367  0.1081  0.0799
 1161TIP3    H225119   2.164   2.515   0.624 -1.6708 -0.1949  0.1560
 1162TIP3   OH225120   6.077   5.136   1.201  0.5130  0.5270 -0.1934
 1162TIP3    H125121   6.104   5.098   1.117  0.6585  1.1549 -0.4339
 1162TIP3    H225122   6.122   5.083   1.266 -0.3540 -0.5813 -0.4692
 1163TIP3   OH225123   6.125   1.502   8.015 -0.2248  0.1549  0.4260
 1163TIP3    H125124   6.195   1.440   8.035 -0.8411  0.2089  3.1441
 1163TIP3    H225125   6.098   1.536   8.100 -1.6199  2.2989 -0.7781
 1164TIP3   OH225126   4.037   5.526   7.500 -0.3821 -0.0939 -0.1184
 1164TIP3    H125127   3.947   5.516   7.467 -0.7074  2.9184 -0.4259
 1164TIP3    H225128   4.085   5.454   7.460 -2.2677 -0.7302 -1.3988
 1165TIP3   OH225129   1.764   5.578   8.214  0.4397  0.4215 -0.1548
 1165TIP3    H125130   1.698   5.543   8.154 -0.2445  0.2972  0.6644
 1165TIP3    H225131   1.799   5.655   8.169  1.4501 -0.8589 -1.6730
 1166TIP3   OH225132   2.478   5.392   7.280  0.1174 -0.1130  0.0983
 1166TIP3    H125133   2.430   5.324   7.232 -3.9396  1.6092  1.2238
 1166TIP3    H225134   2.483   5.465   7.218 -4.7522  1.9600  1.6389
 1167TIP3   OH225135   1.570   1.574   1.362  0.1652 -0.5330  0.5491
 1167TIP3    H125136   1.559   1.638   1.291 -1.9114 -1.2562  0.1264
 1167TIP3    H225137   1.531   1.616   1.439 -0.2006 -0.8444  0.5388
 1168TIP3   OH225138   0.273   5.481   8.005  0.6762 -0.0542  0.1963
 1168TIP3    H125139   0.335   5.528   8.061 -0.0845 -1.3928  2.3051
 1168TIP3    H225140   0.187   5.507   8.039  0.1156  0.2753 -1.4011
 1169TIP3   OH225141   6.738   6.767   1.295 -0.3291  0.6170 -0.1091
 1169TIP3    H125142   6.718   6.818   1.216  0.7254 -0.0886 -0.8544
 1169TIP3    H225143   6.834   6.760   1.295 -0.2867  0.8417  1.4017
 1170TIP3   OH225144   5.143   3.756   8.156 -0.2787 -0.1129 -0.2781
 1170TIP3    H125145   5.116   3.667   8.132 -0.3681 -0.3805  0.7847
 1170TIP3    H225146   5.228   3.767   8.114 -1.3635  0.2545 -2.5601
 1171TIP3   OH225147   1.867   4.224   2.368  0.3752 -0.1351  0.0681
 1171TIP3    H125148   1.789   4.197   2.416  1.0283 -0.5558  0.9400
 1171TIP3    H225149   1.920   4.144   2.362  0.4175 -0.0313 -1.1613
 1172TIP3   OH225150   1.751   2.816   1.258 -0.3327 -0.2235 -0.1838
 1172TIP3    H125151   1.832   2.830   1.305 -0.7074 -1.3546  0.8374
 1172TIP3    H225152   1.687   2.872   1.303 -1.0204 -2.3444  1.6582
 1173TIP3   OH225153   4.877   0.726   0.592 -0.2949  0.3477 -0.2440
 1173TIP3    H125154   4.848   0.719   0.682 -0.1460 -0.3529 -0.2374
 1173TIP3    H225155   4.925   0.808   0.587  1.9011 -0.7831  0.9760
 1174TIP3   OH225156   5.340   4.853   8.528 -0.1096  0.0926 -0.2318
 1174TIP3    H125157   5.377   4.826   8.612 -0.0367  1.5829  0.2411
 1174TIP3    H225158   5.416   4.861   8.470  0.0236  0.5311 -0.0051
 1175TIP3   OH225159   3.957   5.274   0.853 -0.2077  0.1308 -0.0605
 1175TIP3    H125160   3.903   5.347   0.822  0.0250  1.4420  2.3861
 1175TIP3    H225161   3.996   5.306   0.934  0.1505 -2.6304  0.9570
 1176TIP3   OH225162   4.280   4.312   2.034 -0.1302  0.1743 -0.0085
 1176TIP3    H125163   4.283   4.217   2.022  0.0907  0.2495 -0.6057
 1176TIP3    H225164   4.337   4.329   2.108 -1.2344 -0.2865  0.9802
 1177TIP3   OH225165   0.840   5.933   0.051  0.1493  0.1024 -0.5484
 1177TIP3    H125166   0.925   5.911   0.013 -0.1639 -3.4927  0.4465
 1177TIP3    H225167   0.859   5.952   0.143 -0.1609 -2.1694  0.0472
 1178TIP3   OH225168   5.195   0.863   1.031  0.3211  0.4578  0.0721
 1178TIP3    H125169   5.214   0.838   1.121 -0.5870  0.6134  0.3143
 1178TIP3    H225170   5.251   0.806   0.978  2.8760  2.1439  0.7580
 1179TIP3   OH225171   5.642   4.829   7.512  0.2030 -1.0606  0.2113
 1179TIP3    H125172   5.681   4.780   7.584  2.7399 -1.3497 -1.2589
 1179TIP3    H225173   5.623   4.915   7.548  0.4428 -1.5274  1.4852
 1180TIP3   OH225174   3.094   2.793   7.921  0.7366  0.6408  0.0885
 1180TIP3    H125175   3.079   2.879   7.961 -0.3866  1.7999 -2.5914
 1180TIP3    H225176   3.017   2.742   7.945 -0.4422  1.6707 -1.3787
 1181TIP3   OH225177   1.035   3.922   1.856 -0.0658  0.3109 -0.0660
 1181TIP3    H125178   1.037   4.008   1.897  0.7615  0.0070  0.5562
 1181TIP3    H225179   0.996   3.865   1.922 -0.9608  0.2762 -0.6193
 1182TIP3   OH225180   5.008   3.858   1.535 -0.1247  0.4274  0.0630
 1182TIP3    H125181   5.000   3.770   1.572 -1.1501 -0.0297 -1.1732
 1182TIP3    H225182   4.923   3.898   1.550  0.0073  0.8473 -0.2899
 1183TIP3   OH225183   2.507   2.121   7.077 -0.7154 -0.5059 -0.1465
 1183TIP3    H125184   2.560   2.044   7.057 -1.0369 -0.6768 -0.3619
 1183TIP3    H225185   2.540   2.153   7.161  0.8718  0.4009 -1.0738
 1184TIP3   OH225186   2.868   3.298   0.547 -0.3375  0.5365 -0.5751
 1184TIP3    H125187   2.941   3.359   0.560 -0.6023  0.6111  0.6526
 1184TIP3    H225188   2.801   3.350   0.502  0.5996  0.2779 -2.3572
 1185TIP3   OH225189   3.616   1.629   0.125 -0.6354 -1.1142  0.5079
 1185TIP3    H125190   3.607   1.583   0.041  1.1130 -0.2395 -0.2127
 1185TIP3    H225191   3.528   1.659   0.146 -1.2533 -2.0728 -0.5883
 1186TIP3   OH225192   5.657   2.438   0.040 -0.3992 -0.2310 -0.4791
 1186TIP3    H125193   5.708   2.518   0.030  0.7727 -1.0791 -1.5185
 1186TIP3    H225194   5.576   2.455  -0.008 -0.1505  0.3181 -0.7112
 1187TIP3   OH225195   0.023   1.571   1.488 -0.1964  0.1127 -0.6872
 1187TIP3    H125196   0.025   1.508   1.560  0.0466  1.6814  0.7519
 1187TIP3    H225197  -0.010   1.652   1.528 -0.3119  0.9672 -2.4138
 1188TIP3   OH225198   5.319   2.973   8.475  0.1629  0.6572  0.0381
 1188TIP3    H125199   5.264   2.897   8.495  0.4094  0.8518  1.5402
 1188TIP3    H225200   5.407   2.947   8.500  0.8022  0.4012 -2.2260
 1189TIP3   OH225201   4.908   4.499   1.754 -0.6507 -0.0739 -0.0233
 1189TIP3    H125202   4.985   4.470   1.705  0.2598  0.2825  1.1477
 1189TIP3    H225203   4.885   4.423   1.808  0.8526  0.8003  1.9701
 1190TIP3   OH225204   1.601   3.339   0.185  0.0756  0.2695 -0.0259
 1190TIP3    H125205   1.662   3.399   0.227 -2.7949  0.7433  3.9661
 1190TIP3    H225206   1.518   3.386   0.182 -1.1325 -1.7802 -1.4602
 1191TIP3   OH225207   3.256   4.285   0.623 -0.1401 -0.2527  0.3329
 1191TIP3    H125208   3.162   4.304   0.625  0.3266  2.3604  0.6213
 1191TIP3    H225209   3.280   4.293   0.530 -0.1669 -0.9184  0.2596
 1192TIP3   OH225210   1.232   2.690   0.198 -0.1767 -0.5472 -0.0210
 1192TIP3    H125211   1.137   2.701   0.207  0.0234  1.5284  0.0586
 1192TIP3    H225212   1.250   2.708   0.106  0.0357 -2.1257 -0.3142
 1193TIP3   OH225213   0.641   6.846   7.626  0.0872  0.5353  0.0864
 1193TIP3    H125214   0.556   6.829   7.584 -0.1518 -1.7431  1.3471
 1193TIP3    H225215   0.705   6.807   7.566  0.2757  1.9241 -0.6753
 1194TIP3   OH225216   5.704   5.336   0.378  0.3459  0.6357 -0.4035
 1194TIP3    H125217   5.614   5.304   0.384 -0.0219  1.8312  1.0261
 1194TIP3    H225218   5.739   5.292   0.301 -0.7831 -1.4947  0.1949
 1195TIP3   OH225219   0.531   2.452   1.774  0.3145  0.5560 -0.1740
 1195TIP3    H125220   0.455   2.479   1.825 -1.1626  0.8371 -2.3683
 1195TIP3    H225221   0.528   2.356   1.776  1.1829  0.5411  1.4861
 1196TIP3   OH225222   1.649   2.985   7.724  0.1895 -0.3137 -0.2689
 1196TIP3    H125223   1.657   3.037   7.644  0.1296 -2.1270 -1.5148
 1196TIP3    H225224   1.731   2.935   7.728  0.0956 -0.4081  0.6968
 1197TIP3   OH225225   5.989   2.011   1.798 -0.0546 -0.0391  0.6613
 1197TIP3    H125226   6.035   2.074   1.742 -2.3745 -0.2650 -1.6682
 1197TIP3    H225227   5.900   2.045   1.804 -0.0070 -0.1226  4.2209
 1198TIP3   OH225228   6.870   5.353   1.822  0.0289 -0.0810 -0.3953
 1198TIP3    H125229   6.893   5.415   1.892  2.1840 -0.2123 -0.9378
 1198TIP3    H225230   6.850   5.272   1.869  0.4273  0.1199  0.1420
 1199TIP3   OH225231   0.280   5.783   1.451 -0.2463  0.4245 -0.5067
 1199TIP3    H125232   0.260   5.761   1.360 -0.9903 -1.5075  0.0587
 1199TIP3    H225233   0.281   5.878   1.454 -1.2348  0.5271 -2.3125
 1200TIP3   OH225234   4.695   6.424   1.845 -0.5337 -0.1206  0.6424
 1200TIP3    H125235   4.604   6.401   1.861 -0.7408  0.5420  0.4405
 1200TIP3    H225236   4.722   6.368   1.772 -2.0539  2.5012 -2.1889
 1201TIP3   OH225237   6.239   1.829   8.448 -0.4700 -0.1942  0.2225
 1201TIP3    H125238   6.191   1.809   8.368  0.0304  1.5049 -0.5587
 1201TIP3    H225239   6.190   1.901   8.488 -0.7339 -1.0516  1.4737
 1202TIP3   OH225240   2.093   5.387   1.658  0.7612 -0.3629  0.0105
 1202TIP3    H125241   2.134   5.424   1.736  1.7471  2.6067 -1.7455
 1202TIP3    H225242   2.153   5.409   1.586 -1.0754 -1.1018 -1.8733
 1203TIP3   OH225243   1.769   4.908   1.841 -0.0444  0.1182  0.1087
 1203TIP3    H125244   1.844   4.848   1.843  0.9657  1.3211 -0.3845
 1203TIP3    H225245   1.758   4.931   1.749  1.3232  2.7263  0.4973
 1204TIP3   OH225246   1.570   1.879   2.444 -0.4783 -0.2706 -0.3519
 1204TIP3    H125247   1.630   1.853   2.374 -1.2495 -1.6073 -0.5534
 1204TIP3    H225248   1.485   1.888   2.401 -1.0564 -1.5675  0.4588
 1205TIP3   OH225249   0.985   4.739   0.938  0.1417 -0.0824  0.1955
 1205TIP3    H125250   1.027   4.666   0.892  1.4139 -0.2955  1.6061
 1205TIP3    H225251   1.057   4.781   0.986 -0.4780  2.3694 -0.8785
 1206TIP3   OH225252   6.733   0.385   8.157 -0.4512 -0.2478 -0.8394
 1206TIP3    H125253   6.740   0.344   8.243 -0.4806  0.4486 -0.5052
 1206TIP3    H225254   6.640   0.405   8.147 -0.1487  1.7434 -0.0529
 1207TIP3   OH225255   3.848   6.883   0.373  0.3201  0.3309  0.1467
 1207TIP3    H125256   3.856   6.802   0.423  1.8315  1.4887  1.9214
 1207TIP3    H225257   3.853   6.953   0.439 -2.0203  1.8973 -1.1985
 1208TIP3   OH225258   0.475   4.675   2.352 -0.7390  0.5111 -0.2387
 1208TIP3    H125259   0.511   4.726   2.424 -1.4686  0.4501  0.1743
 1208TIP3    H225260   0.463   4.739   2.281 -1.8613  0.9769  0.3492
 1209TIP3   OH225261   4.103   2.276   0.217 -0.3620  0.2221 -0.0373
 1209TIP3    H125262   4.058   2.328   0.150  0.9745  0.6328 -0.6637
 1209TIP3    H225263   4.064   2.303   0.299 -0.9007  0.9411 -0.5163
 1210TIP3   OH225264   0.566   2.670   0.630 -0.6753  0.0399 -0.1138
 1210TIP3    H125265   0.507   2.722   0.576  1.3056  2.4511 -0.1793
 1210TIP3    H225266   0.622   2.624   0.567 -1.6697 -1.3180 -0.0486
 1211TIP3   OH225267   0.851   3.920   0.694  0.5572 -0.4118 -0.1410
 1211TIP3    H125268   0.867   3.880   0.608  0.3593  0.9160 -0.8154
 1211TIP3    H225269   0.773   3.874   0.727  1.4307 -1.8912 -0.0321
 1212TIP3   OH225270   4.864   5.904   7.114 -0.4239 -0.3244  0.7225
 1212TIP3    H125271   4.853   5.963   7.188  1.9128  0.2455  0.6770
 1212TIP3    H225272   4.886   5.961   7.041 -0.1335 -1.0870  0.2014
 1213TIP3   OH225273   0.107   5.420   7.447 -0.1191 -0.0233  0.0252
 1213TIP3    H125274   0.111   5.473   7.526 -0.0045 -0.4590  0.3155
 1213TIP3    H225275   0.015   5.396   7.438  0.0990 -1.2764  0.9078
 1214TIP3   OH225276   3.935   1.203   8.282 -0.0972  0.2752  0.3857
 1214TIP3    H125277   3.969   1.275   8.229 -2.0394  1.7803  1.0730
 1214TIP3    H225278   3.977   1.125   8.246  2.2041  1.7251 -0.2948
 1215TIP3   OH225279   5.175   0.769   7.228  0.3771 -0.0776 -0.3595
 1215TIP3    H125280   5.081   0.786   7.236  0.5602  1.2337 -0.7079
 1215TIP3    H225281   5.180   0.694   7.168 -0.4552 -0.7642  0.3860
 1216TIP3   OH225282   5.753   1.121   0.493 -0.0010  0.8869 -0.2357
 1216TIP3    H125283   5.763   1.070   0.412 -0.6991  0.2801  0.0526
 1216TIP3    H225284   5.684   1.185   0.472 -0.4130  0.5173 -0.0253
 1217TIP3   OH225285   0.975   6.397   0.235  0.2265 -0.0285  0.3269
 1217TIP3    H125286   1.044   6.434   0.181 -0.8302  0.2843 -0.8691
 1217TIP3    H225287   0.895   6.438   0.202 -0.5582 -0.5967  1.4780
 1218TIP3   OH225288   0.477   2.906   1.415 -0.1262  0.6932  0.6820
 1218TIP3    H125289   0.538   2.930   1.345 -1.4486 -0.0860 -0.7803
 1218TIP3    H225290   0.398   2.956   1.396 -1.2044 -1.0444  0.4096
 1219TIP3   OH225291   4.420   3.158   8.139 -0.1508 -0.0537  0.0245
 1219TIP3    H125292   4.481   3.084   8.145  0.8046  0.8063  1.4808
 1219TIP3    H225293   4.462   3.228   8.189 -1.6732  1.0535 -0.1687
 1220TIP3   OH225294   6.150   4.785   2.151  0.3683 -0.0994  0.2215
 1220TIP3    H125295   6.115   4.841   2.220  0.7399  0.7925 -0.3047
 1220TIP3    H225296   6.242   4.809   2.144 -0.0819  1.2608 -1.9332
 1221TIP3   OH225297   5.234   5.370   1.062  0.4410 -0.0372 -0.2954
 1221TIP3    H125298   5.288   5.293   1.081 -1.3107 -1.7152 -1.6296
 1221TIP3    H225299   5.165   5.368   1.128  0.6918  0.7411  0.0021
 1222TIP3   OH225300   5.672   4.574   2.636  0.0198 -0.0198  0.2288
 1222TIP3    H125301   5.636   4.659   2.660  1.6477  0.4225  1.2680
 1222TIP3    H225302   5.607   4.511   2.665  0.2559  0.7223  2.5666
 1223TIP3   OH225303   3.740   5.287   7.907  0.6743 -0.0820  0.4862
 1223TIP3    H125304   3.671   5.243   7.956  0.3117  0.0804  0.1284
 1223TIP3    H225305   3.808   5.221   7.896 -0.0610 -0.7061 -0.4426
 1224TIP3   OH225306   6.340   1.425   1.640 -0.2224  0.0942 -0.1772
 1224TIP3    H125307   6.346   1.341   1.594 -0.1613 -0.2935  0.5178
 1224TIP3    H225308   6.429   1.460   1.638 -0.4911  0.7606 -1.5736
 1225TIP3   OH225309   1.536   4.095   1.745  0.0281 -0.1816 -0.1071
 1225TIP3    H125310   1.547   4.155   1.818 -0.6951 -0.7329  0.4685
 1225TIP3    H225311   1.505   4.014   1.784 -1.6329 -0.0938 -1.1257
 1226TIP3   OH225312   2.355   0.175   2.137  0.0526  0.4512 -0.2295
 1226TIP3    H125313   2.272   0.127   2.130 -0.4837  1.3183  0.0687
 1226TIP3    H225314   2.338   0.258   2.093  0.9008  0.4777 -0.5270
 1227TIP3   OH225315   5.742   1.270   1.436 -0.2949  0.0948 -0.8442
 1227TIP3    H125316   5.678   1.262   1.507  0.6109 -2.1448 -0.1867
 1227TIP3    H225317   5.703   1.223   1.363 -0.0170 -0.0633 -0.8940
 1228TIP3   OH225318   2.847   4.770   2.624 -0.0950  0.0757  0.9646
 1228TIP3    H125319   2.894   4.703   2.575 -1.3845 -0.0673 -0.1375
 1228TIP3    H225320   2.839   4.735   2.713 -0.6623 -1.1794  0.4274
 1229TIP3   OH225321   3.236   0.570   1.092 -0.0096  0.2015 -0.5451
 1229TIP3    H125322   3.288   0.640   1.132 -1.3175  2.0275 -1.8685
 1229TIP3    H225323   3.300   0.516   1.046  0.9601  0.9432 -0.0975
 1230TIP3   OH225324   2.752   6.369   0.656 -0.9132  0.2863  0.5106
 1230TIP3    H125325   2.790   6.304   0.716 -1.1123  1.6266  2.1638
 1230TIP3    H225326   2.696   6.318   0.598  1.1738 -1.3906 -0.1635
 1231TIP3   OH225327   5.238   4.052   7.475  0.2962 -0.5273  0.0066
 1231TIP3    H125328   5.237   4.132   7.527  0.3233 -0.8728  0.5504
 1231TIP3    H225329   5.209   4.079   7.388  0.0530  0.0224  0.2543
 1232TIP3   OH225330   2.899   3.757   2.103 -0.4685 -0.0365  0.0353
 1232TIP3    H125331   2.907   3.755   2.198  0.7689  1.3514 -0.0051
 1232TIP3    H225332   2.916   3.848   2.079  2.3312 -0.8962 -1.7293
 1233TIP3   OH225333   5.272   2.535   7.826 -0.4051 -0.6702  0.3050
 1233TIP3    H125334   5.190   2.523   7.874 -0.0871  0.1652  1.1093
 1233TIP3    H225335   5.340   2.509   7.889  0.0814  1.4991  0.7761
 1234TIP3   OH225336   4.707   3.045   7.421 -0.5701  0.1051 -0.5447
 1234TIP3    H125337   4.698   2.998   7.504 -0.5359  0.2244 -0.4741
 1234TIP3    H225338   4.655   3.124   7.432 -0.5377  0.1378 -0.6253
 1235TIP3   OH225339   5.795   6.522   6.637 -0.1183 -0.1432  0.2998
 1235TIP3    H125340   5.774   6.614   6.620  0.1175 -0.1207  0.1341
 1235TIP3    H225341   5.709   6.481   6.652 -0.2528  0.0345  0.0318
 1236TIP3   OH225342   3.691   0.360   1.156 -0.5319  0.3214  0.3923
 1236TIP3    H125343   3.621   0.343   1.093 -1.0582 -1.2000  1.3231
 1236TIP3    H225344   3.648   0.356   1.241  0.2317  1.9959  0.9009
 1237TIP3   OH225345   5.777   3.377   0.949 -0.0875 -0.2748  0.3632
 1237TIP3    H125346   5.750   3.336   0.866 -1.5792 -0.9689  1.1464
 1237TIP3    H225347   5.743   3.466   0.944  0.3741 -0.1165 -0.0229
 1238TIP3   OH225348   3.665   2.041   1.246  0.3196  0.8709  0.0458
 1238TIP3    H125349   3.725   2.093   1.299 -1.2148  1.1015  1.6316
 1238TIP3    H225350   3.721   1.978   1.201  1.7047  0.6775  1.9367
 1239TIP3   OH225351   5.886   3.632   7.435 -0.3152 -0.1724 -0.7298
 1239TIP3    H125352   5.979   3.619   7.453 -0.6904 -0.1607  1.5175
 1239TIP3    H225353   5.849   3.544   7.430 -0.4587 -0.1751  0.1789
 1240TIP3   OH225354   4.331   4.991   7.547  0.5078 -0.4850 -0.4661
 1240TIP3    H125355   4.296   5.016   7.461 -0.2840 -1.6069 -0.4741
 1240TIP3    H225356   4.418   5.032   7.549 -0.3551  1.5060 -0.8364
 1241TIP3   OH225357   6.561   0.887   0.531  0.3726  0.1585  0.0834
 1241TIP3    H125358   6.639   0.853   0.487  0.5001  1.6409 -0.9261
 1241TIP3    H225359   6.593   0.960   0.583 -0.5448  2.1316 -1.9433
 1242TIP3   OH225360   0.230   6.260   2.473  0.3848 -0.5994 -0.1220
 1242TIP3    H125361   0.315   6.237   2.511  0.4959  1.0109  0.6584
 1242TIP3    H225362   0.166   6.235   2.540  0.5133  1.3157  0.7780
 1243TIP3   OH225363   1.366   6.048   2.100 -0.4839  0.0140  0.6565
 1243TIP3    H125364   1.385   5.973   2.157 -0.4599 -0.2236  0.3423
 1243TIP3    H225365   1.298   6.096   2.146  0.2042  0.3546  1.3479
 1244TIP3   OH225366   3.542   3.167   0.559 -0.1386  0.1285  0.0143
 1244TIP3    H125367   3.604   3.237   0.540 -0.1206 -0.4715 -2.5106
 1244TIP3    H225368   3.463   3.212   0.589  0.5904  1.0528  0.6147
 1245TIP3   OH225369   2.285   3.240   2.061  0.0786 -0.3330  0.1264
 1245TIP3    H125370   2.293   3.166   2.001  0.1804 -0.1695 -0.0665
 1245TIP3    H225371   2.206   3.221   2.112 -0.9619  0.2838 -1.1598
 1246TIP3   OH225372   4.566   2.318   2.704 -0.0292 -0.5486  0.3494
 1246TIP3    H125373   4.471   2.333   2.710 -0.3755 -1.1887 -2.3565
 1246TIP3    H225374   4.601   2.402   2.673  0.0143 -0.9013 -0.5643
 1247TIP3   OH225375   6.631   6.550   7.990  0.3475  0.0120  0.4701
 1247TIP3    H125376   6.560   6.615   7.988 -0.4789 -0.8775  0.1597
 1247TIP3    H225377   6.586   6.466   8.000  1.3475 -0.5982 -0.0547
 1248TIP3   OH225378   5.810   6.594   7.439  0.5837  0.2021 -0.1479
 1248TIP3    H125379   5.721   6.558   7.445 -0.3117  2.2593 -0.3305
 1248TIP3    H225380   5.811   6.665   7.503  1.7064  0.9677 -0.9925
 1249TIP3   OH225381   5.918   0.275   0.744 -0.3401 -0.0217  0.1772
 1249TIP3    H125382   5.828   0.261   0.774 -0.2397 -0.5591  0.2318
 1249TIP3    H225383   5.936   0.202   0.685  0.3609 -0.4169  0.8536
 1250TIP3   OH225384   3.698   3.395   0.808 -0.2479  0.1253 -0.2131
 1250TIP3    H125385   3.705   3.395   0.903 -0.0245 -0.0055 -0.2279
 1250TIP3    H225386   3.751   3.470   0.779 -1.3299  0.9177 -0.1703
 1251TIP3   OH225387   6.460   2.180   1.654  0.5186 -0.0933  0.4225
 1251TIP3    H125388   6.431   2.156   1.742 -1.1590 -1.9382 -0.5296
 1251TIP3    H225389   6.383   2.163   1.599  0.0336  4.9353 -0.9399
 1252TIP3   OH225390   1.815   0.386   7.573 -0.2406  0.5505 -0.2351
 1252TIP3    H125391   1.791   0.475   7.544 -1.9389  0.2049 -0.0198
 1252TIP3    H225392   1.803   0.388   7.668 -1.7046 -0.2566 -0.3640
 1253TIP3   OH225393   0.864   4.385   1.400 -0.1408 -0.1250 -0.1166
 1253TIP3    H125394   0.914   4.467   1.404  0.4725 -0.5286  1.1684
 1253TIP3    H225395   0.804   4.397   1.327 -0.5020  1.7274  0.4299
 1254TIP3   OH225396   1.553   6.694   8.088  0.4239  0.8645 -0.3003
 1254TIP3    H125397   1.479   6.653   8.043 -0.0393  0.0317  1.1593
 1254TIP3    H225398   1.629   6.671   8.034 -0.1038 -0.1874 -0.6277
 1255TIP3   OH225399   0.355   1.916   0.209 -1.0034  0.3200 -0.3151
 1255TIP3    H125400   0.336   1.877   0.294 -1.1060  0.6750 -0.1753
 1255TIP3    H225401   0.325   1.851   0.145  1.1439 -0.9835 -0.0977
 1256TIP3   OH225402   2.748   5.177   8.441  0.2786  0.2645 -0.4009
 1256TIP3    H125403   2.843   5.188   8.447  0.3238  0.6878 -1.6183
 1256TIP3    H225404   2.733   5.086   8.466  1.2324 -0.4029 -2.0824
 1257TIP3   OH225405   0.570   0.466   0.562  0.4210 -0.0435 -0.0247
 1257TIP3    H125406   0.630   0.398   0.533  0.2836 -0.9785  1.7440
 1257TIP3    H225407   0.524   0.493   0.482  3.7166  1.3552 -1.6482
 1258TIP3   OH225408   3.170   6.893   8.221  0.7325  0.5587 -0.2356
 1258TIP3    H125409   3.212   6.976   8.239  0.3616  0.7905 -0.4173
 1258TIP3    H225410   3.109   6.880   8.294  2.6016 -0.8159  1.1904
 1259TIP3   OH225411   5.314   4.840   7.851  0.0805 -0.2847  0.3487
 1259TIP3    H125412   5.309   4.796   7.936 -0.7728 -0.0375  0.4360
 1259TIP3    H225413   5.329   4.932   7.872  3.5548 -0.6698  0.1439
 1260TIP3   OH225414   3.161   1.039   7.724  0.3268 -0.0995 -0.2532
 1260TIP3    H125415   3.181   1.009   7.813  0.2529 -0.8547 -0.4800
 1260TIP3    H225416   3.065   1.049   7.723  0.5006  2.0758  0.3949
 1261TIP3   OH225417   0.098   5.200   1.272 -0.1408  0.4664  0.1284
 1261TIP3    H125418   0.007   5.207   1.243 -0.4310  2.2044  1.2913
 1261TIP3    H225419   0.150   5.218   1.193 -0.7370 -1.6760 -0.8068
 1262TIP3   OH225420   0.185   6.490   1.633  0.2968  0.5521  0.6863
 1262TIP3    H125421   0.267   6.467   1.590  0.4341  0.4206  1.0223
 1262TIP3    H225422   0.159   6.573   1.592  1.3994  1.4178  1.6671
 1263TIP3   OH225423   3.639   1.197   1.426  0.2460 -0.6139  0.2534
 1263TIP3    H125424   3.728   1.232   1.415 -0.2556  1.0729  1.2322
 1263TIP3    H225425   3.606   1.190   1.336  0.5807  0.9678 -0.0366
 1264TIP3   OH225426   5.883   1.427   0.660 -0.2836 -0.4191  0.6001
 1264TIP3    H125427   5.809   1.484   0.682  0.5699 -0.0591  2.7218
 1264TIP3    H225428   5.960   1.472   0.694  0.7880 -1.4472 -0.3540
 1265TIP3   OH225429   3.949   6.727   1.931 -0.2962 -0.2371  0.1629
 1265TIP3    H125430   3.940   6.736   2.026 -1.0526 -2.4247  0.3396
 1265TIP3    H225431   4.036   6.762   1.912 -0.6862  1.5704  1.4264
 1266TIP3   OH225432   6.226   4.277   2.164  0.2924  0.3791  0.1564
 1266TIP3    H125433   6.201   4.364   2.196  2.0087  0.5672  1.1026
 1266TIP3    H225434   6.226   4.222   2.243 -2.0868 -0.8772 -0.6137
 1267TIP3   OH225435   5.068   2.370   8.662  0.0372 -0.1729  1.0483
 1267TIP3    H125436   5.061   2.288   8.710 -0.8219  0.4668  2.0604
 1267TIP3    H225437   5.017   2.433   8.713 -0.9842  0.5251 -0.7339
 1268TIP3   OH225438   3.890   5.194   1.628  0.3454  0.3489 -0.6203
 1268TIP3    H125439   3.831   5.247   1.682 -1.2757 -1.0344 -0.9500
 1268TIP3    H225440   3.952   5.155   1.690 -1.3469 -1.0395  0.2914
 1269TIP3   OH225441   5.018   5.505   7.368  0.1348  0.0219  0.4536
 1269TIP3    H125442   4.955   5.433   7.355 -0.8132  1.0614 -1.1655
 1269TIP3    H225443   5.033   5.539   7.280  1.9285  0.7129  0.9837
 1270TIP3   OH225444   5.304   1.373   0.800 -0.3948  0.7796  0.2851
 1270TIP3    H125445   5.345   1.390   0.885  2.1086  1.6663 -1.0016
 1270TIP3    H225446   5.296   1.277   0.797  0.3784  0.6718  1.1354
 1271TIP3   OH225447   4.966   3.582   8.627 -0.4740  0.2435  0.0407
 1271TIP3    H125448   5.062   3.587   8.620 -0.5094  0.0138 -0.7779
 1271TIP3    H225449   4.950   3.524   8.702  0.0305  0.2930  0.1886
 1272TIP3   OH225450   0.254   1.122   2.814 -0.2969 -0.2495  0.1240
 1272TIP3    H125451   0.245   1.180   2.739  0.5024 -0.1585  0.0912
 1272TIP3    H225452   0.277   1.179   2.887  2.0061 -0.6446 -0.2210
 1273TIP3   OH225453   4.055   0.210   1.643 -0.1315 -0.7742 -0.5569
 1273TIP3    H125454   4.000   0.283   1.613  0.7479 -0.4617 -1.4740
 1273TIP3    H225455   3.995   0.136   1.652 -1.3097  0.3879  1.7936
 1274TIP3   OH225456   4.501   1.888   3.218  0.4536  0.0447 -0.3163
 1274TIP3    H125457   4.488   1.956   3.283  1.6256 -0.0315  0.0294
 1274TIP3    H225458   4.483   1.806   3.264  1.9641 -0.0571  0.1451
 1275TIP3   OH225459   4.690   4.718   8.066  0.0671 -0.1428  0.2330
 1275TIP3    H125460   4.718   4.678   8.149  0.2104 -0.2735  0.1217
 1275TIP3    H225461   4.758   4.783   8.046 -0.0351 -0.0198  0.2845
 1276TIP3   OH225462   5.014   2.201   0.205  0.2575 -0.5216  0.4152
 1276TIP3    H125463   4.948   2.133   0.210  0.9268 -1.1128  1.8744
 1276TIP3    H225464   5.016   2.239   0.293  0.9958  0.3147  0.0539
 1277TIP3   OH225465   0.998   2.545   1.902 -0.2461  0.2179  0.2149
 1277TIP3    H125466   0.969   2.529   1.992  0.4860  1.7762  0.7527
 1277TIP3    H225467   0.917   2.563   1.854 -0.6027 -0.2141  0.6376
 1278TIP3   OH225468   4.735   2.532   0.150  0.9896  0.3307 -0.2259
 1278TIP3    H125469   4.811   2.522   0.208 -0.8795 -0.6715  2.2248
 1278TIP3    H225470   4.718   2.444   0.117  0.8522  0.5477 -0.7462
 1279TIP3   OH225471   4.358   3.260   1.172 -0.4660  0.1744  0.0785
 1279TIP3    H125472   4.372   3.281   1.265 -0.2592 -1.9916  0.5882
 1279TIP3    H225473   4.445   3.264   1.133 -0.6010  1.4627 -0.1525
 1280TIP3   OH225474   2.450   1.878   1.538  0.6568  0.7178  0.0802
 1280TIP3    H125475   2.528   1.873   1.483  0.4750  0.2841 -0.1437
 1280TIP3    H225476   2.377   1.871   1.477  0.4235  1.7303  0.2196
 1281TIP3   OH225477   5.318   2.050   1.634 -0.5553  0.2224 -0.2142
 1281TIP3    H125478   5.396   1.996   1.647 -1.4925 -0.6511  2.5784
 1281TIP3    H225479   5.247   1.988   1.619 -1.0362  0.8951 -0.8002
 1282TIP3   OH225480   3.017   4.755   7.441 -0.8004  0.0805  0.2460
 1282TIP3    H125481   3.074   4.799   7.377  1.0006 -0.1259  1.6043
 1282TIP3    H225482   3.017   4.813   7.517 -0.9946 -0.7403  0.8913
 1283TIP3   OH225483   4.576   5.852   0.973 -0.0344 -0.2978  0.0418
 1283TIP3    H125484   4.509   5.908   0.935  0.5058 -1.4142 -2.8687
 1283TIP3    H225485   4.657   5.902   0.962  0.0021 -0.2130  0.6939
 1284TIP3   OH225486   6.561   5.190   0.042  0.1175 -0.1394 -0.3404
 1284TIP3    H125487   6.573   5.280   0.012 -0.1500  0.2726  0.7369
 1284TIP3    H225488   6.494   5.155  -0.016 -0.6831  0.7738 -0.0091
 1285TIP3   OH225489   5.477   3.710   2.302  0.2756 -0.3414  0.4591
 1285TIP3    H125490   5.507   3.625   2.268  0.5516 -0.4237  0.8987
 1285TIP3    H225491   5.382   3.702   2.306  0.1928 -0.1694 -0.7208
 1286TIP3   OH225492   0.288   5.054   7.208 -0.2105 -0.1691 -0.0290
 1286TIP3    H125493   0.317   4.963   7.213 -2.1407 -0.8283 -0.1842
 1286TIP3    H225494   0.193   5.049   7.208 -0.3564  1.8449 -0.3891
 1287TIP3   OH225495   6.138   2.180   0.496 -0.1623 -0.0394 -0.1953
 1287TIP3    H125496   6.206   2.178   0.428  0.5844 -0.2076  0.5405
 1287TIP3    H225497   6.143   2.094   0.538  0.9796  0.8268  1.5816
 1288TIP3   OH225498   4.814   0.520   0.841  0.1581 -0.4609  0.3294
 1288TIP3    H125499   4.766   0.560   0.914 -0.8888 -0.8855 -0.0991
 1288TIP3    H225500   4.753   0.454   0.806  1.0827 -1.0457 -0.2155
 1289TIP3   OH225501   2.768   5.755   8.075 -0.7024  0.7594  0.6201
 1289TIP3    H125502   2.675   5.769   8.093 -0.3862  2.2029  1.2408
 1289TIP3    H225503   2.812   5.779   8.157  0.1574 -0.9304  0.6983
 1290TIP3   OH225504   5.761   0.711   0.519  0.1153 -0.0352 -0.4736
 1290TIP3    H125505   5.797   0.625   0.538 -0.0255  0.3705  2.0436
 1290TIP3    H225506   5.790   0.766   0.592 -0.2333  1.9357 -1.7307
 1291TIP3   OH225507   5.000   5.488   6.757  0.0731  0.5017 -0.0748
 1291TIP3    H125508   5.049   5.513   6.678  0.8584  0.3086  0.3357
 1291TIP3    H225509   4.940   5.561   6.772 -1.1842 -0.1375 -1.7161
 1292TIP3   OH225510   3.581   5.234   8.464 -0.3993  0.0017 -0.8043
 1292TIP3    H125511   3.516   5.228   8.534  0.6201  2.1255  0.4377
 1292TIP3    H225512   3.609   5.144   8.449  0.8565 -0.4286  3.0791
 1293TIP3   OH225513   2.686   4.532   2.721 -0.3182 -0.5947  0.1109
 1293TIP3    H125514   2.749   4.581   2.774  0.0265 -0.8081 -0.0926
 1293TIP3    H225515   2.600   4.561   2.752 -0.1666  1.5419 -1.2781
 1294TIP3   OH225516   1.535   6.751   2.001 -0.0421 -0.1569 -0.0999
 1294TIP3    H125517   1.532   6.689   2.075 -0.3369  0.4061  0.3687
 1294TIP3    H225518   1.479   6.823   2.029 -0.3377 -0.0395 -0.9755
 1295TIP3   OH225519   2.499   0.384   7.964 -0.7343 -0.9289  0.1171
 1295TIP3    H125520   2.512   0.291   7.946 -2.1287 -0.8508 -1.5911
 1295TIP3    H225521   2.485   0.388   8.058  3.3942 -1.8656  0.9829
 1296TIP3   OH225522   5.943   5.188   8.133 -0.1740  0.6084  0.4532
 1296TIP3    H125523   5.994   5.234   8.067 -0.3930 -1.5595 -1.3764
 1296TIP3    H225524   5.858   5.233   8.134  0.4249  1.7734  0.6163
 1297TIP3   OH225525   0.943   1.297   0.194 -1.0851  0.0880  0.3052
 1297TIP3    H125526   0.952   1.378   0.143 -1.1291  0.1870  0.4558
 1297TIP3    H225527   1.023   1.292   0.246  0.7123 -1.8485 -2.3840
 1298TIP3   OH225528   2.381   4.695   0.454 -0.4648  0.2367 -0.2874
 1298TIP3    H125529   2.386   4.634   0.380 -0.5530 -0.3085  0.1430
 1298TIP3    H225530   2.419   4.645   0.527  0.3927  1.0605 -0.1492
 1299TIP3   OH225531   2.812   2.905   1.413  0.1271  0.5482 -0.4757
 1299TIP3    H125532   2.746   2.965   1.450 -0.5596  0.6642 -1.8124
 1299TIP3    H225533   2.871   2.962   1.365  0.4438  0.3035 -0.3780
 1300TIP3   OH225534   3.558   2.863   8.602  0.0145  0.0599  0.8507
 1300TIP3    H125535   3.511   2.826   8.677 -0.8070 -0.3135  0.1701
 1300TIP3    H225536   3.511   2.829   8.526  0.2140  1.2524  0.1813
 1301TIP3   OH225537   3.015   5.212   8.461 -0.1447  0.0405  0.0984
 1301TIP3    H125538   3.084   5.149   8.439 -1.2145 -1.1383 -0.0261
 1301TIP3    H225539   3.042   5.293   8.417  0.3898 -0.8186 -1.2479
 1302TIP3   OH225540   5.822   2.679   0.012 -0.4830  0.0026 -0.3097
 1302TIP3    H125541   5.904   2.652  -0.030 -1.0437 -0.0670 -1.3841
 1302TIP3    H225542   5.797   2.759  -0.033 -0.4512  0.6389  0.7616
 1303TIP3   OH225543   2.052   0.391   0.170  0.6929  0.1157  0.3808
 1303TIP3    H125544   1.959   0.390   0.150  0.3918  1.0034  1.6060
 1303TIP3    H225545   2.057   0.368   0.262  1.8040 -1.1803  0.0294
 1304TIP3   OH225546   0.273   5.024   8.521  0.0372  0.5032 -0.5684
 1304TIP3    H125547   0.213   4.986   8.585 -0.1215 -0.4046 -1.2287
 1304TIP3    H225548   0.304   4.949   8.469  0.5517  1.1481 -1.2275
 1305TIP3   OH225549   0.911   3.939   1.222 -0.7369  0.1491 -0.0568
 1305TIP3    H125550   0.947   3.953   1.134 -0.2625  1.0134  0.2651
 1305TIP3    H225551   0.959   4.001   1.278 -2.6248  1.2788  0.4091
 1306TIP3   OH225552   3.353   1.572   0.768  0.2187 -0.5307  0.1844
 1306TIP3    H125553   3.262   1.600   0.777  0.1209 -0.7743 -0.0425
 1306TIP3    H225554   3.352   1.511   0.695  0.6568 -0.1380 -0.1509
 1307TIP3   OH225555   0.185   5.696   0.651  1.0381  0.2309  0.2783
 1307TIP3    H125556   0.215   5.619   0.602  0.9798  0.5563 -0.2676
 1307TIP3    H225557   0.090   5.696   0.639  0.9892  0.1520  0.6338
 1308TIP3   OH225558   5.422   6.304   1.704 -0.2635  0.1888 -0.6185
 1308TIP3    H125559   5.431   6.395   1.676 -0.3174 -0.3751 -2.6044
 1308TIP3    H225560   5.330   6.297   1.731 -0.4961  0.5339 -1.2847
 1309TIP3   OH225561   6.435   6.863   6.495 -0.3621 -0.2369  0.6593
 1309TIP3    H125562   6.455   6.919   6.570  1.6935  0.5618 -0.3843
 1309TIP3    H225563   6.428   6.924   6.421 -0.4249 -1.1597 -0.1234
 1310TIP3   OH225564   2.995   2.536   0.487 -0.4723  0.3078  0.2327
 1310TIP3    H125565   2.981   2.448   0.450 -1.6132  0.3098  0.6070
 1310TIP3    H225566   3.090   2.543   0.497 -0.2158 -0.1572 -1.5499
 1311TIP3   OH225567   0.463   2.324   1.095 -0.1314  0.2786  0.0407
 1311TIP3    H125568   0.469   2.388   1.024  3.4957  1.2088  0.9632
 1311TIP3    H225569   0.403   2.363   1.158 -0.8084  1.0015 -1.0229
 1312TIP3   OH225570   6.290   3.143   2.719 -0.1244  0.8326  0.1074
 1312TIP3    H125571   6.363   3.095   2.681 -1.8103 -0.8100 -1.2467
 1312TIP3    H225572   6.233   3.075   2.755  0.5252  2.1873  4.2425
 1313TIP3   OH225573   2.252   1.399   7.204 -0.1872  0.3153  0.4764
 1313TIP3    H125574   2.158   1.399   7.221 -0.2992 -1.5720  0.0279
 1313TIP3    H225575   2.270   1.315   7.163  1.7574  0.5117  0.7997
 1314TIP3   OH225576   4.764   2.205   1.122  0.5921  0.7552  0.1003
 1314TIP3    H125577   4.681   2.211   1.169  1.0182 -0.0552  0.9901
 1314TIP3    H225578   4.776   2.292   1.084 -0.2300  1.1447  0.6909
 1315TIP3   OH225579   6.080   1.598   0.347 -0.8910  0.0424 -0.4757
 1315TIP3    H125580   6.172   1.580   0.368 -1.2319  0.5454  1.7196
 1315TIP3    H225581   6.049   1.650   0.421 -2.7237  0.6312 -1.6035
 1316TIP3   OH225582   5.962   5.850   7.821 -0.1408 -0.0327  0.3749
 1316TIP3    H125583   5.884   5.900   7.796 -0.2418 -0.3337  0.0821
 1316TIP3    H225584   5.929   5.761   7.837 -0.0337  0.0848  1.3152
 1317TIP3   OH225585   6.392   6.238   8.353  0.1379 -0.2510 -0.4370
 1317TIP3    H125586   6.426   6.319   8.315 -3.3671  1.0744 -1.1382
 1317TIP3    H225587   6.407   6.171   8.286 -1.1737  0.9116 -1.9654
 1318TIP3   OH225588   3.614   4.355   8.350  0.0109 -0.2864 -0.5072
 1318TIP3    H125589   3.536   4.375   8.402 -1.2725 -0.8594 -2.1454
 1318TIP3    H225590   3.607   4.262   8.330  2.0143 -0.7489  0.6968
 1319TIP3   OH225591   1.609   6.266   0.817 -0.2228  0.2295 -0.2542
 1319TIP3    H125592   1.632   6.357   0.838 -1.3106  0.1089  1.7029
 1319TIP3    H225593   1.688   6.217   0.840  0.1993  0.6158 -0.8474
 1320TIP3   OH225594   5.041   5.926   7.574 -0.3980  0.1392  0.0342
 1320TIP3    H125595   5.072   5.991   7.511 -0.5852  0.9152  0.7308
 1320TIP3    H225596   4.960   5.892   7.536 -0.0039 -0.1035 -0.6049
 1321TIP3   OH225597   4.147   2.895   2.472 -0.0022 -0.0442 -0.6875
 1321TIP3    H125598   4.238   2.921   2.486 -0.1157 -0.0130  0.0380
 1321TIP3    H225599   4.150   2.838   2.395  0.6702 -0.2691 -0.5052
 1322TIP3   OH225600   2.513   5.798   8.151 -0.1422 -0.2927 -0.5009
 1322TIP3    H125601   2.505   5.790   8.246 -0.7200 -1.5148 -0.6370
 1322TIP3    H225602   2.438   5.751   8.116 -1.8004  2.8113 -1.5518
 1323TIP3   OH225603   0.597   0.200   2.131  0.3436 -0.4786 -0.3304
 1323TIP3    H125604   0.555   0.286   2.137  1.2028 -0.1398  1.4558
 1323TIP3    H225605   0.598   0.167   2.221 -1.7278 -3.2856 -1.1998
 1324TIP3   OH225606   3.532   1.174   1.103 -0.4182 -0.1427  0.1371
 1324TIP3    H125607   3.566   1.085   1.105 -0.1404 -0.0557 -0.4430
 1324TIP3    H225608   3.610   1.229   1.101 -0.5834  0.0690 -0.8350
 1325TIP3   OH225609   6.578   3.850   7.130 -0.0010  0.0181  0.0068
 1325TIP3    H125610   6.589   3.755   7.130 -1.1961 -0.1535 -0.5822
 1325TIP3    H225611   6.497   3.864   7.180  0.2998  0.7463  0.2954
 1326TIP3   OH225612   0.758   3.188   0.988 -0.3118  0.1535  0.2369
 1326TIP3    H125613   0.695   3.159   0.923 -0.1937  0.7700 -0.1630
 1326TIP3    H225614   0.704   3.226   1.058 -0.3852  0.6572 -0.0921
 1327TIP3   OH225615   6.294   5.809   8.366  0.2481  0.3281 -0.4410
 1327TIP3    H125616   6.343   5.788   8.286 -2.5876 -1.3851 -1.8876
 1327TIP3    H225617   6.202   5.811   8.338 -0.7668  0.8892  2.5727
 1328TIP3   OH225618   2.010   3.090   7.226  0.3989  0.4705 -0.5841
 1328TIP3    H125619   2.021   3.052   7.139  0.1046  1.1523 -0.9270
 1328TIP3    H225620   1.916   3.089   7.241  0.5527 -2.1983  0.9087
 1329TIP3   OH225621   4.510   6.610   1.247 -0.0528 -0.5477  0.2850
 1329TIP3    H125622   4.498   6.517   1.267  0.8003 -0.5195  1.0283
 1329TIP3    H225623   4.545   6.647   1.329  0.4524  0.2417 -0.2750
 1330TIP3   OH225624   0.372   4.505   0.926  0.3546  0.1569 -0.4038
 1330TIP3    H125625   0.392   4.495   0.833 -1.1937  1.0493 -0.8625
 1330TIP3    H225626   0.448   4.550   0.962  0.1065  1.6663 -1.6732
 1331TIP3   OH225627   3.405   5.054   8.081 -0.2815 -0.2372  0.6517
 1331TIP3    H125628   3.407   5.142   8.117  1.7715  0.0126  0.0234
 1331TIP3    H225629   3.495   5.023   8.087 -0.8670 -2.1292  0.4324
 1332TIP3   OH225630   3.563   0.757   2.185 -0.4108  0.1369 -0.2398
 1332TIP3    H125631   3.579   0.852   2.189 -1.2365  0.3001  3.9195
 1332TIP3    H225632   3.646   0.718   2.213 -1.3568  0.0240  2.7719
 1333TIP3   OH225633   4.748   5.469   8.391  0.4219 -0.5561 -0.5311
 1333TIP3    H125634   4.742   5.555   8.349 -0.3985  0.2733  1.1964
 1333TIP3    H225635   4.689   5.413   8.340  1.1553 -0.1990 -1.8282
 1334TIP3   OH225636   6.159   0.658   1.400  0.2584  0.0894 -0.0401
 1334TIP3    H125637   6.230   0.635   1.340 -0.0345 -0.8937 -0.0275
 1334TIP3    H225638   6.080   0.650   1.348 -0.0044 -0.8317  0.4788
 1335TIP3   OH225639   3.357   1.065   1.359  0.3634 -0.2402  0.0380
 1335TIP3    H125640   3.347   1.156   1.329  0.0435 -0.1389  0.4437
 1335TIP3    H225641   3.306   1.061   1.440  2.5445 -0.0549  1.5206
 1336TIP3   OH225642   6.797   2.330   1.235 -0.1648  0.6226  0.3989
 1336TIP3    H125643   6.849   2.251   1.220  0.8156  1.2282  0.5105
 1336TIP3    H225644   6.829   2.393   1.171 -1.7966  0.5638 -0.5203
 1337TIP3   OH225645   4.039   6.713   8.644  0.2055  0.6143 -0.0222
 1337TIP3    H125646   4.074   6.626   8.624 -1.8455 -0.3365  0.2452
 1337TIP3    H225647   3.972   6.728   8.577  1.0617  2.3565 -0.5375
 1338TIP3   OH225648   0.266   5.262   1.066 -0.5780  0.9451 -0.0196
 1338TIP3    H125649   0.323   5.330   1.099 -0.4133  1.1653 -0.7399
 1338TIP3    H225650   0.325   5.198   1.025 -0.6687 -0.0010  1.2775
 1339TIP3   OH225651   0.834   1.646   0.650  0.4753  1.1022  0.1349
 1339TIP3    H125652   0.826   1.552   0.665  0.6362  0.9532 -0.7132
 1339TIP3    H225653   0.762   1.684   0.701  1.4117  0.6685  1.8690
 1340TIP3   OH225654   3.708   2.457   1.213  0.3611 -0.4716  0.2866
 1340TIP3    H125655   3.674   2.391   1.153  0.2186  0.0309 -0.1968
 1340TIP3    H225656   3.794   2.424   1.239 -0.2312 -1.4667  1.0651
 1341TIP3   OH225657   0.422   6.233   7.367 -0.3522  0.0554 -0.0533
 1341TIP3    H125658   0.460   6.320   7.376  0.3218  0.2007 -3.1307
 1341TIP3    H225659   0.338   6.238   7.413 -0.2780  2.2942 -0.0669
 1342TIP3   OH225660   4.212   6.567   1.689 -0.0651  0.5405  0.5283
 1342TIP3    H125661   4.177   6.599   1.606 -1.0026 -2.1227 -0.1812
 1342TIP3    H225662   4.307   6.578   1.681  0.1137 -1.9968 -2.0376
 1343TIP3   OH225663   4.855   4.459   6.586 -0.3041  0.0632 -0.0647
 1343TIP3    H125664   4.871   4.524   6.518 -0.3172 -0.0472 -0.1752
 1343TIP3    H225665   4.887   4.500   6.667 -0.0691  0.1052 -0.1761
 1344TIP3   OH225666   2.569   6.104   8.319 -0.3033  0.5453  0.0531
 1344TIP3    H125667   2.489   6.092   8.269 -1.4208  0.3490  1.8168
 1344TIP3    H225668   2.540   6.134   8.405  1.5543  1.0315  0.5568
 1345TIP3   OH225669   0.626   4.430   1.612 -0.5138 -0.3858  0.0183
 1345TIP3    H125670   0.591   4.506   1.566  0.4690  0.5372  0.7496
 1345TIP3    H225671   0.613   4.449   1.705  0.6736 -0.6029  0.2531
 1346TIP3   OH225672   1.894   0.512   1.251  0.1322 -0.4469 -0.6404
 1346TIP3    H125673   1.884   0.488   1.159 -1.3508 -0.1272 -0.5895
 1346TIP3    H225674   1.849   0.442   1.299 -1.0983  0.5177 -0.3141
 1347TIP3   OH225675   3.032   2.057   0.939  0.2824  0.0796 -0.5872
 1347TIP3    H125676   3.118   2.099   0.947 -0.0040  0.8139 -1.1876
 1347TIP3    H225677   3.048   1.980   0.884  0.2003  1.4188 -2.5641
 1348TIP3   OH225678   2.144   0.313   0.696  0.0663  0.2250  0.4380
 1348TIP3    H125679   2.059   0.347   0.726  0.3775  0.7679  0.7132
 1348TIP3    H225680   2.176   0.261   0.769  0.3545  0.7110  0.6615
 1349TIP3   OH225681   3.262   3.056   1.287 -0.2355  0.1024  0.1567
 1349TIP3    H125682   3.345   3.041   1.242 -1.1839 -1.6782 -1.1347
 1349TIP3    H225683   3.271   3.142   1.327  1.7993  0.4348 -0.9058
 1350TIP3   OH225684   6.570   2.989   2.167  0.3227 -0.0601  0.5306
 1350TIP3    H125685   6.552   2.939   2.088  0.5946  3.3705 -1.9359
 1350TIP3    H225686   6.666   2.996   2.169  0.2406  1.7540 -0.2239
 1351TIP3   OH225687   1.536   4.211   0.046  0.0952  0.0020 -0.1001
 1351TIP3    H125688   1.622   4.173   0.032 -0.0354 -1.6857  2.9092
 1351TIP3    H225689   1.481   4.171  -0.022  0.7379 -2.6600  0.8335
 1352TIP3   OH225690   6.851   3.838   8.222 -0.0793 -0.3988 -1.0089
 1352TIP3    H125691   6.893   3.918   8.254 -1.6878  0.1833 -0.2181
 1352TIP3    H225692   6.809   3.865   8.140 -0.7287 -0.3827 -0.6771
 1353TIP3   OH225693   1.878   3.172   0.015  0.4512  0.3962  0.4653
 1353TIP3    H125694   1.940   3.104   0.044 -0.0911  0.0082  0.7247
 1353TIP3    H225695   1.792   3.131   0.024  0.2178  0.4860 -1.1135
 1354TIP3   OH225696   4.671   5.985   0.084 -0.3742  0.2558  0.1591
 1354TIP3    H125697   4.597   5.976   0.143 -1.0245 -0.1816 -0.7135
 1354TIP3    H225698   4.743   5.939   0.128 -1.2794 -1.5153 -0.1270
 1355TIP3   OH225699   0.985   0.820   0.892  0.1148  0.0537  0.0965
 1355TIP3    H125700   0.892   0.820   0.914 -0.3160 -0.8543 -1.5571
 1355TIP3    H225701   0.991   0.878   0.816  0.9215  0.1911  0.2608
 1356TIP3   OH225702   6.284   4.119   1.171  0.1158 -0.0126  0.3907
 1356TIP3    H125703   6.214   4.176   1.202  0.2877  0.6429 -0.3794
 1356TIP3    H225704   6.286   4.047   1.234  0.1945  1.0515  1.6439
 1357TIP3   OH225705   1.624   5.349   2.450 -0.2822  0.5145  0.1912
 1357TIP3    H125706   1.698   5.302   2.488  0.2653  1.2822  0.0923
 1357TIP3    H225707   1.589   5.402   2.521  1.3745  2.7358 -0.5493
 1358TIP3   OH225708   2.091   6.779   1.135  0.2630  0.4572 -0.3822
 1358TIP3    H125709   2.114   6.686   1.138 -0.2230  0.3645  1.5414
 1358TIP3    H225710   2.089   6.800   1.042  0.3612 -1.4625 -0.8535
 1359TIP3   OH225711   3.014   3.074   8.165 -0.4922 -0.2518 -0.4903
 1359TIP3    H125712   3.053   3.072   8.252 -1.7854  3.3178  0.3656
 1359TIP3    H225713   3.052   3.152   8.124 -1.3468 -0.7727 -2.3630
 1360TIP3   OH225714   6.049   2.568   8.175 -0.9401 -0.1529  0.2938
 1360TIP3    H125715   6.072   2.511   8.248 -0.4623 -1.2517 -0.6804
 1360TIP3    H225716   5.967   2.530   8.140 -0.8325 -0.0173 -0.1125
 1361TIP3   OH225717   0.704   6.835   1.240  0.1391  0.1324 -0.2009
 1361TIP3    H125718   0.646   6.883   1.180  0.9955  2.9449  1.0168
 1361TIP3    H225719   0.789   6.877   1.228  0.4154  0.5698  2.6822
 1362TIP3   OH225720   6.869   2.102   8.660  0.1065 -0.4386  0.2813
 1362TIP3    H125721   6.919   2.122   8.580 -0.7007 -1.6404 -0.5611
 1362TIP3    H225722   6.835   2.186   8.688 -1.5380 -0.2461 -2.0164
 1363TIP3   OH225723   5.773   1.397   0.993  0.5909  0.4114 -0.0550
 1363TIP3    H125724   5.805   1.318   0.950  0.8637 -0.4014  1.5776
 1363TIP3    H225725   5.833   1.466   0.964  0.8419 -0.1312 -0.8543
 1364TIP3   OH225726   4.926   3.993   7.865  0.2635 -0.1055 -0.1048
 1364TIP3    H125727   5.021   3.978   7.858  0.4925  0.5881  1.1804
 1364TIP3    H225728   4.918   4.082   7.898 -0.8412 -0.1558 -0.2091
 1365TIP3   OH225729   3.709   3.830   2.166 -0.3746 -0.2548 -0.1017
 1365TIP3    H125730   3.701   3.905   2.108 -0.2045 -0.7349 -0.7580
 1365TIP3    H225731   3.772   3.857   2.232  0.7007 -0.2778 -1.0951
 1366TIP3   OH225732   5.270   1.694   1.475  0.1702 -0.0658  0.1274
 1366TIP3    H125733   5.217   1.628   1.430  0.6826  0.2647 -1.0110
 1366TIP3    H225734   5.324   1.644   1.536 -0.5357 -0.5323  0.3825
 1367TIP3   OH225735   3.913   3.671   0.330 -0.0314 -0.3508  0.5834
 1367TIP3    H125736   3.856   3.629   0.266  0.9227 -1.4763  0.4291
 1367TIP3    H225737   3.975   3.723   0.278  0.6105 -1.0982  0.5693
 1368TIP3   OH225738   2.527   3.503   0.978 -0.2166 -0.1790  0.0453
 1368TIP3    H125739   2.525   3.597   0.957  0.7440 -0.1578  0.0239
 1368TIP3    H225740   2.564   3.462   0.900  0.8761 -0.3910  0.6591
 1369TIP3   OH225741   2.168   6.867   8.398 -0.7543  0.5296  0.4444
 1369TIP3    H125742   2.206   6.781   8.413  0.8059  1.4173  1.8258
 1369TIP3    H225743   2.079   6.860   8.434  0.2268  0.2220  2.9956
 1370TIP3   OH225744   4.704   1.684   6.825 -0.1522  0.1240  0.1048
 1370TIP3    H125745   4.674   1.623   6.892 -0.5647 -0.8210 -0.9067
 1370TIP3    H225746   4.628   1.740   6.807 -0.4051 -0.3484 -0.3452
 1371TIP3   OH225747   5.901   0.865   8.516  0.2281  0.0825  0.5566
 1371TIP3    H125748   5.841   0.934   8.490  1.6112  1.0747 -0.1756
 1371TIP3    H225749   5.873   0.787   8.467 -0.9033  0.3047  0.8377
 1372TIP3   OH225750   1.579   0.575   8.191  0.0423  0.4331 -0.3823
 1372TIP3    H125751   1.596   0.481   8.200 -1.8352 -0.1423 -2.2697
 1372TIP3    H225752   1.500   0.590   8.243 -0.9373  0.4821 -1.8312
 1373TIP3   OH225753   2.972   4.423   1.046  0.1210 -0.0916 -0.6673
 1373TIP3    H125754   3.016   4.505   1.023 -1.5466  0.9131 -0.4349
 1373TIP3    H225755   2.887   4.429   1.001  0.1760 -1.9478 -1.0745
 1374TIP3   OH225756   0.170   4.396   1.503  0.5966  0.5223 -0.6114
 1374TIP3    H125757   0.258   4.370   1.530  0.1182 -0.8617 -0.2636
 1374TIP3    H225758   0.114   4.323   1.530 -0.8169  1.8021  0.0730
 1375TIP3   OH225759   6.033   3.843   1.424 -0.2468 -0.2440  0.1894
 1375TIP3    H125760   5.993   3.778   1.482 -0.1380  0.3405  0.9381
 1375TIP3    H225761   5.987   3.831   1.341  0.3621 -1.8536  0.0399
 1376TIP3   OH225762   6.502   6.462   0.830 -0.0561 -0.9017 -0.8928
 1376TIP3    H125763   6.432   6.410   0.792 -0.8475 -0.0798 -0.5857
 1376TIP3    H225764   6.531   6.520   0.759 -0.9523  0.0357 -0.5179
 1377TIP3   OH225765   4.558   0.261   7.968  0.3320 -0.3760 -0.4502
 1377TIP3    H125766   4.638   0.224   8.008  0.5325  1.1684  0.6532
 1377TIP3    H225767   4.589   0.338   7.922 -0.5693  0.5065  0.3815
 1378TIP3   OH225768   5.914   3.483   2.324 -0.2628  0.0734  0.0865
 1378TIP3    H125769   5.945   3.563   2.366  1.7581 -0.0463 -1.0051
 1378TIP3    H225770   5.894   3.423   2.396  1.0603  0.5839  0.9073
 1379TIP3   OH225771   1.489   1.154   7.629  0.6107 -0.9701  0.3079
 1379TIP3    H125772   1.476   1.156   7.724 -0.2351 -1.6539  0.2215
 1379TIP3    H225773   1.467   1.242   7.599 -2.0472 -1.5022  0.4273
 1380TIP3   OH225774   5.525   0.547   1.111 -0.0075 -0.3998  0.1200
 1380TIP3    H125775   5.488   0.464   1.080 -0.4782  0.1148 -0.7343
 1380TIP3    H225776   5.565   0.525   1.195 -1.2861 -1.2265  0.5555
 1381TIP3   OH225777   4.404   0.065   2.122 -0.1911 -0.0767 -0.0149
 1381TIP3    H125778   4.381   0.114   2.202  1.6741  0.6935  0.0958
 1381TIP3    H225779   4.458   0.126   2.072 -0.4717 -0.9316 -1.3986
 1382TIP3   OH225780   1.268   2.446   6.615 -0.3149 -0.2511 -0.1123
 1382TIP3    H125781   1.227   2.497   6.684  0.1681  1.0831 -0.7733
 1382TIP3    H225782   1.195   2.417   6.560 -0.5892 -0.2340  0.2423
 1383TIP3   OH225783   3.135   6.277   1.724 -0.1053  0.1372 -0.9413
 1383TIP3    H125784   3.094   6.342   1.668 -0.8714  0.6282  0.1442
 1383TIP3    H225785   3.198   6.233   1.668 -0.2295  1.1884 -1.9419
 1384TIP3   OH225786   1.629   2.509   0.090 -0.4711 -0.3825  0.1243
 1384TIP3    H125787   1.606   2.523   0.182 -0.0173  0.6030  0.0957
 1384TIP3    H225788   1.558   2.549   0.041 -0.5390 -0.6012  0.0430
 1385TIP3   OH225789   4.797   6.854   7.941  0.3521 -0.1002  0.2357
 1385TIP3    H125790   4.795   6.929   8.000 -0.1424 -0.7656  1.0853
 1385TIP3    H225791   4.834   6.783   7.993 -1.2770 -1.0415  0.1805
 1386TIP3   OH225792   5.837   2.981   0.660 -0.7428  0.8909 -0.2610
 1386TIP3    H125793   5.795   3.016   0.738 -0.3873  1.0872 -0.1573
 1386TIP3    H225794   5.778   3.005   0.588 -1.0423  0.7541 -0.0620
 1387TIP3   OH225795   0.053   4.301   7.683  0.7185 -0.2414  0.4298
 1387TIP3    H125796   0.007   4.385   7.693  0.2424 -0.3872 -0.4187
 1387TIP3    H225797   0.111   4.315   7.609  1.7417 -0.2044  1.2213
 1388TIP3   OH225798   3.938   2.406   0.054 -0.0935  0.3482 -0.1046
 1388TIP3    H125799   3.972   2.383  -0.032 -0.3667  0.8831 -0.3605
 1388TIP3    H225800   3.860   2.459   0.036  0.2331  1.0456  0.4590
 1389TIP3   OH225801   6.590   6.171   2.201  0.3069 -0.2720 -0.2851
 1389TIP3    H125802   6.564   6.169   2.293 -0.4411  0.5767 -0.4667
 1389TIP3    H225803   6.604   6.263   2.182 -0.2051 -0.3747 -1.2054
 1390TIP3   OH225804   4.672   6.193   7.961  0.3980  0.0714 -0.1479
 1390TIP3    H125805   4.690   6.177   7.868 -0.3558  0.4117 -0.3553
 1390TIP3    H225806   4.691   6.285   7.974  0.7445 -0.0325  0.0996
 1391TIP3   OH225807   4.133   3.701   2.572  0.8167  0.5848  0.3519
 1391TIP3    H125808   4.113   3.792   2.548  0.8107  0.3275 -0.6930
 1391TIP3    H225809   4.073   3.649   2.519 -0.6963 -0.0030  2.5367
 1392TIP3   OH225810   6.068   6.255   0.477  0.2174  0.1724 -0.4356
 1392TIP3    H125811   6.026   6.306   0.546  0.9771 -0.3055  0.4001
 1392TIP3    H225812   6.010   6.179   0.465  0.9659 -0.6841  0.9836
 1393TIP3   OH225813   3.174   1.182   0.687 -0.3615 -0.1660 -0.0525
 1393TIP3    H125814   3.143   1.253   0.744 -1.2466 -1.4063  1.0940
 1393TIP3    H225815   3.097   1.158   0.635 -0.2035 -0.5917 -0.0947
 1394TIP3   OH225816   0.870   4.374   0.863 -0.2245 -0.1809  0.1434
 1394TIP3    H125817   0.781   4.410   0.867 -0.7640 -1.5391  1.2869
 1394TIP3    H225818   0.867   4.311   0.791 -0.6681 -1.2921  1.0771
 1395TIP3   OH225819   3.050   2.652   0.025  0.2052 -0.2057 -0.0529
 1395TIP3    H125820   3.009   2.685  -0.055 -1.4773 -0.6182  0.5949
 1395TIP3    H225821   3.029   2.718   0.092 -0.9111 -1.2347  0.6616
 1396TIP3   OH225822   2.165   6.275   7.307 -0.3577  0.3915 -0.2795
 1396TIP3    H125823   2.202   6.254   7.221 -0.2323 -2.6172  0.4150
 1396TIP3    H225824   2.238   6.309   7.357 -0.3383  1.7642 -1.1799
 1397TIP3   OH225825   2.936   5.598   0.179 -0.1749 -0.4869 -0.4379
 1397TIP3    H125826   2.945   5.560   0.092  0.2858  0.4473 -0.8162
 1397TIP3    H225827   2.880   5.536   0.227 -0.0832 -1.2244 -1.2573
 1398TIP3   OH225828   1.853   2.653   7.003 -0.0012 -0.1341 -0.4865
 1398TIP3    H125829   1.883   2.661   7.094 -0.0626  1.1479 -0.5588
 1398TIP3    H225830   1.924   2.690   6.951 -0.4765  0.2316 -0.8768
 1399TIP3   OH225831   5.697   1.048   8.464  0.4904 -0.1399  0.9905
 1399TIP3    H125832   5.669   1.128   8.508 -0.1012  0.3305 -0.1999
 1399TIP3    H225833   5.625   0.987   8.477  0.6523 -0.2586  1.3320
 1400TIP3   OH225834   2.526   1.721   7.392  0.0406  0.4469 -0.0782
 1400TIP3    H125835   2.531   1.690   7.301  0.0356  4.2309 -1.5785
 1400TIP3    H225836   2.617   1.719   7.422 -0.0494 -1.5426  0.1795
 1401TIP3   OH225837   0.411   3.200   8.454 -0.2245  0.0115  0.0535
 1401TIP3    H125838   0.458   3.133   8.503 -0.5381  0.5549  1.1298
 1401TIP3    H225839   0.476   3.236   8.393  0.5956  0.3554  1.1147
 1402TIP3   OH225840   0.511   5.285   0.836  0.0069 -0.1781 -0.2579
 1402TIP3    H125841   0.491   5.340   0.760  1.1562  1.3584  0.5064
 1402TIP3    H225842   0.524   5.197   0.799  1.1715  0.6423 -1.9544
 1403TIP3   OH225843   0.063   2.949   7.070  0.9434 -0.3244 -0.3791
 1403TIP3    H125844   0.140   3.002   7.090  1.0980 -0.8110  0.3530
 1403TIP3    H225845  -0.007   3.013   7.053  0.8257  0.1466  1.6194
 1404TIP3   OH225846   3.380   2.467   2.659 -0.6443  1.4312  0.6980
 1404TIP3    H125847   3.307   2.414   2.692 -0.3745  0.2310 -0.5352
 1404TIP3    H225848   3.355   2.490   2.570  0.3915  1.1883  0.3342
 1405TIP3   OH225849   1.485   6.558   7.681 -0.1264  0.4003 -0.1516
 1405TIP3    H125850   1.564   6.612   7.680 -0.5038  1.0236  1.0453
 1405TIP3    H225851   1.476   6.531   7.772 -0.5796 -0.7582 -0.5269
 1406TIP3   OH225852   4.453   4.575   2.495  0.1786 -0.1508 -0.0448
 1406TIP3    H125853   4.394   4.509   2.530 -0.1729  0.7360  1.0843
 1406TIP3    H225854   4.533   4.566   2.547  1.5700 -2.1352 -2.3240
 1407TIP3   OH225855   6.154   6.139   7.171  0.1021  0.4536  0.2529
 1407TIP3    H125856   6.176   6.229   7.191  1.2082  0.1994  0.2332
 1407TIP3    H225857   6.062   6.130   7.196  0.4474  1.1195  1.8584
 1408TIP3   OH225858   6.881   5.994   8.566 -0.5159  0.2959 -0.1569
 1408TIP3    H125859   6.812   5.935   8.537 -0.5454 -0.7995  1.9689
 1408TIP3    H225860   6.873   5.997   8.661  0.1091  2.9934 -0.0823
 1409TIP3   OH225861   4.568   2.582   2.639  0.6169  0.1370 -0.1763
 1409TIP3    H125862   4.544   2.592   2.547  2.5965 -1.4310 -0.9511
 1409TIP3    H225863   4.664   2.585   2.639  0.6981 -0.8584  1.6935
 1410TIP3   OH225864   0.121   2.915   0.358 -0.0265  0.0698  0.5204
 1410TIP3    H125865   0.147   2.881   0.273 -1.0574  0.9243 -0.1716
 1410TIP3    H225866   0.096   2.838   0.409 -1.4064 -0.3132 -0.6738
 1411TIP3   OH225867   4.328   0.907   8.284  0.1428  0.0255  0.0776
 1411TIP3    H125868   4.393   0.856   8.331  1.4298  1.0310 -0.5528
 1411TIP3    H225869   4.330   0.872   8.195 -0.8921 -0.5761  0.2726
 1412TIP3   OH225870   0.758   4.337   7.697 -0.0194  0.0592  0.4010
 1412TIP3    H125871   0.710   4.332   7.780 -2.1705 -2.6333 -0.8645
 1412TIP3    H225872   0.705   4.396   7.643  1.0405  1.3041  0.6726
 1413TIP3   OH225873   1.063   2.031   1.452 -0.2386  0.0388 -0.0249
 1413TIP3    H125874   1.144   2.058   1.494  0.6780 -0.1803 -1.5706
 1413TIP3    H225875   1.020   2.113   1.426 -0.4179  0.1482  0.6052
 1414TIP3   OH225876   6.469   1.943   8.561  0.5449  0.0041 -0.1342
 1414TIP3    H125877   6.490   2.001   8.487  1.0302  0.7007  0.5387
 1414TIP3    H225878   6.382   1.908   8.539  0.0639  1.2826 -0.3795
 1415TIP3   OH225879   3.442   2.211   0.686  0.5773 -0.2727 -0.4994
 1415TIP3    H125880   3.508   2.161   0.639  0.9559 -0.4593  0.2254
 1415TIP3    H225881   3.490   2.279   0.733 -0.0240  1.6644 -2.4805
 1416TIP3   OH225882   4.941   4.443   1.063 -0.2976 -0.0613 -0.2325
 1416TIP3    H125883   4.928   4.503   0.989 -0.5608  0.8000  0.4913
 1416TIP3    H225884   5.015   4.481   1.112  0.5062 -1.1508 -0.5573
 1417TIP3   OH225885   5.417   6.729   0.107  0.6712  0.5534  0.1307
 1417TIP3    H125886   5.466   6.738   0.188  2.1611 -2.6604 -0.2774
 1417TIP3    H225887   5.480   6.696   0.044 -1.0903  0.3281 -1.6052
 1418TIP3   OH225888   5.901   1.800   0.828  0.2498 -0.5006  0.0015
 1418TIP3    H125889   5.823   1.766   0.874 -1.0380  0.9797 -0.9790
 1418TIP3    H225890   5.938   1.864   0.889 -1.0714  0.9742 -0.6712
 1419TIP3   OH225891   3.151   5.607   2.747 -0.0488  0.3042 -0.1766
 1419TIP3    H125892   3.070   5.623   2.698 -0.5938 -1.5138  0.0455
 1419TIP3    H225893   3.215   5.667   2.708 -0.6138 -0.6058 -2.6800
 1420TIP3   OH225894   4.468   0.880   7.214  0.4286  0.1990  0.4671
 1420TIP3    H125895   4.458   0.785   7.221  0.5283  0.0196 -1.3084
 1420TIP3    H225896   4.514   0.893   7.131 -2.5303  1.9073 -1.0922
 1421TIP3   OH225897   1.965   4.700   1.786  0.2103  0.3662 -0.1185
 1421TIP3    H125898   2.050   4.657   1.781  0.5270  1.0667 -0.9816
 1421TIP3    H225899   1.944   4.722   1.695  0.6688  3.1963  0.3718
 1422TIP3   OH225900   1.480   1.319   1.358  0.0970  0.3668  0.0019
 1422TIP3    H125901   1.534   1.397   1.353 -0.2147  0.5664 -0.2315
 1422TIP3    H225902   1.540   1.247   1.337  0.2737  0.5833 -0.2387
 1423TIP3   OH225903   6.219   6.868   0.888  0.2359  0.0002  0.4046
 1423TIP3    H125904   6.130   6.842   0.911  0.2740 -1.6108 -1.0166
 1423TIP3    H225905   6.212   6.899   0.798  0.9086  1.2058  0.7441
 1424TIP3   OH225906   2.764   1.791   0.084  0.1234 -0.1917 -0.0389
 1424TIP3    H125907   2.709   1.849   0.137  0.2613  1.1695 -1.3227
 1424TIP3    H225908   2.701   1.737   0.035 -0.0982  1.0588 -1.1748
 1425TIP3   OH225909   0.582   1.425   7.825  0.3550  0.0044  0.3368
 1425TIP3    H125910   0.593   1.333   7.800  0.6298 -0.0429  0.6316
 1425TIP3    H225911   0.614   1.473   7.749 -1.5517 -0.1215 -0.6156
 1426TIP3   OH225912   4.483   4.544   0.967 -0.1374  0.0896 -0.3098
 1426TIP3    H125913   4.540   4.602   1.017 -0.4868 -0.6357  0.9765
 1426TIP3    H225914   4.435   4.602   0.908 -0.5386  1.1178  1.0002
 1427TIP3   OH225915   4.394   2.930   1.033  0.5042 -0.0520  0.3968
 1427TIP3    H125916   4.426   3.016   1.060 -0.0620  0.2870 -0.0018
 1427TIP3    H225917   4.471   2.873   1.037  1.7173  1.1720 -2.5158
 1428TIP3   OH225918   0.213   4.199   1.214 -0.5117 -0.7193  0.3741
 1428TIP3    H125919   0.300   4.237   1.223  0.0765 -2.3240  1.9479
 1428TIP3    H225920   0.189   4.172   1.302 -2.9833  0.4131  0.1197
 1429TIP3   OH225921   4.123   2.262   1.042 -0.6236 -0.1852  0.3232
 1429TIP3    H125922   4.198   2.269   1.100  0.0170 -1.7290 -0.2642
 1429TIP3    H225923   4.109   2.351   1.010  2.1648 -0.1135 -1.0185
 1430TIP3   OH225924   5.461   4.236   0.390  0.0073 -0.3013  0.1386
 1430TIP3    H125925   5.435   4.233   0.298  1.6486 -1.5432 -0.3222
 1430TIP3    H225926   5.539   4.291   0.391 -1.8090  2.5170  1.3547
 1431TIP3   OH225927   6.499   1.054   0.272 -0.4516 -0.2776 -0.5869
 1431TIP3    H125928   6.493   0.997   0.194 -1.7147  0.1136 -0.8091
 1431TIP3    H225929   6.446   1.009   0.338 -1.3097  0.5242 -0.7051
 1432TIP3   OH225930   3.831   3.804   7.424  0.0575  0.1298  0.4080
 1432TIP3    H125931   3.843   3.747   7.348  0.0721 -0.4360  0.8305
 1432TIP3    H225932   3.749   3.851   7.406  1.2298  1.7449 -1.0432
 1433TIP3   OH225933   0.714   5.448   2.316  0.5034 -0.2923  0.3481
 1433TIP3    H125934   0.697   5.451   2.410  1.3470 -0.9615  0.5302
 1433TIP3    H225935   0.756   5.364   2.301  0.4202 -0.1769 -0.6301
 1434TIP3   OH225936   1.114   3.232   8.050  0.0258 -0.0478 -0.1628
 1434TIP3    H125937   1.115   3.166   8.119  0.3815 -0.8242 -0.8914
 1434TIP3    H225938   1.050   3.199   7.986 -0.2138  0.6020 -0.2634
 1435TIP3   OH225939   5.334   6.481   7.377  0.3987 -0.3039 -0.4526
 1435TIP3    H125940   5.264   6.547   7.380  0.5786 -0.1351  0.0846
 1435TIP3    H225941   5.301   6.408   7.429  0.0175 -0.8319 -1.4045
 1436TIP3   OH225942   4.545   2.308   1.830  0.0874 -0.1819  0.0197
 1436TIP3    H125943   4.494   2.339   1.755  0.0950  1.7866  0.7635
 1436TIP3    H225944   4.480   2.282   1.895  0.0293  0.5652  0.2723
 1437TIP3   OH225945   6.271   0.432   2.032  0.5517  0.9882 -0.3856
 1437TIP3    H125946   6.341   0.483   1.993  0.9857  0.8249  0.1632
 1437TIP3    H225947   6.273   0.348   1.986  0.9950  0.8327 -0.0879
 1438TIP3   OH225948   5.365   5.368   8.559  0.2505  0.4191 -0.0595
 1438TIP3    H125949   5.375   5.346   8.466 -3.6654  3.3526 -1.4363
 1438TIP3    H225950   5.326   5.290   8.598 -2.9221  0.6991 -2.2378
 1439TIP3   OH225951   5.193   3.555   0.113 -0.0910 -0.7649 -0.3152
 1439TIP3    H125952   5.179   3.461   0.118  0.7232 -0.8709  0.1884
 1439TIP3    H225953   5.259   3.573   0.180  0.9050 -0.0659 -1.4430
 1440TIP3   OH225954   1.483   1.697   1.590  0.3421 -0.3693 -0.5881
 1440TIP3    H125955   1.507   1.784   1.621  2.0508 -0.4740 -1.4875
 1440TIP3    H225956   1.510   1.638   1.661  0.4191 -0.2666 -0.5319
 1441TIP3   OH225957   6.455   6.226   7.179 -0.6578  0.4979 -0.5986
 1441TIP3    H125958   6.364   6.200   7.163 -0.8934  0.0572  1.2288
 1441TIP3    H225959   6.499   6.213   7.094 -1.8026 -1.4771 -0.9621
 1442TIP3   OH225960   1.074   1.563   2.327 -0.3715 -0.1292 -0.2004
 1442TIP3    H125961   1.005   1.560   2.260 -1.5614  1.8576  0.8164
 1442TIP3    H225962   1.030   1.534   2.407  0.2088  0.3058  0.2843
 1443TIP3   OH225963   2.676   5.074   7.041 -0.9206 -0.8565  0.9079
 1443TIP3    H125964   2.742   5.026   7.092  0.7325  0.0558 -0.2958
 1443TIP3    H225965   2.709   5.074   6.952 -3.2145 -1.4446 -0.0202
 1444TIP3   OH225966   4.806   3.638   1.855 -0.7068 -0.0412  0.1820
 1444TIP3    H125967   4.873   3.657   1.922 -0.5763 -1.1013  0.3739
 1444TIP3    H225968   4.815   3.545   1.839 -1.1912  0.0819 -0.8504
 1445TIP3   OH225969   0.634   4.974   8.222  0.6993 -0.0696 -0.4962
 1445TIP3    H125970   0.560   5.025   8.255 -0.8109 -2.7900  0.6412
 1445TIP3    H225971   0.710   5.009   8.269 -0.6843 -0.5896  2.3765
 1446TIP3   OH225972   4.111   4.135   6.849  0.5286 -0.0282 -0.2522
 1446TIP3    H125973   4.071   4.221   6.856  1.3373  0.3823 -0.4929
 1446TIP3    H225974   4.182   4.147   6.785  1.9940 -0.3331  1.2365
 1447TIP3   OH225975   6.618   4.436   0.326  0.0680  0.4917 -0.1073
 1447TIP3    H125976   6.577   4.434   0.412 -0.4442 -0.6303 -0.3567
 1447TIP3    H225977   6.582   4.514   0.283 -2.9413 -1.1548 -0.8254
 1448TIP3   OH225978   1.909   3.203   7.857  0.1972  0.2654 -0.0990
 1448TIP3    H125979   2.003   3.203   7.840  0.1148  1.5456 -0.7204
 1448TIP3    H225980   1.869   3.194   7.770 -0.2310  1.7965 -0.0905
 1449TIP3   OH225981   1.606   5.781   2.051  0.1932 -0.0625 -0.2538
 1449TIP3    H125982   1.606   5.825   1.966 -1.2099  0.7457  0.1217
 1449TIP3    H225983   1.531   5.818   2.097  0.4572 -1.0555  1.0514
 1450TIP3   OH225984   0.680   1.775   1.433  0.0693  0.8564 -0.1050
 1450TIP3    H125985   0.720   1.862   1.421 -0.8587  1.3515  0.3348
 1450TIP3    H225986   0.602   1.792   1.485 -0.5708 -0.1465 -0.7314
 1451TIP3   OH225987   3.733   5.937   1.044 -0.2343  0.3076 -0.2672
 1451TIP3    H125988   3.772   5.998   0.981  0.4371  0.4789  0.2958
 1451TIP3    H225989   3.787   5.947   1.123 -1.0029  0.0270  0.3009
 1452TIP3   OH225990   2.649   5.801   0.694  0.3498 -0.4225 -0.2832
 1452TIP3    H125991   2.701   5.796   0.774 -0.5166  0.2510  0.3488
 1452TIP3    H225992   2.678   5.881   0.651  0.1934 -0.3109 -0.1832
 1453TIP3   OH225993   5.276   3.249   7.651  0.1096 -0.1064 -0.0397
 1453TIP3    H125994   5.232   3.212   7.575 -1.2458  0.1593  0.5901
 1453TIP3    H225995   5.355   3.290   7.615  0.3145 -1.3611 -1.0724
 1454TIP3   OH225996   4.851   3.949   2.673  0.5261  0.3889 -0.0738
 1454TIP3    H125997   4.917   4.002   2.717 -0.9868  1.6199  0.8312
 1454TIP3    H225998   4.850   3.981   2.583  0.1321  1.4371  0.2884
 1455TIP3   OH225999   2.579   5.562   0.542  0.3159 -0.2123  0.2146
 1455TIP3    H126000   2.618   5.646   0.566 -0.3238  0.1778 -0.0906
 1455TIP3    H226001   2.535   5.579   0.459 -2.0482 -0.1366  1.3916
 1456TIP3   OH226002   4.631   5.926   1.491 -0.2672 -0.0708 -0.3301
 1456TIP3    H126003   4.705   5.876   1.456  0.0203 -0.5033  0.8457
 1456TIP3    H226004   4.560   5.862   1.498 -0.2164 -0.0742  0.1896
 1457TIP3   OH226005   3.289   0.324   7.649  0.1404 -0.5250 -0.5815
 1457TIP3    H126006   3.290   0.260   7.578  0.8417  0.4008 -1.4465
 1457TIP3    H226007   3.205   0.368   7.641 -0.2757 -1.2181 -0.0844
 1458TIP3   OH226008   4.219   1.007   2.735  0.2639 -0.4295 -0.2143
 1458TIP3    H126009   4.236   1.098   2.761  0.9286 -0.4395 -0.5866
 1458TIP3    H226010   4.159   0.974   2.801  0.4166  0.1311  0.2131
 1459TIP3   OH226011   5.325   2.645   0.450 -0.0567  0.2255  0.3517
 1459TIP3    H126012   5.246   2.690   0.480 -1.2255 -0.4226 -1.5884
 1459TIP3    H226013   5.388   2.715   0.434 -0.1671  0.7419  1.9951
 1460TIP3   OH226014   6.825   0.859   2.099  0.0874 -0.0867  0.0080
 1460TIP3    H126015   6.824   0.818   2.185 -0.0598 -2.0260 -0.8400
 1460TIP3    H226016   6.917   0.858   2.073  0.0752  0.0553 -0.0392
 1461TIP3   OH226017   2.215   0.209   7.993  0.6160 -0.3360  0.0096
 1461TIP3    H126018   2.268   0.141   8.034  1.9948 -1.2956 -3.0422
 1461TIP3    H226019   2.253   0.291   8.024 -1.2648 -0.7315  4.0053
 1462TIP3   OH226020   6.315   6.245   7.532  0.0365  0.2937 -0.4229
 1462TIP3    H126021   6.341   6.269   7.443  0.3815 -0.9444 -0.6632
 1462TIP3    H226022   6.380   6.181   7.560 -0.6462 -0.0720  0.3523
 1463TIP3   OH226023   1.733   0.293   1.361  0.7712 -0.3477 -0.4223
 1463TIP3    H126024   1.660   0.328   1.309  2.0450 -0.1055 -2.1242
 1463TIP3    H226025   1.690   0.244   1.431 -1.0397 -0.5392 -1.5932
 1464TIP3   OH226026   2.144   0.333   7.738 -0.4248  0.2518 -0.0485
 1464TIP3    H126027   2.134   0.282   7.658  0.6875  2.0113 -1.4093
 1464TIP3    H226028   2.225   0.301   7.778  0.2294  0.8648 -0.8547
 1465TIP3   OH226029   5.720   3.668   8.033 -0.2670  0.0465 -0.2808
 1465TIP3    H126030   5.791   3.687   7.972  0.1202  1.5681  0.5992
 1465TIP3    H226031   5.732   3.730   8.104 -2.7199  0.6375 -0.2914
 1466TIP3   OH226032   3.944   6.259   0.585  0.2259 -0.0883  0.1215
 1466TIP3    H126033   4.022   6.307   0.560  1.0711 -1.3003  0.3223
 1466TIP3    H226034   3.932   6.194   0.515 -0.8565  0.3548 -0.1281
 1467TIP3   OH226035   1.505   1.358   2.251 -1.2488  0.3847 -0.4154
 1467TIP3    H126036   1.541   1.439   2.216  0.6620 -0.4141 -0.4613
 1467TIP3    H226037   1.525   1.292   2.185  0.0256 -0.6624  0.9234
 1468TIP3   OH226038   2.534   3.148   1.071 -0.0131 -0.1766 -0.0310
 1468TIP3    H126039   2.625   3.118   1.082  0.0938 -0.0246 -0.4666
 1468TIP3    H226040   2.506   3.172   1.159  0.6833  0.6676 -0.0301
 1469TIP3   OH226041   1.556   1.621   2.174  0.0722 -0.0404 -0.1397
 1469TIP3    H126042   1.461   1.626   2.176  0.0741  1.6589  3.3716
 1469TIP3    H226043   1.581   1.666   2.093 -2.0795  2.7200  0.5910
 1470TIP3   OH226044   6.708   3.803   7.717  0.2509 -0.2517 -0.2575
 1470TIP3    H126045   6.690   3.794   7.623 -0.9933 -0.2190 -0.0310
 1470TIP3    H226046   6.730   3.895   7.728  2.3136 -0.6235 -0.8055
 1471TIP3   OH226047   3.960   5.435   2.327  0.0239 -0.1880  0.0942
 1471TIP3    H126048   3.914   5.353   2.312  0.0494 -0.7336  2.4883
 1471TIP3    H226049   3.996   5.426   2.416  0.4155  2.2152  0.2527
 1472TIP3   OH226050   5.315   1.801   2.396  0.0099 -0.1676  0.0777
 1472TIP3    H126051   5.352   1.733   2.340 -0.8473  0.6670 -1.6089
 1472TIP3    H226052   5.220   1.787   2.391 -0.1538  0.8517  0.0760
 1473TIP3   OH226053   0.050   0.642   7.435  0.6937 -0.1996 -0.3507
 1473TIP3    H126054   0.081   0.693   7.360  1.1524 -0.9686 -0.7007
 1473TIP3    H226055   0.047   0.551   7.403 -0.7266 -0.3298  0.0520
 1474TIP3   OH226056   6.160   1.407   0.045  0.0497 -0.0533  0.0179
 1474TIP3    H126057   6.196   1.489   0.010 -1.3118  0.2601 -0.7350
 1474TIP3    H226058   6.229   1.343   0.033  0.7178  0.7408 -0.4520
 1475TIP3   OH226059   3.351   3.365   7.267  0.5468  0.2386 -1.2206
 1475TIP3    H126060   3.381   3.335   7.181  0.8202 -0.9410 -0.7316
 1475TIP3    H226061   3.390   3.303   7.329  0.9575  1.4938 -0.1713
 1476TIP3   OH226062   5.401   5.259   2.397  0.2322  0.1249 -0.3186
 1476TIP3    H126063   5.430   5.308   2.474  0.0454  0.3943 -0.4183
 1476TIP3    H226064   5.407   5.167   2.424 -0.7012  0.2407  0.3419
 1477TIP3   OH226065   1.655   1.493   0.088  0.1880 -0.1227 -0.0743
 1477TIP3    H126066   1.635   1.517   0.179  0.9153 -0.9932  0.3372
 1477TIP3    H226067   1.582   1.438   0.061  1.4991 -2.5975  1.1339
 1478TIP3   OH226068   3.760   2.968   0.507 -0.1644 -0.0089  0.1096
 1478TIP3    H126069   3.681   2.997   0.551 -0.7284 -0.4195 -0.5989
 1478TIP3    H226070   3.781   3.038   0.446 -0.6860 -0.4163 -0.5574
 1479TIP3   OH226071   0.514   5.486   0.553  0.0137  0.8728 -0.6888
 1479TIP3    H126072   0.591   5.429   0.557 -0.4254  0.2871 -0.3885
 1479TIP3    H226073   0.533   5.556   0.616 -0.1838  0.1046  0.2483
 1480TIP3   OH226074   5.040   2.280   0.471  0.1087 -0.1478 -0.2016
 1480TIP3    H126075   4.952   2.252   0.497 -0.4148  0.0873 -1.6358
 1480TIP3    H226076   5.086   2.296   0.554 -0.6954 -1.7592  0.5966
 1481TIP3   OH226077   2.484   6.190   1.288 -0.0911  0.6427  0.6401
 1481TIP3    H126078   2.402   6.172   1.333 -0.1707 -1.4908 -0.2580
 1481TIP3    H226079   2.550   6.144   1.339 -0.1676 -1.7231 -1.1957
 1482TIP3   OH226080   1.982   1.630   7.707  0.3785  0.3542 -0.3739
 1482TIP3    H126081   2.010   1.708   7.659 -0.1905  0.6845 -0.1757
 1482TIP3    H226082   1.926   1.663   7.777  1.1879 -0.1228  0.5257
 1483TIP3   OH226083   4.727   0.332   2.308 -0.4871  0.0152  0.4105
 1483TIP3    H126084   4.698   0.275   2.379 -0.1798  0.7978  1.1846
 1483TIP3    H226085   4.803   0.378   2.344 -0.1321  0.1886 -0.5431
 1484TIP3   OH226086   3.566   4.474   3.189 -0.5470  0.0592  1.0347
 1484TIP3    H126087   3.497   4.537   3.171  0.8351  1.2275 -0.4760
 1484TIP3    H226088   3.632   4.524   3.238  0.5829 -0.1292 -0.2184
 1485TIP3   OH226089   1.190   5.148   1.109 -0.3773  0.4832  0.5516
 1485TIP3    H126090   1.095   5.155   1.114 -0.6333 -0.5758 -1.7463
 1485TIP3    H226091   1.215   5.207   1.039  0.9411  2.1595  2.3256
 1486TIP3   OH226092   6.770   4.025   7.201  0.1644  0.0377 -0.1815
 1486TIP3    H126093   6.705   3.977   7.149  2.2669 -1.4134 -1.6374
 1486TIP3    H226094   6.842   4.042   7.140  1.0348  1.9355  1.2608
 1487TIP3   OH226095   5.999   4.454   8.270 -0.3520  1.1793  0.2100
 1487TIP3    H126096   6.048   4.503   8.204  0.1362  0.3531 -0.0594
 1487TIP3    H226097   5.909   4.483   8.260 -0.0057  2.4042  0.4118
 1488TIP3   OH226098   1.158   6.705   2.089  0.5442  0.1120 -0.1874
 1488TIP3    H126099   1.141   6.759   2.012 -0.2902  0.3796  0.1651
 1488TIP3    H226100   1.085   6.644   2.092  0.8036 -0.1849  0.1398
 1489TIP3   OH226101   0.096   5.626   2.623 -0.3811  0.3898  0.2442
 1489TIP3    H126102   0.120   5.540   2.657 -1.3892 -0.8392 -1.8616
 1489TIP3    H226103   0.179   5.666   2.597 -0.0348 -1.2134 -1.3684
 1490TIP3   OH226104   0.828   0.000   7.884  0.0595 -0.5187  0.2043
 1490TIP3    H126105   0.876   0.081   7.866  1.7865 -1.6623 -0.5906
 1490TIP3    H226106   0.849  -0.057   7.810 -1.8338 -1.4127  0.3010
 1491TIP3   OH226107   0.029   3.080   8.637 -0.6148 -0.0633  0.3058
 1491TIP3    H126108   0.001   3.162   8.677  1.3440  0.8127 -0.0304
 1491TIP3    H226109   0.059   3.105   8.550  1.4468 -0.8589  0.7450
 1492TIP3   OH226110   6.198   5.210   2.147  0.4991 -0.0230 -0.1121
 1492TIP3    H126111   6.222   5.138   2.089  1.9219 -1.1927  1.8111
 1492TIP3    H226112   6.236   5.187   2.231  0.1986  2.5497  0.8278
 1493TIP3   OH226113   5.763   6.113   8.039 -0.0773 -0.4924  0.1253
 1493TIP3    H126114   5.747   6.020   8.055 -1.8009 -0.0061  1.5226
 1493TIP3    H226115   5.678   6.147   8.010  0.7322  0.5054 -1.1942
 1494TIP3   OH226116   3.340   3.372   0.453  0.3781 -0.3378 -0.2484
 1494TIP3    H126117   3.404   3.424   0.502  1.4417 -2.7639  1.1536
 1494TIP3    H226118   3.392   3.308   0.405 -0.9133 -2.0108  0.4630
 1495TIP3   OH226119   0.264   1.372   7.382 -0.3895  0.4522  0.0536
 1495TIP3    H126120   0.180   1.388   7.425 -0.2747 -0.2143  0.5326
 1495TIP3    H226121   0.316   1.450   7.402  0.1894 -0.4548  2.4519
 1496TIP3   OH226122   5.036   1.624   2.659 -0.0255 -0.5578  0.5856
 1496TIP3    H126123   5.011   1.639   2.568 -1.5885 -0.3417  1.0283
 1496TIP3    H226124   5.001   1.698   2.707 -1.2484 -1.7931  1.6926
 1497TIP3   OH226125   3.403   1.974   2.104 -0.5418 -0.1284  0.1870
 1497TIP3    H126126   3.384   2.049   2.047 -2.9468 -0.7285  0.0844
 1497TIP3    H226127   3.479   1.932   2.064 -0.2321  1.2462 -0.7564
 1498TIP3   OH226128   0.197   3.293   7.931  0.7715  0.1325 -0.1863
 1498TIP3    H126129   0.276   3.341   7.909  0.8643  0.0704  0.0122
 1498TIP3    H226130   0.164   3.335   8.010  0.5064  0.2737 -0.3697
 1499TIP3   OH226131   3.703   5.722   1.280  0.2513 -0.1871  0.7684
 1499TIP3    H126132   3.697   5.779   1.203 -0.8662 -0.5981  0.5189
 1499TIP3    H226133   3.616   5.682   1.286  0.1714  0.1693  2.5224
 1500TIP3   OH226134   2.159   6.315   1.531 -0.2234  0.1612  0.2720
 1500TIP3    H126135   2.119   6.279   1.453 -1.0782  0.3195  0.6309
 1500TIP3    H226136   2.097   6.381   1.562  0.1915  0.2302  0.9800
 1501TIP3   OH226137   6.452   5.452   7.163  0.7261 -0.3634 -0.4266
 1501TIP3    H126138   6.516   5.498   7.108  1.2347  1.0107  1.2632
 1501TIP3    H226139   6.502   5.382   7.204  0.5422 -0.8377 -0.9838
 1502TIP3   OH226140   1.995   3.238   1.727  0.1983  1.0279  0.4055
 1502TIP3    H126141   2.027   3.291   1.654  1.1771  1.2037  0.9451
 1502TIP3    H226142   2.074   3.214   1.775 -0.5147  1.8320  2.0336
 1503TIP3   OH226143   4.363   1.640   2.271  0.2556 -0.1734  0.3970
 1503TIP3    H126144   4.455   1.640   2.246  0.5103 -1.0286  1.2604
 1503TIP3    H226145   4.359   1.698   2.347  0.7950 -2.8348  2.6142
 1504TIP3   OH226146   6.513   5.925   2.198 -0.1640  0.4107 -0.5954
 1504TIP3    H126147   6.523   5.885   2.112 -1.3300  0.6448 -0.8511
 1504TIP3    H226148   6.540   6.016   2.186  1.4388  0.0085 -0.2661
 1505TIP3   OH226149   5.653   6.839   8.515  0.1005 -0.0073 -0.2505
 1505TIP3    H126150   5.632   6.924   8.554  0.7453 -0.7366  1.7811
 1505TIP3    H226151   5.743   6.822   8.543 -0.2567 -1.6735 -0.0280
 1506TIP3   OH226152   5.932   0.452   0.515 -0.3330 -0.2926 -0.1042
 1506TIP3    H126153   5.954   0.406   0.434 -1.5773 -0.5605 -0.3088
 1506TIP3    H226154   5.971   0.398   0.584  1.9641  0.6706 -0.5420
 1507TIP3   OH226155   1.202   4.190   7.210 -0.3118  0.4856  0.6372
 1507TIP3    H126156   1.285   4.143   7.206  1.3818  3.3246  0.2420
 1507TIP3    H226157   1.178   4.205   7.119  0.4426  2.4044  0.7181
 1508TIP3   OH226158   5.572   2.364   2.056  0.0124 -0.3375  0.2174
 1508TIP3    H126159   5.607   2.425   1.991  0.2121 -0.1266  0.5219
 1508TIP3    H226160   5.617   2.281   2.038 -0.1449 -0.3562 -0.0975
 1509TIP3   OH226161   4.836   6.230   1.665  0.3197 -0.3146 -1.0092
 1509TIP3    H126162   4.860   6.138   1.680  0.9665  0.1151  0.8485
 1509TIP3    H226163   4.897   6.260   1.597  1.1133 -0.8719 -0.5689
 1510TIP3   OH226164   4.207   2.734   0.567 -0.6893 -0.1012  0.3677
 1510TIP3    H126165   4.148   2.658   0.566 -0.4033 -0.4808  3.1137
 1510TIP3    H226166   4.174   2.788   0.639 -1.6513  3.1468 -2.2493
 1511TIP3   OH226167   3.518   2.977   7.075 -0.4668  0.1845 -0.0218
 1511TIP3    H126168   3.488   2.919   7.006 -0.1309  2.9164 -2.6591
 1511TIP3    H226169   3.453   3.048   7.078  0.6019  1.1790  1.0369
 1512TIP3   OH226170   4.668   1.415   1.369 -0.1450  0.8704  0.4361
 1512TIP3    H126171   4.618   1.467   1.432  1.8068  1.5068  1.5328
 1512TIP3    H226172   4.681   1.474   1.295 -0.9983  0.6989  0.1428
 1513TIP3   OH226173   1.748   1.766   7.499 -0.9686 -0.3499  0.1795
 1513TIP3    H126174   1.685   1.694   7.498  0.5402 -1.7270 -0.7976
 1513TIP3    H226175   1.713   1.827   7.564 -3.8715 -0.4874 -1.0929
 1514TIP3   OH226176   0.532   1.060   2.387 -0.0460 -0.2654 -0.3424
 1514TIP3    H126177   0.469   1.126   2.415  0.3735 -0.3907  0.9806
 1514TIP3    H226178   0.497   0.977   2.420 -0.4616 -0.7013 -1.8023
 1515TIP3   OH226179   5.966   4.160   8.251 -0.7455 -0.0136 -0.2502
 1515TIP3    H126180   5.872   4.143   8.249 -0.8174  0.4585 -1.1805
 1515TIP3    H226181   5.973   4.255   8.267 -0.4756  0.2729 -1.8989
 1516TIP3   OH226182   0.514   3.029   0.396  0.1779  0.0285 -0.0890
 1516TIP3    H126183   0.477   3.025   0.484 -0.6528 -0.2463 -0.4363
 1516TIP3    H226184   0.532   2.937   0.374  0.4632  0.1040 -0.1781
 1517TIP3   OH226185   3.882   4.763   8.477  0.3479 -0.0468 -0.3805
 1517TIP3    H126186   3.909   4.755   8.568  0.2392 -1.1941 -0.4252
 1517TIP3    H226187   3.800   4.713   8.472  1.0809 -1.2208 -1.3804
 1518TIP3   OH226188   4.374   6.186   8.503  0.0859 -0.2359  0.1402
 1518TIP3    H126189   4.332   6.256   8.453 -0.6446 -1.1158 -0.5330
 1518TIP3    H226190   4.392   6.225   8.588 -2.3164  0.1563  0.5390
 1519TIP3   OH226191   2.111   0.111   6.362 -0.5266  0.2343 -0.4793
 1519TIP3    H126192   2.157   0.188   6.396  1.1172 -0.8296 -0.2033
 1519TIP3    H226193   2.027   0.110   6.409 -0.2206  1.3643  0.1305
 1520TIP3   OH226194   5.927   2.728   0.935  0.4817  0.1037  0.1023
 1520TIP3    H126195   5.973   2.727   1.019 -0.8303  0.5765  0.8670
 1520TIP3    H226196   5.896   2.818   0.926 -1.5329 -0.5047  0.3645
 1521TIP3   OH226197   3.312   4.975   7.340 -0.1472 -1.1001  0.4041
 1521TIP3    H126198   3.249   4.947   7.273  0.9912 -0.0662 -1.1773
 1521TIP3    H226199   3.384   4.913   7.333 -0.6325 -1.8335  1.6867
 1522TIP3   OH226200   5.841   1.073   7.561  0.2281  0.0206  0.5563
 1522TIP3    H126201   5.855   1.070   7.466 -0.1476  0.3342  0.4887
 1522TIP3    H226202   5.790   1.153   7.575  1.1436  0.5177  1.1419
 1523TIP3   OH226203   4.311   0.687   0.450 -0.4808 -0.9658  0.4174
 1523TIP3    H126204   4.389   0.639   0.478  0.7876  0.6987 -0.0743
 1523TIP3    H226205   4.270   0.715   0.532  0.5904 -0.1291  0.6876
 1524TIP3   OH226206   5.116   4.519   2.316 -0.0691  0.5490  0.5954
 1524TIP3    H126207   5.122   4.424   2.316 -0.1053  0.5453  0.2458
 1524TIP3    H226208   5.207   4.550   2.316 -0.0137  0.5331  2.7661
 1525TIP3   OH226209   3.558   3.375   0.044 -0.0968 -0.1917 -0.4503
 1525TIP3    H126210   3.517   3.453   0.006  0.3628  1.3253  1.9203
 1525TIP3    H226211   3.561   3.312  -0.027  0.2093  2.2121 -2.7145
 1526TIP3   OH226212   6.153   6.369   8.076 -0.3033 -0.1484  0.4586
 1526TIP3    H126213   6.097   6.348   8.151 -1.8342 -2.7750 -1.2663
 1526TIP3    H226214   6.099   6.348   8.000  0.9803  2.9442 -1.4668
 1527TIP3   OH226215   3.394   4.734   8.458  0.5029  0.1385 -0.4719
 1527TIP3    H126216   3.364   4.789   8.385  2.8344 -0.9324 -2.4184
 1527TIP3    H226217   3.330   4.748   8.527 -2.6492  0.2405 -3.1631
 1528TIP3   OH226218   1.805   2.535   1.802 -0.0911  0.1977  0.3184
 1528TIP3    H126219   1.753   2.521   1.881 -0.3913 -0.9545 -0.0656
 1528TIP3    H226220   1.741   2.549   1.733  0.1703  1.2243  0.2650
 1529TIP3   OH226221   2.152   2.570   0.988  0.1035  0.0854  0.3685
 1529TIP3    H126222   2.109   2.655   0.990  1.1144  0.6342 -0.7340
 1529TIP3    H226223   2.167   2.549   1.080 -1.0891  0.6000  0.6997
 1530TIP3   OH226224   2.571   0.099   7.912  0.0007  0.3447 -0.2021
 1530TIP3    H126225   2.646   0.158   7.921 -0.1200  0.7062 -1.3617
 1530TIP3    H226226   2.589   0.027   7.972  0.9762  0.7293 -0.0233
 1531TIP3   OH226227   6.241   5.583   7.835  0.1693  0.0929 -0.3367
 1531TIP3    H126228   6.311   5.520   7.817 -2.3499 -2.5770 -1.4878
 1531TIP3    H226229   6.236   5.637   7.756 -0.1647 -0.8605 -0.9858
 1532TIP3   OH226230   5.559   6.086   2.552  0.1757 -0.5922 -0.0102
 1532TIP3    H126231   5.616   6.115   2.624  0.4256 -1.4089  0.1320
 1532TIP3    H226232   5.598   6.003   2.523 -1.7373 -1.9413  1.0651
 1533TIP3   OH226233   0.863   0.304   0.131 -0.2743  0.0104  0.0985
 1533TIP3    H126234   0.801   0.335   0.197 -0.9816  0.8885 -0.9470
 1533TIP3    H226235   0.885   0.382   0.080  0.1395 -0.6763 -0.7971
 1534TIP3   OH226236   1.092   2.226   0.029  0.2889  0.3232 -0.4376
 1534TIP3    H126237   1.006   2.255   0.059  1.0534  1.7602  0.5119
 1534TIP3    H226238   1.151   2.296   0.056  1.6501 -0.2661 -1.7727
 1535TIP3   OH226239   0.809   1.213   7.852  0.3909  0.1898 -0.0512
 1535TIP3    H126240   0.746   1.193   7.784  1.1630  0.0557 -0.7413
 1535TIP3    H226241   0.780   1.162   7.928 -0.5397  0.4384 -0.2317
 1536TIP3   OH226242   4.755   6.881   2.233 -0.3133  0.2026 -0.7670
 1536TIP3    H126243   4.847   6.856   2.229 -0.5136 -0.5681 -0.7011
 1536TIP3    H226244   4.719   6.858   2.147 -0.4630  0.4350 -0.7692
 1537TIP3   OH226245   3.519   1.922   7.620 -0.3755  0.0083 -0.0520
 1537TIP3    H126246   3.432   1.915   7.582 -0.7702 -1.5757  1.0725
 1537TIP3    H226247   3.517   2.005   7.668 -2.1928 -1.1440  2.0769
 1538TIP3   OH226248   0.118   4.329   0.658  0.2873  0.5227 -0.0809
 1538TIP3    H126249   0.089   4.251   0.705  1.5343  0.1373  0.0722
 1538TIP3    H226250   0.078   4.402   0.705 -0.3979  0.0137  0.1347
 1539TIP3   OH226251   1.178   3.873   1.416  0.3729  0.3891 -0.1975
 1539TIP3    H126252   1.218   3.828   1.491 -0.7267  1.5800  1.1700
 1539TIP3    H226253   1.105   3.816   1.391  0.3845  0.2646  0.0412
 1540TIP3   OH226254   6.401   3.874   7.718 -0.4635 -0.2282  1.0571
 1540TIP3    H126255   6.481   3.921   7.692 -0.0152 -0.6517  1.6449
 1540TIP3    H226256   6.430   3.814   7.786 -1.2125 -0.6900  0.9767
 1541TIP3   OH226257   4.899   4.270   7.980 -0.0375 -0.0579  0.4638
 1541TIP3    H126258   4.883   4.334   7.910  1.9840 -0.8488 -0.8155
 1541TIP3    H226259   4.981   4.298   8.020  0.6549 -1.5394  0.1653
 1542TIP3   OH226260   1.997   2.040   1.242 -0.0255  0.0163 -0.1536
 1542TIP3    H126261   1.916   2.012   1.285  0.5448  0.9801  1.6229
 1542TIP3    H226262   2.061   1.974   1.268 -0.2391 -0.8933 -1.7710
 1543TIP3   OH226263   4.019   3.312   6.682 -0.2612 -0.7432  0.0210
 1543TIP3    H126264   3.934   3.316   6.725 -0.6723  1.6301 -0.8750
 1543TIP3    H226265   4.014   3.378   6.613  2.2451 -0.6873 -0.1950
 1544TIP3   OH226266   4.773   5.796   0.449  0.1804 -0.2782 -0.7688
 1544TIP3    H126267   4.697   5.742   0.427  0.3552 -1.4837  1.3064
 1544TIP3    H226268   4.781   5.788   0.544  1.9864  1.0880 -0.7574
 1545TIP3   OH226269   0.691   6.057   8.502 -0.3637  0.2581  0.8433
 1545TIP3    H126270   0.758   6.042   8.568 -0.5340  0.5997  1.0990
 1545TIP3    H226271   0.679   5.972   8.460  1.2903  0.5051 -0.2329
 1546TIP3   OH226272   4.075   6.855   0.217 -0.0871  0.7523 -0.2405
 1546TIP3    H126273   3.996   6.886   0.261  0.0735  1.3585 -0.3703
 1546TIP3    H226274   4.043   6.804   0.143 -0.3559  0.7955 -0.1571
 1547TIP3   OH226275   3.123   6.145   7.029  0.4824 -0.0131 -0.1073
 1547TIP3    H126276   3.086   6.079   6.970  1.1569  1.3444 -2.1594
 1547TIP3    H226277   3.122   6.226   6.977 -0.0843  1.5633  2.2263
 1548TIP3   OH226278   5.252   4.561   0.362  0.2026  0.5283  0.2919
 1548TIP3    H126279   5.211   4.589   0.444  1.9077  1.6609  0.8065
 1548TIP3    H226280   5.285   4.642   0.323  0.5878 -0.1668 -0.8662
 1549TIP3   OH226281   3.028   1.166   1.187 -0.4241  0.3037  0.2995
 1549TIP3    H126282   3.111   1.136   1.150 -0.7148 -0.4489  0.2395
 1549TIP3    H226283   3.014   1.110   1.263 -0.9779  0.2870  0.1867
 1550TIP3   OH226284   3.656   6.164   8.084  0.8394 -0.5599 -0.2298
 1550TIP3    H126285   3.566   6.136   8.100  1.1711 -1.5437 -0.0542
 1550TIP3    H226286   3.706   6.130   8.158  1.4656 -0.5932 -0.6591
 1551TIP3   OH226287   6.054   0.221   0.980 -0.2344  0.2735  0.0307
 1551TIP3    H126288   5.988   0.251   0.918  0.1040  0.5595 -0.1960
 1551TIP3    H226289   6.137   0.227   0.933 -0.2285 -1.9244 -0.3600
 1552TIP3   OH226290   6.464   2.427   1.530 -0.5110 -0.1638 -0.1108
 1552TIP3    H126291   6.560   2.428   1.528 -0.5148 -0.1571 -0.3076
 1552TIP3    H226292   6.443   2.363   1.599 -0.3660 -0.2601 -0.1539
 1553TIP3   OH226293   1.987   6.501   0.048 -0.3933  0.0547 -0.0478
 1553TIP3    H126294   1.967   6.434  -0.018  0.9523  0.7089 -1.1737
 1553TIP3    H226295   1.908   6.505   0.103 -2.8309  1.4615 -3.2784
 1554TIP3   OH226296   3.368   4.683   1.784  0.4163 -0.0236 -0.4544
 1554TIP3    H126297   3.275   4.659   1.784  0.2965  0.3529  0.9601
 1554TIP3    H226298   3.412   4.607   1.746 -0.4803 -0.0898 -1.4088
 1555TIP3   OH226299   6.202   0.880   2.178 -0.3743 -0.4153 -0.0112
 1555TIP3    H126300   6.185   0.815   2.111  1.8752 -0.2121 -0.8627
 1555TIP3    H226301   6.272   0.843   2.231 -0.3677  0.5142  0.6660
 1556TIP3   OH226302   4.150   4.879   0.969  0.2894 -0.1969  0.3072
 1556TIP3    H126303   4.111   4.897   1.054 -2.2177  0.9896 -1.0030
 1556TIP3    H226304   4.090   4.918   0.905  3.8811  2.3115 -1.9355
 1557TIP3   OH226305   3.172   0.805   0.824 -0.4025 -0.2740 -0.0221
 1557TIP3    H126306   3.114   0.873   0.789 -1.1122 -0.8145  0.1009
 1557TIP3    H226307   3.257   0.849   0.831 -1.2245  1.1694  1.7820
 1558TIP3   OH226308   4.051   5.930   7.764 -0.3669 -0.6752  0.1966
 1558TIP3    H126309   4.037   5.836   7.750  1.7105 -1.4776  2.7500
 1558TIP3    H226310   4.030   5.943   7.857  1.0992  0.9873  0.3349
 1559TIP3   OH226311   0.358   2.676   1.176  0.5743  0.0671  0.3333
 1559TIP3    H126312   0.297   2.603   1.186 -0.0094  0.5187  0.1014
 1559TIP3    H226313   0.442   2.634   1.159  0.5462 -0.5893  1.6679
 1560TIP3   OH226314   2.019   1.321   1.305 -0.6221 -0.3119 -0.2496
 1560TIP3    H126315   1.958   1.388   1.275 -1.2641  0.4240  2.4553
 1560TIP3    H226316   1.989   1.240   1.264 -1.6444  0.5195 -1.1980
 1561TIP3   OH226317   4.142   3.522   2.788 -1.1071  0.0542 -0.3425
 1561TIP3    H126318   4.061   3.529   2.839 -0.3918  0.2267  0.7798
 1561TIP3    H226319   4.129   3.585   2.716 -2.3695 -0.6386 -0.7663
 1562TIP3   OH226320   1.272   1.273   2.605 -0.2252  0.0068  0.0568
 1562TIP3    H126321   1.258   1.342   2.539  0.9346 -0.7606 -1.0388
 1562TIP3    H226322   1.366   1.279   2.625 -0.5672  0.2639  1.7279
 1563TIP3   OH226323   6.705   6.581   2.709 -0.2117 -0.7271  0.3416
 1563TIP3    H126324   6.653   6.500   2.710 -0.1450 -0.7801 -0.1652
 1563TIP3    H226325   6.652   6.642   2.658  0.0421 -0.6592  0.1570
 1564TIP3   OH226326   5.045   4.249   0.706 -0.1733  0.4631 -0.0622
 1564TIP3    H126327   5.017   4.334   0.740 -1.1409 -0.2136  0.9503
 1564TIP3    H226328   4.964   4.198   0.702  0.6768 -1.1627  1.6823
 1565TIP3   OH226329   6.066   1.899   0.192 -0.1410  0.6268 -0.2766
 1565TIP3    H126330   6.091   1.989   0.213  2.9474 -0.2153  0.1275
 1565TIP3    H226331   6.144   1.847   0.212 -1.8049 -2.1690 -0.5156
 1566TIP3   OH226332   3.630   3.051   1.419 -0.0851 -0.0273 -0.7232
 1566TIP3    H126333   3.714   3.097   1.428  0.6787 -1.5071  0.0429
 1566TIP3    H226334   3.569   3.102   1.472  0.8049 -0.0141  0.3215
 1567TIP3   OH226335   0.702   1.996   7.986 -0.5194 -0.1349  0.2402
 1567TIP3    H126336   0.682   2.003   7.893 -0.3658 -0.6885  0.1658
 1567TIP3    H226337   0.686   1.904   8.008 -2.1304  0.3188  1.1338
 1568TIP3   OH226338   6.091   0.229   8.594  0.5624  0.0216  0.3054
 1568TIP3    H126339   6.046   0.166   8.538  1.6283 -0.4320 -0.0667
 1568TIP3    H226340   6.021   0.279   8.635 -0.2595  0.0070 -1.0262
 1569TIP3   OH226341   6.228   1.068   8.065 -0.3533  0.4394 -0.2136
 1569TIP3    H126342   6.167   1.004   8.104  0.3225 -0.1985 -0.1863
 1569TIP3    H226343   6.306   1.017   8.045 -0.8279  0.6183 -2.8992
 1570TIP3   OH226344   6.094   0.775   1.634  0.5394  0.3936  0.0601
 1570TIP3    H126345   6.152   0.742   1.565  0.1700  0.0980 -0.1144
 1570TIP3    H226346   6.105   0.870   1.632  1.2090  0.3212  0.1995
 1571TIP3   OH226347   6.475   1.726   6.558  0.6263  0.0254  0.0047
 1571TIP3    H126348   6.472   1.708   6.652  1.2304  0.8671  0.1915
 1571TIP3    H226349   6.485   1.821   6.552 -0.0766  0.0501 -0.9244
 1572TIP3   OH226350   5.231   1.110   0.868 -0.3969 -0.4457 -0.4635
 1572TIP3    H126351   5.221   1.037   0.929  0.5531 -1.0554 -1.0252
 1572TIP3    H226352   5.144   1.120   0.829 -0.4197 -1.6174 -0.7525
 1573TIP3   OH226353   0.765   1.917   7.067  0.3016  0.2301 -0.4868
 1573TIP3    H126354   0.845   1.871   7.042  0.0297 -0.7016  0.3281
 1573TIP3    H226355   0.710   1.914   6.989  0.7417  0.1834 -0.7978
 1574TIP3   OH226356   5.772   2.254   7.272 -0.2286  0.4246  0.5872
 1574TIP3    H126357   5.712   2.213   7.210 -0.6930  0.3533  1.0747
 1574TIP3    H226358   5.795   2.338   7.232  1.6475 -0.7419 -0.9834
 1575TIP3   OH226359   2.550   4.773   2.284 -0.4912  0.4648 -0.3924
 1575TIP3    H126360   2.474   4.821   2.317 -1.6891 -0.7172 -1.3203
 1575TIP3    H226361   2.524   4.743   2.197  1.4275  0.8750 -1.1596
 1576TIP3   OH226362   0.038   5.049   8.185 -0.0063  0.2499 -0.3440
 1576TIP3    H126363   0.039   4.955   8.201  0.4314  0.3444  0.2192
 1576TIP3    H226364   0.095   5.061   8.108 -1.1640 -0.0799 -1.2836
 1577TIP3   OH226365   2.443   3.454   1.567 -0.3962  0.2673 -0.3040
 1577TIP3    H126366   2.418   3.522   1.504 -2.4131  1.4742  1.6561
 1577TIP3    H226367   2.410   3.373   1.529 -1.6435  0.9747 -0.7882
 1578TIP3   OH226368   6.221   5.002   1.924  0.8428  0.6111 -0.3711
 1578TIP3    H126369   6.316   4.998   1.914  0.6536 -0.3962 -2.1787
 1578TIP3    H226370   6.193   4.911   1.932 -0.0012  0.8820 -0.0276
 1579TIP3   OH226371   3.464   6.844   8.110 -0.0140  0.4794 -0.2117
 1579TIP3    H126372   3.412   6.816   8.035 -0.0094  0.0250 -0.0513
 1579TIP3    H226373   3.461   6.939   8.107 -0.1862  0.4633 -0.6677
 1580TIP3   OH226374   5.999   1.039   0.550 -0.3363 -0.2114  0.0323
 1580TIP3    H126375   6.003   0.983   0.473 -1.4661 -1.1276  0.6111
 1580TIP3    H226376   5.921   1.093   0.536 -0.6009 -0.4474  0.5684
 1581TIP3   OH226377   4.007   5.082   7.504 -0.3390  0.4443 -0.3236
 1581TIP3    H126378   4.071   5.057   7.437 -1.2826  2.5728 -2.1385
 1581TIP3    H226379   4.050   5.151   7.554 -0.5085  0.5305 -0.2947
 1582TIP3   OH226380   3.017   3.695   7.790 -0.0466 -0.4249  0.0615
 1582TIP3    H126381   3.083   3.628   7.776 -0.0387 -0.5368  0.6234
 1582TIP3    H226382   3.057   3.776   7.758 -0.1954 -0.7447 -0.9579
 1583TIP3   OH226383   0.173   2.447   2.842 -0.0249 -0.4112  0.2376
 1583TIP3    H126384   0.177   2.531   2.886 -0.6352 -0.6622  0.7846
 1583TIP3    H226385   0.258   2.407   2.858 -0.0605 -0.2806  0.7520
 1584TIP3   OH226386   0.987   0.365   2.137  0.4171 -0.2077  0.3348
 1584TIP3    H126387   0.914   0.314   2.173  0.1316  0.1314  0.2412
 1584TIP3    H226388   0.967   0.374   2.044  0.3193  0.3121  0.4023
 1585TIP3   OH226389   0.346   6.221   0.790 -0.0758 -0.0194 -0.5486
 1585TIP3    H126390   0.421   6.175   0.827 -1.3669  0.3067  2.8450
 1585TIP3    H226391   0.373   6.313   0.788  0.1959 -0.1071 -0.9684
 1586TIP3   OH226392   6.716   5.829   2.353  0.0729  0.0808  0.2633
 1586TIP3    H126393   6.684   5.829   2.444  1.2110  3.2050  0.7904
 1586TIP3    H226394   6.645   5.869   2.303 -0.0652 -0.5343 -0.0423
 1587TIP3   OH226395   1.454   0.438   0.106  0.3634 -0.6119 -0.3044
 1587TIP3    H126396   1.403   0.495   0.164  1.3491  0.6804 -0.6458
 1587TIP3    H226397   1.394   0.368   0.082 -1.5129  1.1975 -1.2456
 1588TIP3   OH226398   5.948   4.763   0.803  0.4380  0.1938  0.5928
 1588TIP3    H126399   5.884   4.829   0.778  0.7627  1.0520  1.8814
 1588TIP3    H226400   6.025   4.782   0.749  0.3910  0.6157  0.6744
 1589TIP3   OH226401   5.214   5.594   2.115  0.1436  0.1503  0.6936
 1589TIP3    H126402   5.135   5.607   2.062 -0.1269 -1.0333  0.7687
 1589TIP3    H226403   5.181   5.588   2.205 -0.1285 -3.2491  0.5092
 1590TIP3   OH226404   6.093   2.316   1.865 -0.3650  0.2034 -0.1881
 1590TIP3    H126405   6.007   2.277   1.878 -1.6097  1.5853 -3.3178
 1590TIP3    H226406   6.138   2.256   1.805  0.0093  0.5829 -0.2907
 1591TIP3   OH226407   4.214   5.725   7.469  0.1777 -0.1454  0.0366
 1591TIP3    H126408   4.169   5.640   7.475 -0.6112  0.2862  0.4634
 1591TIP3    H226409   4.166   5.773   7.402  1.5153 -0.5431 -1.2323
 1592TIP3   OH226410   4.230   1.833   2.673  0.0950 -0.1614  0.1065
 1592TIP3    H126411   4.290   1.852   2.745  1.0078 -2.2297 -0.0172
 1592TIP3    H226412   4.149   1.879   2.695  1.3285  1.7674  0.8653
 1593TIP3   OH226413   5.371   4.640   7.286  0.0034 -0.8537 -0.1159
 1593TIP3    H126414   5.443   4.698   7.261 -1.3750  0.7927 -0.4637
 1593TIP3    H226415   5.345   4.669   7.373 -0.3356 -1.3361 -0.0487
 1594TIP3   OH226416   5.666   0.332   2.181 -0.3253 -0.6155  0.3578
 1594TIP3    H126417   5.688   0.345   2.273 -0.2910  1.7751  0.0504
 1594TIP3    H226418   5.748   0.346   2.134 -1.0956  2.2398 -0.3000
 1595TIP3   OH226419   6.850   6.716   8.606 -0.4397  0.4965 -0.4808
 1595TIP3    H126420   6.792   6.639   8.603 -0.9735  0.7955  1.2712
 1595TIP3    H226421   6.918   6.692   8.668  0.2914  0.8610 -1.1264
 1596TIP3   OH226422   1.758   4.655   0.537  0.7086 -0.1551 -0.1243
 1596TIP3    H126423   1.767   4.575   0.485  0.1508 -0.6848  0.5681
 1596TIP3    H226424   1.847   4.675   0.566  0.7919 -0.8317  0.1175
 1597TIP3   OH226425   1.114   0.769   2.655  0.1306 -0.1160 -0.1098
 1597TIP3    H126426   1.144   0.778   2.746 -0.9653  0.0014  0.2632
 1597TIP3    H226427   1.068   0.685   2.653  0.2683 -0.1818 -0.5913
 1598TIP3   OH226428   4.958   2.903   1.570 -0.6771  0.6824 -0.2906
 1598TIP3    H126429   4.928   2.993   1.565 -0.8061  0.6876  0.4802
 1598TIP3    H226430   5.030   2.898   1.506 -0.8436  1.2521 -0.5303
 1599TIP3   OH226431   4.528   4.982   7.932 -0.6609  0.0998  0.2129
 1599TIP3    H126432   4.553   4.975   7.840 -0.8822  1.0138  0.0724
 1599TIP3    H226433   4.545   5.073   7.955 -0.8498 -0.0564  1.0081
 1600TIP3   OH226434   2.305   4.458   2.722 -0.4081  0.6366 -0.3664
 1600TIP3    H126435   2.345   4.539   2.753  1.0359 -0.6838  1.4914
 1600TIP3    H226436   2.350   4.389   2.772 -2.1381 -1.2490 -1.2773
 1601TIP3   OH226437   5.580   2.342   0.770 -0.3085 -0.1462  0.4513
 1601TIP3    H126438   5.544   2.392   0.696  2.0334 -1.1308 -1.4916
 1601TIP3    H226439   5.563   2.250   0.747 -0.3391 -0.4487  1.6245
 1602TIP3   OH226440   5.211   2.540   1.589  0.7553 -0.5711  0.0120
 1602TIP3    H126441   5.227   2.499   1.674  0.0289 -0.7750  0.0573
 1602TIP3    H226442   5.159   2.618   1.610  0.1245 -0.9035 -0.2844
 1603TIP3   OH226443   4.937   5.685   8.033  0.0380  0.0830  0.7358
 1603TIP3    H126444   4.883   5.728   7.966  0.1531 -2.3324 -1.0370
 1603TIP3    H226445   5.027   5.699   8.003  0.0563 -1.9088 -0.3020
 1604TIP3   OH226446   3.006   2.824   1.606 -0.2487 -0.0141 -0.7168
 1604TIP3    H126447   2.987   2.746   1.658  0.3333  0.9589  1.0739
 1604TIP3    H226448   2.946   2.819   1.532 -2.2459 -0.7350  0.8385
 1605TIP3   OH226449   4.392   3.035   7.274  0.1704 -0.5805 -0.4393
 1605TIP3    H126450   4.424   3.043   7.183 -0.9325  0.9331 -0.7282
 1605TIP3    H226451   4.303   3.001   7.265 -0.5030  0.9988 -0.0565
 1606TIP3   OH226452   1.180   1.211   7.591  0.3420 -0.0260  0.0139
 1606TIP3    H126453   1.109   1.272   7.573 -0.4657 -1.0723 -0.4537
 1606TIP3    H226454   1.230   1.209   7.509 -1.3219 -2.1458 -1.0505
 1607TIP3   OH226455   5.683   4.059   8.039 -0.4563  0.2200 -0.0901
 1607TIP3    H126456   5.679   4.101   8.125 -2.7836  2.3898 -1.1061
 1607TIP3    H226457   5.591   4.042   8.017 -0.0550  0.9638 -2.6653
 1608TIP3   OH226458   5.366   2.979   7.569 -0.1577 -0.6050  0.5068
 1608TIP3    H126459   5.415   2.907   7.610 -1.7231 -1.3756  1.1381
 1608TIP3    H226460   5.369   3.050   7.633  1.7490  0.0954 -0.2944
 1609TIP3   OH226461   4.990   6.442   1.936 -0.0464  0.0046 -0.2592
 1609TIP3    H126462   4.928   6.437   2.010  0.3714  1.6812  0.2538
 1609TIP3    H226463   4.968   6.525   1.893  0.1227 -0.6617 -1.6813
 1610TIP3   OH226464   3.492   3.802   7.417 -0.0640  0.0084  0.2549
 1610TIP3    H126465   3.432   3.854   7.365 -1.1899 -2.0816 -0.6381
 1610TIP3    H226466   3.524   3.735   7.357  2.7874  0.7033  0.8566
 1611TIP3   OH226467   6.034   5.871   0.257  0.1784  0.0328  0.2990
 1611TIP3    H126468   6.052   5.830   0.172  1.1291 -1.7171  1.2864
 1611TIP3    H226469   5.940   5.861   0.270  0.1230 -0.2270 -0.2911
 1612TIP3   OH226470   1.794   1.724   1.658 -0.0008  0.0174  0.5684
 1612TIP3    H126471   1.807   1.634   1.629 -1.7960 -0.5822  1.4808
 1612TIP3    H226472   1.864   1.738   1.723  1.5925  0.0535 -1.0656
 1613TIP3   OH226473   2.345   6.598   2.171 -0.2673 -0.0830  0.0614
 1613TIP3    H126474   2.317   6.619   2.082 -1.1949  0.3861  0.4380
 1613TIP3    H226475   2.263   6.580   2.218 -0.1189  2.5074  1.5310
 1614TIP3   OH226476   6.171   2.493   2.063  0.0705 -0.2448 -0.3200
 1614TIP3    H126477   6.112   2.468   2.134  1.8356 -1.6412  0.7376
 1614TIP3    H226478   6.164   2.421   2.000  0.7502 -0.5124 -0.0988
 1615TIP3   OH226479   4.940   0.256   0.305 -0.2989 -0.2221  0.1838
 1615TIP3    H126480   5.030   0.231   0.283  0.1154  0.0289  1.4974
 1615TIP3    H226481   4.949   0.312   0.382 -1.4771  1.0468 -0.5561
 1616TIP3   OH226482   0.260   4.417   0.122  0.3886  0.2934  0.1279
 1616TIP3    H126483   0.240   4.510   0.112 -1.2943 -0.1668 -1.1323
 1616TIP3    H226484   0.175   4.374   0.122  1.1673 -1.3037  0.2484
 1617TIP3   OH226485   3.328   6.522   8.488 -0.0824  0.2812 -0.1805
 1617TIP3    H126486   3.254   6.519   8.427 -0.8721  1.0717  0.7110
 1617TIP3    H226487   3.347   6.615   8.499 -0.8956  0.2555  1.8599
 1618TIP3   OH226488   2.612   3.804   6.940 -0.1430 -0.1625  0.0425
 1618TIP3    H126489   2.695   3.766   6.969  1.5435  1.9210 -1.7163
 1618TIP3    H226490   2.595   3.763   6.855  0.0613  0.6826 -0.4205
 1619TIP3   OH226491   0.492   2.259   2.562 -0.1269 -0.1845  0.2366
 1619TIP3    H126492   0.405   2.264   2.523 -0.9065  2.9299  1.9812
 1619TIP3    H226493   0.552   2.280   2.491 -0.9527 -0.5898 -0.5959
 1620TIP3   OH226494   5.969   3.934   6.900  0.3881  0.6729  0.0761
 1620TIP3    H126495   5.881   3.965   6.919  0.2022  0.1730  0.0303
 1620TIP3    H226496   6.006   4.002   6.843  0.3343  1.2978  0.7707
 1621TIP3   OH226497   1.808   1.836   0.029  0.0472  0.1850 -0.0857
 1621TIP3    H126498   1.889   1.883   0.044  1.7448 -1.9084 -1.9792
 1621TIP3    H226499   1.783   1.802   0.115  1.0221  1.0917  0.5629
 1622TIP3   OH226500   6.417   0.721   7.822  0.8931  0.0749 -0.0514
 1622TIP3    H126501   6.393   0.629   7.810 -0.5023  0.2689  1.0497
 1622TIP3    H226502   6.365   0.768   7.757 -0.5023  0.3305  1.2098
 1623TIP3   OH226503   5.243   4.064   1.889  0.1190  0.6322  0.3480
 1623TIP3    H126504   5.211   3.982   1.927  0.3177  1.1881  1.7814
 1623TIP3    H226505   5.228   4.054   1.795 -1.7199 -0.2326  0.6762
 1624TIP3   OH226506   0.261   2.730   0.630 -0.2653 -0.0175  0.0952
 1624TIP3    H126507   0.214   2.740   0.712 -3.1334 -0.4678 -1.3556
 1624TIP3    H226508   0.310   2.648   0.639 -0.7781 -0.2131  1.2048
 1625TIP3   OH226509   1.734   0.019   7.313 -0.1206 -0.1713 -0.0616
 1625TIP3    H126510   1.753   0.109   7.285 -0.5025  0.2533  0.9986
 1625TIP3    H226511   1.669  -0.012   7.249 -0.1282  0.3762 -0.3265
 1626TIP3   OH226512   3.406   3.855   1.821  0.3675 -0.0860 -0.1810
 1626TIP3    H126513   3.464   3.928   1.844  0.0510 -0.2492  1.2365
 1626TIP3    H226514   3.340   3.854   1.891 -0.2246 -1.1014 -0.7315
 1627TIP3   OH226515   4.867   6.582   2.726  0.0914  0.3654 -0.2465
 1627TIP3    H126516   4.847   6.651   2.663  0.0285 -1.2633 -2.1091
 1627TIP3    H226517   4.951   6.547   2.698  0.4558  0.1083  1.0850
 1628TIP3   OH226518   4.542   1.211   7.133 -0.1310 -1.1409 -0.2294
 1628TIP3    H126519   4.573   1.123   7.111  0.3177 -0.9251 -0.4846
 1628TIP3    H226520   4.490   1.199   7.212  0.1434 -1.5971 -0.1143
 1629TIP3   OH226521   0.363   0.716   7.424 -0.1134 -0.4807  0.0057
 1629TIP3    H126522   0.341   0.736   7.333 -0.6680  1.6367  0.5605
 1629TIP3    H226523   0.290   0.750   7.475  0.3258 -1.3726  1.2782
 1630TIP3   OH226524   3.730   0.605   0.967  0.1899  0.3648  1.0065
 1630TIP3    H126525   3.754   0.654   1.045  1.6596 -0.6283  1.2146
 1630TIP3    H226526   3.715   0.516   0.998 -0.8978  0.3190  0.3966
 1631TIP3   OH226527   0.746   0.445   1.564  0.0213  0.7228  0.0552
 1631TIP3    H126528   0.804   0.374   1.536  2.0751  2.1786  0.3868
 1631TIP3    H226529   0.689   0.460   1.489 -0.8320 -1.5761  0.1700
 1632TIP3   OH226530   3.168   6.280   2.100  0.1027 -0.1969 -0.3347
 1632TIP3    H126531   3.238   6.321   2.151 -0.0720  1.0634 -1.0663
 1632TIP3    H226532   3.105   6.249   2.166 -0.8367  2.6909  0.2529
 1633TIP3   OH226533   3.624   1.379   8.077  0.0102  0.3203 -0.3695
 1633TIP3    H126534   3.682   1.422   8.141  0.2698  0.3825 -0.6450
 1633TIP3    H226535   3.536   1.393   8.112  0.1419  0.4746 -0.0950
 1634TIP3   OH226536   4.755   5.789   0.724 -0.1851 -0.2509 -0.2261
 1634TIP3    H126537   4.776   5.840   0.802  0.4074 -0.8683  0.0332
 1634TIP3    H226538   4.773   5.699   0.749 -0.7846 -0.5441 -0.8195
 1635TIP3   OH226539   0.525   4.919   7.709  0.3787 -0.7414 -0.4750
 1635TIP3    H126540   0.516   5.009   7.678 -0.4953  0.3831  2.6906
 1635TIP3    H226541   0.568   4.927   7.794  1.8126 -3.5055 -0.8186
 1636TIP3   OH226542   0.456   3.957   7.776  0.3865  0.1803  0.1050
 1636TIP3    H126543   0.489   3.946   7.865  1.0242  1.0587 -0.0195
 1636TIP3    H226544   0.383   4.018   7.785 -0.9558 -1.3828  0.3105
 1637TIP3   OH226545   1.965   0.194   1.266 -0.1574  0.3254  0.2820
 1637TIP3    H126546   1.872   0.208   1.284 -0.4196  0.4552 -1.0358
 1637TIP3    H226547   1.992   0.272   1.217  0.6080  0.2109  0.5038
 1638TIP3   OH226548   1.116   3.375   7.101  0.5887  0.6639 -0.7858
 1638TIP3    H126549   1.183   3.308   7.089 -0.0201 -0.1282  0.1093
 1638TIP3    H226550   1.131   3.409   7.189 -2.0746 -1.7853  0.7804
 1639TIP3   OH226551   2.502   0.528   1.979  0.5708  0.1233 -0.6532
 1639TIP3    H126552   2.568   0.480   2.030  0.2597  1.2302  0.8490
 1639TIP3    H226553   2.536   0.617   1.973  0.8268 -0.0651 -2.8597
 1640TIP3   OH226554   2.517   2.764   6.715  0.2707  0.2118 -0.2324
 1640TIP3    H126555   2.429   2.735   6.738  0.5504 -1.0016 -0.6115
 1640TIP3    H226556   2.574   2.722   6.779  0.6855 -0.0049 -0.7380
 1641TIP3   OH226557   6.381   6.643   2.660 -0.2565 -0.0868  0.5807
 1641TIP3    H126558   6.435   6.714   2.625  0.2570 -0.3913  0.7401
 1641TIP3    H226559   6.387   6.574   2.595 -0.6390 -0.0375  0.4931
 1642TIP3   OH226560   1.489   5.166   1.220  0.1407  0.4809  0.2678
 1642TIP3    H126561   1.550   5.100   1.253  2.6448  1.9899 -0.9806
 1642TIP3    H226562   1.430   5.119   1.161  0.4061 -0.9655  1.1206
 1643TIP3   OH226563   1.717   1.087   2.253 -0.7887 -0.4489 -0.1554
 1643TIP3    H126564   1.655   1.133   2.196 -1.3559 -0.1203  0.7065
 1643TIP3    H226565   1.689   0.995   2.250 -1.6213 -0.2413  0.5686
 1644TIP3   OH226566   5.483   2.868   0.365 -0.4989  0.3378 -0.3150
 1644TIP3    H126567   5.576   2.847   0.360 -0.0184  2.1819 -0.0384
 1644TIP3    H226568   5.458   2.886   0.275 -0.6037 -0.1762 -0.3918
 1645TIP3   OH226569   5.171   6.865   7.850  0.1709 -0.6322 -0.2167
 1645TIP3    H126570   5.140   6.792   7.903  1.7467 -0.4029  1.1041
 1645TIP3    H226571   5.248   6.830   7.804 -0.1344 -0.3145 -0.9869
 1646TIP3   OH226572   1.811   4.951   2.888 -0.2164  0.0135 -0.2024
 1646TIP3    H126573   1.819   4.856   2.902 -1.4360  0.1435  1.7531
 1646TIP3    H226574   1.716   4.966   2.885 -0.0436  0.9735 -2.3225
 1647TIP3   OH226575   2.216   4.820   1.696  0.3214  0.1261 -0.1326
 1647TIP3    H126576   2.153   4.882   1.732 -1.0054  0.1788 -2.3659
 1647TIP3    H226577   2.266   4.870   1.632  2.2934 -0.0752  1.1614
 1648TIP3   OH226578   2.656   4.917   8.495  0.0109 -0.1353  0.0041
 1648TIP3    H126579   2.696   4.837   8.531  0.5055  0.7253  1.4317
 1648TIP3    H226580   2.610   4.956   8.569  0.3158  1.2545 -0.5182
 1649TIP3   OH226581   0.433   2.777   7.853 -0.0267 -0.0482 -0.0298
 1649TIP3    H126582   0.357   2.726   7.878  0.3199 -0.9876 -0.8473
 1649TIP3    H226583   0.402   2.868   7.852 -0.9494 -0.3543  0.3039
 1650TIP3   OH226584   1.139   3.274   0.274  0.3225  0.3357  0.0294
 1650TIP3    H126585   1.049   3.304   0.259 -0.6606 -3.1297 -2.4228
 1650TIP3    H226586   1.134   3.224   0.356  0.2268  0.8812  0.3587
 1651TIP3   OH226587   6.811   1.235   3.013 -0.4447 -0.2011  0.1396
 1651TIP3    H126588   6.716   1.221   3.015 -0.4203 -0.4431 -0.3372
 1651TIP3    H226589   6.848   1.149   2.996 -0.0951 -0.2456  1.0840
 1652TIP3   OH226590   3.985   1.493   1.004 -0.5344 -0.1896 -0.0965
 1652TIP3    H126591   4.045   1.533   1.067  1.2914 -1.7119 -0.7747
 1652TIP3    H226592   3.903   1.542   1.014  0.3979  1.0890  1.8153
 1653TIP3   OH226593   3.134   0.818   1.675 -0.6633  0.0219 -0.0973
 1653TIP3    H126594   3.176   0.830   1.760  0.0143  2.0827 -0.6636
 1653TIP3    H226595   3.156   0.728   1.650  0.8164  0.0386  0.9988
 1654TIP3   OH226596   3.803   6.547   8.013  0.2623 -0.2489 -0.1385
 1654TIP3    H126597   3.774   6.530   8.102 -1.5730 -1.8142 -0.9586
 1654TIP3    H226598   3.809   6.643   8.008 -1.7378 -0.0027  1.0808
 1655TIP3   OH226599   6.546   5.611   0.748  0.4253 -0.0605  0.1996
 1655TIP3    H126600   6.517   5.690   0.793  0.1629 -0.6882  1.1490
 1655TIP3    H226601   6.600   5.565   0.811  0.8612 -0.4781 -0.4636
 1656TIP3   OH226602   3.541   5.742   7.504 -0.1348  0.1957 -0.2095
 1656TIP3    H126603   3.628   5.782   7.506 -0.1424  0.3278 -1.6945
 1656TIP3    H226604   3.481   5.815   7.498 -0.5070  0.2084  2.4216
 1657TIP3   OH226605   2.449   3.227   1.337  0.0818  0.2883  0.0102
 1657TIP3    H126606   2.463   3.317   1.307 -0.5075  1.4629  2.9213
 1657TIP3    H226607   2.536   3.198   1.364  0.3254 -0.1870 -1.1993
 1658TIP3   OH226608   2.792   4.011   2.012  0.6480  0.9682 -0.2350
 1658TIP3    H126609   2.735   4.028   1.936  0.8687 -0.6613 -0.8150
 1658TIP3    H226610   2.735   4.021   2.088  0.0103  1.0406 -0.7150
 1659TIP3   OH226611   0.476   2.206   1.913  0.2012  0.3326 -0.5323
 1659TIP3    H126612   0.510   2.117   1.912  2.3656  1.1168 -0.9641
 1659TIP3    H226613   0.411   2.206   1.984 -1.3932 -2.0714 -1.8287
 1660TIP3   OH226614   1.321   1.763   0.552  0.5913  0.4497 -0.3163
 1660TIP3    H126615   1.271   1.698   0.503  0.9047 -0.0169 -0.0151
 1660TIP3    H226616   1.275   1.771   0.635  0.4653  0.7324 -0.4091
 1661TIP3   OH226617   3.371   4.233   6.791 -0.0785 -0.2548  0.7749
 1661TIP3    H126618   3.278   4.245   6.809 -0.1183  0.1062  0.3686
 1661TIP3    H226619   3.380   4.259   6.699  0.4990  0.1421  0.9420
 1662TIP3   OH226620   6.766   0.362   8.473  0.3988  0.3150  0.8274
 1662TIP3    H126621   6.766   0.274   8.509 -1.1688 -0.6480 -1.3397
 1662TIP3    H226622   6.681   0.371   8.430  2.4373  0.7592 -3.7316
 1663TIP3   OH226623   4.853   2.099   8.440  0.4865 -0.2844  0.0828
 1663TIP3    H126624   4.858   2.158   8.515 -0.0199 -0.3366  0.1642
 1663TIP3    H226625   4.843   2.012   8.478 -0.3372 -0.2532 -0.0384
 1664TIP3   OH226626   1.252   3.635   8.197 -0.6122 -0.4963 -0.3602
 1664TIP3    H126627   1.173   3.639   8.250 -0.0096  0.6804  0.4912
 1664TIP3    H226628   1.272   3.542   8.190 -1.6102 -0.7547  0.1065
 1665TIP3   OH226629   5.259   2.056   0.201 -0.1365 -0.0770 -0.3506
 1665TIP3    H126630   5.300   2.088   0.281 -1.3412  0.3596  0.1225
 1665TIP3    H226631   5.172   2.098   0.201 -0.2232 -0.2287 -1.7820
 1666TIP3   OH226632   5.511   0.259   8.643 -0.0202 -0.3557  0.2616
 1666TIP3    H126633   5.436   0.266   8.584  0.7004 -2.1207 -0.9329
 1666TIP3    H226634   5.586   0.281   8.588  0.8627 -3.6874 -0.0825
 1667TIP3   OH226635   3.559   0.254   7.351  0.2363 -0.0215  0.0082
 1667TIP3    H126636   3.489   0.202   7.390  1.5787 -1.2339  0.9547
 1667TIP3    H226637   3.575   0.214   7.266  0.1182 -0.0601  0.0044
 1668TIP3   OH226638   2.325   5.410   7.789  0.0399 -0.3818 -0.2985
 1668TIP3    H126639   2.369   5.333   7.752  1.3697  0.4613 -0.5495
 1668TIP3    H226640   2.331   5.476   7.721 -1.4058 -0.1525 -0.2155
 1669TIP3   OH226641   2.870   2.736   8.342 -0.5238  0.1312 -0.2955
 1669TIP3    H126642   2.803   2.761   8.278  0.4687  1.0636 -1.0022
 1669TIP3    H226643   2.847   2.646   8.366 -1.9550  0.3891 -0.6014
 1670TIP3   OH226644   3.065   0.425   8.648 -0.7207  0.4892 -0.0077
 1670TIP3    H126645   3.066   0.343   8.599 -1.4359  1.6182 -2.0428
 1670TIP3    H226646   3.156   0.440   8.671 -0.3127 -0.0204 -1.1812
 1671TIP3   OH226647   0.988   1.042   0.143 -0.0083  0.0206  0.0625
 1671TIP3    H126648   0.928   1.116   0.153  0.2647  0.2843 -0.2282
 1671TIP3    H226649   1.070   1.082   0.113 -0.4853 -0.6032 -2.2477
 1672TIP3   OH226650   5.221   4.298   7.609 -0.1332 -0.6040 -0.1115
 1672TIP3    H126651   5.281   4.336   7.673 -1.6112 -1.0741  1.6242
 1672TIP3    H226652   5.135   4.303   7.650 -0.9432 -2.1845 -1.4808
 1673TIP3   OH226653   6.460   0.840   8.450 -0.0336 -0.1123 -0.5693
 1673TIP3    H126654   6.548   0.841   8.412  0.4719 -1.0546  0.5120
 1673TIP3    H226655   6.409   0.785   8.392 -0.3799  1.6994 -2.0986
 1674TIP3   OH226656   5.111   6.503   2.651  0.1700 -0.7052  0.8646
 1674TIP3    H126657   5.113   6.519   2.557  0.8021 -0.7037  0.8732
 1674TIP3    H226658   5.096   6.409   2.659  1.6983 -0.9959  0.7209
 1675TIP3   OH226659   2.763   5.701   7.232  0.0981  0.3692 -0.1249
 1675TIP3    H126660   2.756   5.642   7.157  0.2343  1.5148 -1.0673
 1675TIP3    H226661   2.824   5.768   7.204 -1.8886  2.3244 -0.0274
 1676TIP3   OH226662   4.680   5.230   1.435  0.0809 -0.1028 -0.1365
 1676TIP3    H126663   4.714   5.292   1.499  0.7420 -1.0792  0.4797
 1676TIP3    H226664   4.600   5.195   1.475 -0.4944  0.5875 -0.6417
 1677TIP3   OH226665   5.112   4.910   1.784 -0.2560  0.0235  0.1024
 1677TIP3    H126666   5.091   4.981   1.723 -0.0564 -0.4752 -0.5577
 1677TIP3    H226667   5.027   4.874   1.809 -0.3116 -0.4479 -0.7112
 1678TIP3   OH226668   1.492   4.955   1.756 -0.4614 -0.0118 -0.1511
 1678TIP3    H126669   1.519   5.007   1.680 -2.4531  1.1021 -0.1788
 1678TIP3    H226670   1.538   4.872   1.746  0.9067  0.8422 -1.4650
 1679TIP3   OH226671   0.425   0.874   6.930 -0.5070 -0.3708  0.5677
 1679TIP3    H126672   0.454   0.784   6.920 -1.5505 -0.7931  1.1856
 1679TIP3    H226673   0.340   0.877   6.886  0.5154  0.9192 -1.4828
 1680TIP3   OH226674   5.507   6.586   1.302  0.3821 -0.0968  0.1050
 1680TIP3    H126675   5.580   6.648   1.308 -0.0633  0.7032 -1.8251
 1680TIP3    H226676   5.543   6.512   1.252 -0.1466  0.4215 -1.0959
 1681TIP3   OH226677   2.563   2.763   0.563  0.0596  0.3219 -0.8372
 1681TIP3    H126678   2.651   2.759   0.600 -0.8319 -0.8199  1.3049
 1681TIP3    H226679   2.577   2.788   0.471  2.6640 -0.6902 -0.7985
 1682TIP3   OH226680   4.893   6.402   1.268  0.2970  0.3129  0.1477
 1682TIP3    H126681   4.968   6.378   1.213 -1.1357 -0.0785 -1.7738
 1682TIP3    H226682   4.922   6.477   1.319  2.2345 -0.3464  0.0744
 1683TIP3   OH226683   0.968   4.168   0.666 -0.3415  0.4956  0.6409
 1683TIP3    H126684   0.911   4.092   0.657  1.3421 -0.6996 -0.7062
 1683TIP3    H226685   1.056   4.132   0.671  0.8485  2.3168 -3.0004
 1684TIP3   OH226686   2.633   0.905   1.344 -0.3798 -0.0777 -0.2517
 1684TIP3    H126687   2.716   0.858   1.353 -0.7320 -0.5661  0.4945
 1684TIP3    H226688   2.568   0.846   1.381 -1.0225  0.4255 -0.5729
 1685TIP3   OH226689   6.841   1.132   8.390  0.1277 -0.5073  0.1306
 1685TIP3    H126690   6.810   1.041   8.380 -1.1649 -0.0035 -0.7084
 1685TIP3    H226691   6.812   1.175   8.310 -1.3752  1.2275  1.5297
 1686TIP3   OH226692   1.637   2.859   0.620 -0.3001 -0.0827  0.0269
 1686TIP3    H126693   1.578   2.792   0.654 -1.5867  1.6953  1.5352
 1686TIP3    H226694   1.720   2.844   0.665  0.0920 -1.8908 -1.2245
 1687TIP3   OH226695   6.110   4.551   1.767 -0.0331  0.5356 -0.0812
 1687TIP3    H126696   6.036   4.523   1.821  0.7593  0.1399  0.8104
 1687TIP3    H226697   6.168   4.475   1.763 -0.4207  0.2786 -2.1467
 1688TIP3   OH226698   3.948   0.950   1.205 -0.3321  0.0148 -0.0911
 1688TIP3    H126699   3.979   0.893   1.276  0.7803 -0.2487 -0.7741
 1688TIP3    H226700   3.972   1.038   1.233 -0.7932  0.0166  0.3148
 1689TIP3   OH226701   5.435   2.037   2.280 -0.1165 -0.1779 -0.5356
 1689TIP3    H126702   5.393   1.971   2.334  0.0571 -1.9851 -2.4570
 1689TIP3    H226703   5.523   2.048   2.317  0.4597 -2.3406 -1.1352
 1690TIP3   OH226704   1.363   1.509   2.418  0.2585  0.3747 -0.8439
 1690TIP3    H126705   1.290   1.513   2.357  0.6924 -0.0969 -1.3962
 1690TIP3    H226706   1.430   1.459   2.373  0.5348 -0.1085  0.0764
 1691TIP3   OH226707   5.572   0.872   0.945 -0.1734 -0.0674  0.1790
 1691TIP3    H126708   5.581   0.820   1.024 -0.6458  0.0638  0.3204
 1691TIP3    H226709   5.556   0.962   0.976  1.1854  0.2827 -0.0554
 1692TIP3   OH226710   2.076   1.035   7.174 -0.1579 -0.3485 -0.4211
 1692TIP3    H126711   2.012   0.965   7.169  0.8165 -1.1752 -2.3546
 1692TIP3    H226712   2.033   1.110   7.135 -0.0953 -0.7916 -1.3525
 1693TIP3   OH226713   3.477   4.723   0.170 -0.2699 -0.4892  0.6108
 1693TIP3    H126714   3.510   4.786   0.106  0.5950 -0.6044  0.9264
 1693TIP3    H226715   3.433   4.657   0.117 -1.0649  0.3014  0.2674
 1694TIP3   OH226716   5.534   0.524   2.372  0.0513 -0.7555  0.1363
 1694TIP3    H126717   5.554   0.613   2.401  0.2457 -1.1466  1.2339
 1694TIP3    H226718   5.611   0.473   2.397  1.2076 -0.7710 -2.9681
 1695TIP3   OH226719   4.286   6.142   1.280 -0.4239  0.0235  0.0583
 1695TIP3    H126720   4.292   6.188   1.196  0.9509  0.2518  0.2570
 1695TIP3    H226721   4.350   6.185   1.336 -0.2438 -1.1078  0.7592
 1696TIP3   OH226722   2.291   1.115   1.944 -0.9063  0.8562  0.4632
 1696TIP3    H126723   2.315   1.099   2.035 -1.3358  0.6876  0.5481
 1696TIP3    H226724   2.361   1.074   1.893 -0.7428  0.8243  0.7128
 1697TIP3   OH226725   5.272   3.069   2.743 -0.3670  0.1118 -0.6194
 1697TIP3    H126726   5.218   3.119   2.804  0.4146  0.2129  0.0044
 1697TIP3    H226727   5.293   3.132   2.674  1.3369  0.9522  0.6005
 1698TIP3   OH226728   2.666   0.421   0.538  0.2802  0.0828  0.1379
 1698TIP3    H126729   2.600   0.356   0.562 -0.4378 -0.0438 -1.9789
 1698TIP3    H226730   2.616   0.501   0.524  0.9658  0.7230  1.2067
 1699TIP3   OH226731   5.719   2.314   8.426  0.1019 -0.3143 -0.4159
 1699TIP3    H126732   5.667   2.288   8.503 -1.1870 -0.7160 -1.3839
 1699TIP3    H226733   5.710   2.409   8.422  1.6770 -0.0548  0.9342
 1700TIP3   OH226734   1.476   1.852   7.892 -0.5237  0.2262 -0.3713
 1700TIP3    H126735   1.409   1.801   7.937 -0.5058  1.3871  1.0648
 1700TIP3    H226736   1.470   1.939   7.932  0.6563  0.8416 -1.4646
 1701TIP3   OH226737   5.358   5.787   7.527  0.1031  0.1166 -0.8987
 1701TIP3    H126738   5.305   5.844   7.582 -0.4788 -0.5621 -0.7441
 1701TIP3    H226739   5.297   5.719   7.497  1.2562 -1.7634  0.7976
 1702TIP3   OH226740   3.691   5.732   1.997  0.4455  0.1753 -0.8262
 1702TIP3    H126741   3.609   5.691   1.969  0.3675  0.0182 -0.3839
 1702TIP3    H226742   3.753   5.714   1.926  0.5733 -1.2175 -0.3826
 1703TIP3   OH226743   3.357   0.386   8.545  0.1644  0.6146  0.2747
 1703TIP3    H126744   3.436   0.378   8.492  0.4391 -1.9418  0.9258
 1703TIP3    H226745   3.387   0.372   8.635 -0.7955  1.4056  0.7441
 1704TIP3   OH226746   2.549   2.729   2.339  0.1940  0.0112 -0.5229
 1704TIP3    H126747   2.566   2.693   2.426  0.2146 -1.4491 -1.1048
 1704TIP3    H226748   2.504   2.812   2.356  1.4492  0.4411  0.8839
 1705TIP3   OH226749   2.898   5.802   8.318 -0.7080  0.3447  0.3583
 1705TIP3    H126750   2.990   5.778   8.311 -0.9325 -0.2317 -1.0671
 1705TIP3    H226751   2.892   5.852   8.399  0.7630 -0.0144  0.7178
 1706TIP3   OH226752   6.783   2.055   7.417 -0.1746  0.3890  0.3053
 1706TIP3    H126753   6.694   2.077   7.389 -0.1019  1.5070  0.9075
 1706TIP3    H226754   6.824   2.019   7.338 -2.0481 -3.1189  0.7503
 1707TIP3   OH226755   2.370   1.727   7.780 -0.3237 -0.2991 -0.1742
 1707TIP3    H126756   2.455   1.709   7.819 -0.8607 -0.9606  0.7347
 1707TIP3    H226757   2.330   1.640   7.768 -0.2163 -0.1326 -2.1830
 1708TIP3   OH226758   0.707   0.459   2.910 -0.2626  0.2047  0.5542
 1708TIP3    H126759   0.623   0.446   2.955 -0.4265  0.6407  0.3809
 1708TIP3    H226760   0.747   0.372   2.909 -0.1869  0.1996  1.6888
 1709TIP3   OH226761   2.998   3.321   0.228  0.0712  0.2169 -0.3694
 1709TIP3    H126762   3.022   3.240   0.274 -1.9694  0.0929  0.5705
 1709TIP3    H226763   2.903   3.319   0.224 -0.0083  2.4368 -0.6234
 1710TIP3   OH226764   4.860   5.899   0.953 -0.4107 -0.4708  0.3338
 1710TIP3    H126765   4.915   5.859   1.020 -0.8421 -1.8309 -0.1002
 1710TIP3    H226766   4.881   5.993   0.958  0.0111 -0.6176  1.9409
 1711TIP3   OH226767   6.198   0.333   8.145 -0.3338 -0.0033  0.5789
 1711TIP3    H126768   6.205   0.345   8.240  0.2713  1.5487  0.3631
 1711TIP3    H226769   6.196   0.238   8.133 -0.4482 -0.2229  2.1411
 1712TIP3   OH226770   2.412   3.729   7.937 -0.1877  0.0734 -0.9850
 1712TIP3    H126771   2.498   3.769   7.950  0.4307 -1.4228 -0.2287
 1712TIP3    H226772   2.379   3.712   8.025 -0.9139 -0.0892 -1.2739
 1713TIP3   OH226773   2.579   3.406   7.233  0.3930 -0.4047  0.0760
 1713TIP3    H126774   2.589   3.498   7.258 -0.9814  0.1516 -1.2278
 1713TIP3    H226775   2.641   3.393   7.162 -0.9831  0.2206 -1.3046
 1714TIP3   OH226776   5.013   1.823   0.271 -0.1130 -0.2608 -0.2964
 1714TIP3    H126777   5.046   1.833   0.361 -2.8641 -0.7135  0.8607
 1714TIP3    H226778   5.067   1.883   0.219  0.5877  1.1566  1.9217
 1715TIP3   OH226779   4.303   3.789   2.333 -1.1039 -0.2394 -0.2986
 1715TIP3    H126780   4.270   3.871   2.370 -1.7425  0.2660 -1.8694
 1715TIP3    H226781   4.232   3.759   2.276 -0.0021 -0.6795 -1.4936
 1716TIP3   OH226782   3.603   1.293   7.818 -0.2788 -0.1940 -1.0334
 1716TIP3    H126783   3.620   1.315   7.909  1.3020 -1.4232 -0.9770
 1716TIP3    H226784   3.515   1.325   7.801 -0.6051  0.0508  0.9224
 1717TIP3   OH226785   1.510   2.200   1.907  0.5526  0.1576  0.4615
 1717TIP3    H126786   1.577   2.235   1.965  3.7553 -0.8757 -2.2916
 1717TIP3    H226787   1.498   2.109   1.936  2.9322 -0.6948 -0.9131
 1718TIP3   OH226788   1.509   3.139   7.920  0.0376  0.1402  0.3575
 1718TIP3    H126789   1.506   3.066   7.983  0.8086  0.3120  0.5970
 1718TIP3    H226790   1.514   3.096   7.834 -2.4622 -0.1219  0.2774
 1719TIP3   OH226791   1.961   6.458   1.046 -0.1460 -0.7461 -0.1136
 1719TIP3    H126792   1.970   6.445   0.951 -0.8213 -1.5144 -0.0838
 1719TIP3    H226793   2.039   6.507   1.071  0.4435 -1.2472 -0.9359
 1720TIP3   OH226794   1.120   6.343   0.478 -0.1298  0.4219 -0.3253
 1720TIP3    H126795   1.210   6.376   0.470  0.4060 -1.1435 -1.1542
 1720TIP3    H226796   1.075   6.378   0.401  0.6068 -1.1932 -1.5524
 1721TIP3   OH226797   3.196   5.244   1.358 -0.4182  0.0821  0.5971
 1721TIP3    H126798   3.203   5.149   1.356  1.5617  0.1603 -1.8810
 1721TIP3    H226799   3.276   5.273   1.402 -1.2410  0.6210  1.7790
 1722TIP3   OH226800   0.252   1.071   8.134  0.3080 -0.0389  0.8272
 1722TIP3    H126801   0.327   1.084   8.192  1.3956 -0.4625 -0.4474
 1722TIP3    H226802   0.289   1.070   8.046 -1.4057  1.5497  0.0127
 1723TIP3   OH226803   0.521   6.220   0.101  0.1479  0.6548 -0.0589
 1723TIP3    H126804   0.599   6.272   0.117  1.3038  0.0907 -3.1547
 1723TIP3    H226805   0.545   6.131   0.126  0.1459  0.6574 -0.0483
 1724TIP3   OH226806   4.625   3.638   0.299 -0.5425  0.0477 -0.2922
 1724TIP3    H126807   4.532   3.655   0.313 -0.3709  1.5202 -0.7952
 1724TIP3    H226808   4.654   3.599   0.382 -1.2249  1.2613  0.5571
 1725TIP3   OH226809   6.725   0.878   7.273 -0.0154  0.0302  0.1138
 1725TIP3    H126810   6.792   0.839   7.329  1.0767 -0.6299 -1.5671
 1725TIP3    H226811   6.774   0.915   7.200 -1.2669  2.3037  0.3650
 1726TIP3   OH226812   1.593   4.761   8.593  0.2485 -0.0997 -0.1870
 1726TIP3    H126813   1.640   4.804   8.521 -1.1527 -0.8449 -1.6264
 1726TIP3    H226814   1.629   4.673   8.596  0.2140 -0.1094 -0.0770
 1727TIP3   OH226815   1.824   2.184   7.671 -0.3588  0.1497  0.6075
 1727TIP3    H126816   1.821   2.088   7.672  0.9993  0.0583 -0.7403
 1727TIP3    H226817   1.834   2.207   7.579  0.1023  1.5477  0.9854
 1728TIP3   OH226818   5.176   4.430   1.609 -0.2111  0.2974 -0.0934
 1728TIP3    H126819   5.135   4.407   1.525 -1.0177 -0.3318  0.4475
 1728TIP3    H226820   5.269   4.437   1.589 -0.4245  0.4461 -1.1026
 1729TIP3   OH226821   2.047   3.578   6.964 -0.1764  0.2921  0.1731
 1729TIP3    H126822   2.073   3.670   6.957  0.1626  0.0976 -1.3478
 1729TIP3    H226823   2.109   3.540   7.026  0.1793  0.9151  0.2047
 1730TIP3   OH226824   3.954   4.177   8.327  0.1328  0.0402 -0.0038
 1730TIP3    H126825   4.016   4.115   8.287 -1.1512 -1.0961 -0.3127
 1730TIP3    H226826   3.977   4.179   8.419 -0.0351 -1.2129  0.0781
 1731TIP3   OH226827   0.975   5.666   7.599 -0.0830  0.5814 -0.0343
 1731TIP3    H126828   0.985   5.749   7.647 -1.1314  1.1196 -0.7168
 1731TIP3    H226829   0.885   5.667   7.567  0.4702  0.0968 -1.7309
 1732TIP3   OH226830   5.177   3.256   2.258  0.6778  0.2323 -0.4057
 1732TIP3    H126831   5.261   3.210   2.255  1.0432  0.8864 -0.1833
 1732TIP3    H226832   5.199   3.347   2.241  0.1784  0.6216  0.9663
 1733TIP3   OH226833   1.010   3.450   1.953  0.5817 -0.0137  0.4678
 1733TIP3    H126834   1.065   3.401   1.892  1.3507 -0.2652  1.3346
 1733TIP3    H226835   0.943   3.491   1.898  1.6227  0.2746 -0.6249
 1734TIP3   OH226836   4.386   4.357   2.693 -0.2814 -0.3225  0.6375
 1734TIP3    H126837   4.312   4.402   2.734 -1.0445  1.1045 -2.0584
 1734TIP3    H226838   4.442   4.331   2.766 -1.4749  2.0498  2.5446
 1735TIP3   OH226839   0.886   6.110   1.667  0.1660  0.6077  0.2872
 1735TIP3    H126840   0.890   6.035   1.726 -1.9696  0.4189  0.2761
 1735TIP3    H226841   0.967   6.159   1.684  0.3544 -0.2905  2.2011
 1736TIP3   OH226842   0.228   2.527   2.227  0.2059  0.0424 -0.0650
 1736TIP3    H126843   0.252   2.619   2.222  1.1181 -0.1709  0.0641
 1736TIP3    H226844   0.251   2.491   2.142 -1.1213  0.1329 -0.4849
 1737TIP3   OH226845   0.922   2.012   7.693  0.2704 -0.1450 -0.0102
 1737TIP3    H126846   0.862   2.080   7.662  1.9205  1.3116 -0.1628
 1737TIP3    H226847   0.868   1.932   7.698 -1.3971  0.8604 -1.1153
 1738TIP3   OH226848   0.899   1.913   2.168 -0.0071  0.0068 -0.3918
 1738TIP3    H126849   0.972   1.964   2.203  0.5147  0.2793 -1.7860
 1738TIP3    H226850   0.852   1.881   2.245  1.0428  0.6066  0.5237
 1739TIP3   OH226851   2.633   1.153   1.183  0.1274  0.0565 -0.1049
 1739TIP3    H126852   2.626   1.081   1.246  2.1924 -1.3411 -1.3486
 1739TIP3    H226853   2.555   1.206   1.199 -0.3545 -1.2245  2.3615
 1740TIP3   OH226854   0.149   5.133   6.777 -0.2188  0.7152 -0.3125
 1740TIP3    H126855   0.097   5.100   6.851 -0.2919  2.9353  0.7077
 1740TIP3    H226856   0.090   5.193   6.731  0.4742  0.9213 -0.9546
 1741TIP3   OH226857   6.023   6.219   0.084  0.2768 -0.2202 -0.3836
 1741TIP3    H126858   6.094   6.179   0.135 -0.7198  0.5677  1.7757
 1741TIP3    H226859   6.028   6.312   0.106 -0.3099  0.1321 -1.6614
 1742TIP3   OH226860   0.081   5.469   1.010  0.3188 -0.1224 -0.1152
 1742TIP3    H126861   0.109   5.482   1.100  3.3913 -0.6717 -0.8905
 1742TIP3    H226862   0.130   5.392   0.981 -1.7272 -0.8717 -1.8342
 1743TIP3   OH226863   3.446   6.867   0.739 -0.3049 -0.3917  0.5161
 1743TIP3    H126864   3.383   6.815   0.689 -1.1468  0.1631  0.9781
 1743TIP3    H226865   3.447   6.952   0.695 -1.8455  0.4600  1.9961
 1744TIP3   OH226866   2.226   2.971   1.063  0.4152  0.1634  0.2184
 1744TIP3    H126867   2.194   3.061   1.055 -1.3363 -0.5356 -1.5281
 1744TIP3    H226868   2.148   2.920   1.085  1.1798 -1.0675  0.1688
 1745TIP3   OH226869   6.013   4.562   2.212  0.0929  0.2743 -0.2583
 1745TIP3    H126870   5.994   4.554   2.305  0.9612  1.1203  0.0018
 1745TIP3    H226871   6.074   4.635   2.205 -2.1618  2.1385 -1.7944
 1746TIP3   OH226872   5.853   1.008   1.030  0.3025  0.0267 -0.0498
 1746TIP3    H126873   5.908   1.078   0.994  1.7803 -1.7333 -1.4183
 1746TIP3    H226874   5.778   1.003   0.970  1.1376 -0.7590 -1.0609
 1747TIP3   OH226875   5.534   1.493   8.342  0.3486 -0.5175  0.4677
 1747TIP3    H126876   5.445   1.525   8.329  0.6170 -0.1727 -0.6455
 1747TIP3    H226877   5.540   1.416   8.285  1.2820  0.4882 -0.8682
 1748TIP3   OH226878   0.828   2.301   8.634  0.2793 -0.3464  0.2269
 1748TIP3    H126879   0.822   2.257   8.549  0.5950  0.4166 -0.1980
 1748TIP3    H226880   0.800   2.391   8.617  0.1360 -0.2386  0.9798
 1749TIP3   OH226881   6.556   2.797   1.955  0.1489 -0.0684  0.7671
 1749TIP3    H126882   6.611   2.762   1.885  1.6298  0.2224  1.7528
 1749TIP3    H226883   6.468   2.765   1.935 -0.1091  2.2490 -2.8376
 1750TIP3   OH226884   6.645   4.981   1.451 -0.0557 -0.1157 -0.2407
 1750TIP3    H126885   6.695   5.060   1.470 -0.2942 -0.1226  0.4511
 1750TIP3    H226886   6.669   4.958   1.361  1.0983 -0.0602  0.0403
 1751TIP3   OH226887   4.651   2.857   2.740 -0.6972  0.5767 -0.6379
 1751TIP3    H126888   4.579   2.919   2.729 -2.0078 -0.8001 -0.2202
 1751TIP3    H226889   4.669   2.858   2.834 -1.7684 -0.7487 -0.3934
 1752TIP3   OH226890   4.991   5.439   1.779  0.0776  0.3704 -0.8103
 1752TIP3    H126891   5.048   5.500   1.732  2.4761 -0.4228  0.8906
 1752TIP3    H226892   4.978   5.479   1.865 -1.1334  0.0326 -0.8101
 1753TIP3   OH226893   3.234   4.571   7.372 -0.1066  0.3098  0.3816
 1753TIP3    H126894   3.258   4.614   7.290  2.2461  0.8070  1.2520
 1753TIP3    H226895   3.237   4.640   7.438  0.9269 -0.6025  1.3382
 1754TIP3   OH226896   5.106   2.080   8.304 -0.4737 -0.1668 -0.4509
 1754TIP3    H126897   5.035   2.113   8.359  0.2831 -0.5255  0.7677
 1754TIP3    H226898   5.186   2.113   8.344  0.1751 -1.6060 -0.4942
 1755TIP3   OH226899   3.245   2.387   7.523 -0.2908 -0.3364  0.4621
 1755TIP3    H126900   3.280   2.469   7.489 -2.5453  0.5946  0.2471
 1755TIP3    H226901   3.179   2.413   7.587 -1.0699 -1.9828  0.3835
 1756TIP3   OH226902   6.313   6.443   7.744 -0.3536 -0.3145 -0.0691
 1756TIP3    H126903   6.322   6.389   7.666  1.1813 -0.3151  0.0883
 1756TIP3    H226904   6.311   6.533   7.710 -0.8006 -0.3626 -0.1787
 1757TIP3   OH226905   0.172   5.544   6.762 -0.0139  0.1541  0.3232
 1757TIP3    H126906   0.148   5.619   6.817  0.8357  1.0283 -0.4555
 1757TIP3    H226907   0.264   5.527   6.784  0.8106  1.4567 -1.7852
 1758TIP3   OH226908   5.255   4.898   0.586 -0.1068 -0.0667 -0.3459
 1758TIP3    H126909   5.207   4.961   0.533 -1.4488 -0.7856 -0.0436
 1758TIP3    H226910   5.254   4.936   0.674 -0.3422 -0.1899 -0.2936
 1759TIP3   OH226911   5.540   4.854   0.064  0.4084  0.0367 -0.4412
 1759TIP3    H126912   5.595   4.799   0.119 -0.4230  0.5618  0.9726
 1759TIP3    H226913   5.601   4.908   0.013  1.1959 -0.7229 -0.3158
 1760TIP3   OH226914   1.861   4.112   1.734 -0.3715  1.0232  0.2849
 1760TIP3    H126915   1.808   4.034   1.747  0.3238  0.7018  1.3455
 1760TIP3    H226916   1.851   4.162   1.816  0.8191  1.0194  0.4574
 1761TIP3   OH226917   2.518   6.414   1.970  0.4687 -0.0517 -0.5546
 1761TIP3    H126918   2.427   6.442   1.959  0.2718 -0.4057  0.1323
 1761TIP3    H226919   2.539   6.434   2.061  1.5314  1.2969 -1.0521
 1762TIP3   OH226920   0.666   2.367   7.750  0.0502  0.0446 -0.0446
 1762TIP3    H126921   0.724   2.443   7.749  1.7056 -1.1568 -0.8375
 1762TIP3    H226922   0.593   2.391   7.693  0.1410  1.2933  0.3356
 1763TIP3   OH226923   4.609   1.858   2.966  0.3572  0.0373 -0.2496
 1763TIP3    H126924   4.693   1.813   2.979 -0.5473 -1.8231 -0.5521
 1763TIP3    H226925   4.570   1.862   3.053 -0.4110 -1.5909 -0.4800
 1764TIP3   OH226926   1.995   5.459   8.657 -0.2595  0.1623 -0.2706
 1764TIP3    H126927   2.057   5.480   8.726 -0.1864 -0.1478 -0.2403
 1764TIP3    H226928   2.042   5.399   8.599 -0.6387 -0.3488 -0.0603
 1765TIP3   OH226929   0.273   0.588   6.756 -0.3678 -0.3170 -0.0895
 1765TIP3    H126930   0.345   0.525   6.746 -0.4428 -0.1579 -1.9696
 1765TIP3    H226931   0.260   0.594   6.850  0.5921 -2.0475  0.2016
 1766TIP3   OH226932   5.721   6.806   6.625  0.5055  0.3156  0.4881
 1766TIP3    H126933   5.632   6.842   6.625  1.0772  1.7555  1.1738
 1766TIP3    H226934   5.778   6.881   6.613  1.6165 -0.7312 -1.2971
 1767TIP3   OH226935   1.082   1.165   1.401  0.5222  0.1721 -0.1613
 1767TIP3    H126936   1.148   1.186   1.466 -1.0194  0.0420  1.5337
 1767TIP3    H226937   1.047   1.080   1.429  0.5371 -0.4043 -1.7846
 1768TIP3   OH226938   2.774   2.683   1.671  0.6184 -0.4607  0.2130
 1768TIP3    H126939   2.739   2.772   1.682 -0.4576 -1.0206  1.5848
 1768TIP3    H226940   2.714   2.641   1.609  1.6859  0.0166 -1.2184
 1769TIP3   OH226941   3.325   2.444   7.805 -0.0824 -0.4860  0.6586
 1769TIP3    H126942   3.363   2.357   7.803  1.3594  0.0729 -2.7135
 1769TIP3    H226943   3.398   2.502   7.825  0.1137  0.2644 -1.8930
 1770TIP3   OH226944   5.993   5.813   1.111  0.0809 -0.5938  0.0921
 1770TIP3    H126945   6.060   5.814   1.043 -1.1662 -1.3399 -1.2223
 1770TIP3    H226946   6.019   5.741   1.169  0.8458 -0.3284  0.0893
 1771TIP3   OH226947   4.159   3.238   2.622 -0.1578  0.6495  0.1458
 1771TIP3    H126948   4.155   3.307   2.689 -0.9897  0.8951 -0.1334
 1771TIP3    H226949   4.183   3.159   2.670 -1.8174  0.5849  0.9655
 1772TIP3   OH226950   2.338   0.024   7.366  0.1156  0.5980 -0.4867
 1772TIP3    H126951   2.380  -0.032   7.302  0.1957  3.0352 -2.7389
 1772TIP3    H226952   2.404   0.091   7.387 -1.1423  1.9778 -0.7506
 1773TIP3   OH226953   3.526   2.187   6.971  0.1101  0.4459 -0.0462
 1773TIP3    H126954   3.570   2.236   7.041 -0.8728  0.0323  0.8826
 1773TIP3    H226955   3.589   2.120   6.945  1.2585  1.8010 -0.9442
 1774TIP3   OH226956   2.176   5.734   0.913 -0.2466 -0.4126 -0.1560
 1774TIP3    H126957   2.166   5.646   0.949 -0.2055 -1.9056 -3.4137
 1774TIP3    H226958   2.100   5.745   0.855 -0.6019  2.0134  0.6658
 1775TIP3   OH226959   0.599   2.415   8.393  0.3326  0.1137 -0.5494
 1775TIP3    H126960   0.674   2.355   8.391 -0.5913 -1.0903 -0.2775
 1775TIP3    H226961   0.555   2.401   8.310 -0.7339 -0.7323  0.1287
 1776TIP3   OH226962   6.378   2.732   0.450  0.5562  0.3316  0.3018
 1776TIP3    H126963   6.288   2.727   0.416  1.0606 -0.5948 -0.9711
 1776TIP3    H226964   6.367   2.748   0.543 -1.0397 -2.3295  0.6977
 1777TIP3   OH226965   0.457   0.631   2.568 -0.5321 -0.0751 -0.0808
 1777TIP3    H126966   0.501   0.681   2.637 -1.9794 -0.0181  0.8330
 1777TIP3    H226967   0.365   0.656   2.575 -1.0483 -1.7229 -0.6019
 1778TIP3   OH226968   0.608   1.087   0.820  0.6452 -0.4433 -0.5529
 1778TIP3    H126969   0.612   1.016   0.884  1.1944  2.3113  2.7698
 1778TIP3    H226970   0.695   1.090   0.781  1.1898 -0.4846  0.6318
 1779TIP3   OH226971   2.991   2.054   2.110 -0.3394 -0.3749 -0.3601
 1779TIP3    H126972   3.045   2.132   2.123 -0.2128 -0.7450  1.5527
 1779TIP3    H226973   3.050   1.980   2.128 -0.5012 -0.9460 -1.9750
 1780TIP3   OH226974   0.018   3.371   0.383 -0.4376  0.1019  0.3610
 1780TIP3    H126975   0.027   3.350   0.291 -0.9196 -0.4164  0.4275
 1780TIP3    H226976  -0.075   3.357   0.402 -0.4696  0.8473  0.7652
 1781TIP3   OH226977   0.313   3.999   2.078  0.0203 -0.1150  0.0327
 1781TIP3    H126978   0.347   3.960   1.997  1.8633  0.0157  0.6970
 1781TIP3    H226979   0.391   4.024   2.127 -1.0772  0.6513  1.4570
 1782TIP3   OH226980   6.842   1.340   7.255  0.0871  0.0200 -0.4671
 1782TIP3    H126981   6.883   1.400   7.318 -1.4022 -1.2160  1.8531
 1782TIP3    H226982   6.748   1.361   7.260 -0.3215 -1.6600 -0.4891
 1783TIP3   OH226983   1.334   0.318   8.116  0.4399 -0.0037 -0.6039
 1783TIP3    H126984   1.335   0.223   8.107 -3.0767 -0.1902 -0.1693
 1783TIP3    H226985   1.342   0.333   8.210  0.9864  0.1766 -0.6711
 1784TIP3   OH226986   2.997   3.437   7.458 -0.4691  0.3668 -0.7824
 1784TIP3    H126987   2.942   3.435   7.536 -1.0908 -2.4935 -1.1617
 1784TIP3    H226988   3.084   3.462   7.490 -0.8683 -0.0814  0.7214
 1785TIP3   OH226989   4.294   6.170   0.504 -0.5077  0.3212 -0.0517
 1785TIP3    H126990   4.242   6.139   0.578  0.1179  1.3569  0.8497
 1785TIP3    H226991   4.241   6.240   0.464 -0.8984 -0.3182 -0.6744
 1786TIP3   OH226992   1.197   6.045   1.640 -0.3553 -0.3781 -0.1849
 1786TIP3    H126993   1.181   6.022   1.732 -1.8461  0.8425 -0.0961
 1786TIP3    H226994   1.124   6.007   1.592  0.7202 -1.5109 -0.9974
 1787TIP3   OH226995   6.035   1.736   7.741  0.1459 -0.1432 -0.5967
 1787TIP3    H126996   6.069   1.805   7.684  2.8855 -0.5926  0.3582
 1787TIP3    H226997   6.102   1.667   7.738 -0.7283 -1.1509  1.3635
 1788TIP3   OH226998   2.171   0.966   7.594 -0.2356 -0.1746 -0.4313
 1788TIP3    H126999   2.234   1.018   7.544 -1.1855  0.4392 -1.0236
 1788TIP3    H227000   2.202   0.970   7.684  0.2770  0.5749 -0.6302
 1789TIP3   OH227001   0.888   2.231   6.691  0.8401 -0.4188  0.5929
 1789TIP3    H127002   0.797   2.240   6.664  0.4189 -1.2550  1.6800
 1789TIP3    H227003   0.910   2.313   6.733  0.6774 -0.1257  0.1167
 1790TIP3   OH227004   6.556   1.566   1.578  0.0684  0.0384 -0.2585
 1790TIP3    H127005   6.496   1.564   1.503  0.0354 -0.6465 -0.2233
 1790TIP3    H227006   6.555   1.657   1.607 -2.5629 -0.3335  1.0559
 1791TIP3   OH227007   1.637   4.261   8.327 -0.0572  0.3588 -0.3288
 1791TIP3    H127008   1.622   4.184   8.272 -0.4378  0.1669  0.0334
 1791TIP3    H227009   1.680   4.226   8.405  0.4093  0.6177 -0.4648
 1792TIP3   OH227010   4.424   5.964   7.843  0.0036  0.1652 -0.0157
 1792TIP3    H127011   4.354   5.995   7.786 -0.3233  0.5111  0.5569
 1792TIP3    H227012   4.504   5.997   7.803 -0.2779  1.0290  0.1034
 1793TIP3   OH227013   5.389   5.581   1.481  0.0300 -0.0945 -0.5396
 1793TIP3    H127014   5.350   5.502   1.518  1.9451 -0.3731  1.0623
 1793TIP3    H227015   5.327   5.650   1.503 -1.0807 -0.9553 -0.8665
 1794TIP3   OH227016   0.505   5.006   1.244 -0.5947  0.4562  0.4776
 1794TIP3    H127017   0.513   5.094   1.206 -1.8515  0.1260 -0.5885
 1794TIP3    H227018   0.411   4.993   1.255 -0.3919 -0.6045  1.0284
 1795TIP3   OH227019   5.941   2.453   7.793  0.3369 -0.2353 -0.1400
 1795TIP3    H127020   5.868   2.412   7.745  1.6751 -0.0036 -2.5142
 1795TIP3    H227021   5.909   2.540   7.814  0.3127  0.3439 -2.3337
 1796TIP3   OH227022   3.509   2.783   6.876  0.3602  0.0695 -0.3957
 1796TIP3    H127023   3.494   2.781   6.782 -0.3039 -0.3696 -0.2903
 1796TIP3    H227024   3.604   2.776   6.886  0.5088  1.0725 -1.0488
 1797TIP3   OH227025   2.980   2.307   0.735  0.0576 -0.4144  0.1816
 1797TIP3    H127026   3.037   2.382   0.751 -1.0470  0.7359 -1.1163
 1797TIP3    H227027   3.028   2.254   0.671 -0.1105  0.2926 -0.5343
 1798TIP3   OH227028   5.030   1.945   7.586  0.0914  0.5908 -0.3081
 1798TIP3    H127029   5.077   1.887   7.526 -1.2383 -0.2001 -0.6305
 1798TIP3    H227030   5.093   1.964   7.655  0.8728 -0.4679 -0.6958
 1799TIP3   OH227031   6.184   0.222   7.066 -0.3678 -0.2035  0.2994
 1799TIP3    H127032   6.089   0.229   7.053 -0.2091  0.9449 -0.3371
 1799TIP3    H227033   6.221   0.225   6.978  0.4159  2.5362  0.6365
 1800TIP3   OH227034   3.915   3.893   1.890 -0.8109  0.5914  0.2612
 1800TIP3    H127035   3.879   3.807   1.911 -2.2567  0.4672 -2.2508
 1800TIP3    H227036   3.879   3.952   1.957  0.4651 -0.7236  2.2071
 1801TIP3   OH227037   5.783   0.807   7.683 -0.0365  0.2487 -0.0161
 1801TIP3    H127038   5.822   0.804   7.596 -0.2904 -0.5622 -0.1102
 1801TIP3    H227039   5.747   0.896   7.691 -0.2886  0.2304 -0.8586
 1802TIP3   OH227040   5.627   5.739   8.052  0.3874 -0.4345 -0.0467
 1802TIP3    H127041   5.636   5.797   8.128  0.4183  0.0791 -0.4339
 1802TIP3    H227042   5.584   5.794   7.986  0.6815 -0.7676 -0.5165
 1803TIP3   OH227043   2.978   4.902   2.205  0.4077  0.0777 -0.7410
 1803TIP3    H127044   3.054   4.955   2.228  1.0617 -1.5016  1.0298
 1803TIP3    H227045   2.910   4.927   2.269  0.4758 -0.6234 -0.3744
 1804TIP3   OH227046   1.377   3.730   2.898  0.1123 -0.9841  0.8720
 1804TIP3    H127047   1.407   3.786   2.970  0.0203 -0.1351  0.2603
 1804TIP3    H227048   1.383   3.785   2.820 -0.7260 -1.5831  0.3662
 1805TIP3   OH227049   4.284   1.017   7.788  0.5876  0.3515 -0.2854
 1805TIP3    H127050   4.312   1.016   7.697 -0.8387 -4.1253 -0.9553
 1805TIP3    H227051   4.364   1.003   7.838  1.0082 -0.7041 -1.2123
 1806TIP3   OH227052   3.175   5.876   7.966 -0.2349 -0.1959 -0.5024
 1806TIP3    H127053   3.265   5.908   7.955 -1.0888  2.1084 -1.1559
 1806TIP3    H227054   3.165   5.868   8.061  0.4972  0.0336 -0.3960
 1807TIP3   OH227055   3.201   2.635   7.388  0.6967 -0.3143  0.1597
 1807TIP3    H127056   3.140   2.606   7.321  0.7489 -1.0437  0.4200
 1807TIP3    H227057   3.146   2.651   7.465  0.9777 -2.2948  0.8068
 1808TIP3   OH227058   1.389   1.739   0.895 -0.4419  0.8413 -0.0613
 1808TIP3    H127059   1.452   1.758   0.825 -0.3841  1.1048  0.0607
 1808TIP3    H227060   1.331   1.816   0.896  0.3931  1.4733  1.0993
 1809TIP3   OH227061   3.912   1.829   1.498  0.7180  0.4360  0.0121
 1809TIP3    H127062   3.894   1.845   1.405 -0.1625 -0.6125 -0.0148
 1809TIP3    H227063   3.951   1.741   1.499  2.5145  1.1835  0.4634
 1810TIP3   OH227064   1.998   2.811   1.073  0.0093 -0.2327 -0.0017
 1810TIP3    H127065   1.956   2.842   0.993  0.3576 -1.7744 -0.8233
 1810TIP3    H227066   1.927   2.771   1.123 -0.3540  1.3892  0.8518
 1811TIP3   OH227067   5.515   2.241   8.228 -0.4345 -0.2165  0.6168
 1811TIP3    H127068   5.591   2.250   8.286  1.2224  1.3844 -1.6312
 1811TIP3    H227069   5.507   2.147   8.214  1.2995 -0.4148  0.7174
 1812TIP3   OH227070   5.762   5.253   1.753 -0.5212 -0.3514  0.3082
 1812TIP3    H127071   5.732   5.319   1.815 -0.7294  0.5100 -0.6808
 1812TIP3    H227072   5.832   5.296   1.704 -0.7596 -0.8148 -0.4497
 1813TIP3   OH227073   5.615   1.175   7.674 -0.0286 -0.4454  0.3348
 1813TIP3    H127074   5.615   1.165   7.579  2.2693 -0.6514  0.2996
 1813TIP3    H227075   5.549   1.113   7.705 -1.5852  0.3889 -1.1501
 1814TIP3   OH227076   4.049   2.420   8.009 -0.3821  0.4360  0.4617
 1814TIP3    H127077   3.963   2.387   7.984 -0.7680  2.0365 -0.4450
 1814TIP3    H227078   4.108   2.390   7.940 -0.4755  0.5405  0.3381
 1815TIP3   OH227079   5.000   6.504   0.529 -0.3443  0.1877 -0.2963
 1815TIP3    H127080   5.013   6.595   0.501 -1.2331 -0.0246 -1.4548
 1815TIP3    H227081   4.908   6.485   0.509 -1.0135 -0.0900  2.5798
 1816TIP3   OH227082   4.886   1.262   7.974  0.3604  0.0536  0.1998
 1816TIP3    H127083   4.834   1.327   8.021  0.5639  0.7509 -0.5099
 1816TIP3    H227084   4.974   1.300   7.972  0.8536 -0.9854  1.1540
 1817TIP3   OH227085   5.790   2.202   1.170  0.3354  0.6594 -0.0311
 1817TIP3    H127086   5.773   2.183   1.262  0.3184  0.4198 -0.0846
 1817TIP3    H227087   5.880   2.233   1.168  1.1560 -1.5700 -0.2455
 1818TIP3   OH227088   5.393   5.587   2.453  0.0745 -0.0852  0.3266
 1818TIP3    H127089   5.312   5.550   2.489 -0.3413  1.0143  0.5867
 1818TIP3    H227090   5.419   5.653   2.517  1.4030 -0.6828  0.4253
 1819TIP3   OH227091   4.887   4.259   2.728 -0.3093 -0.0202  0.0617
 1819TIP3    H127092   4.941   4.234   2.803 -0.9362  2.0900  1.2845
 1819TIP3    H227093   4.946   4.308   2.671  0.3787 -2.3021 -1.3089
 1820TIP3   OH227094   1.823   4.317   1.546 -0.2983 -0.0786  0.2415
 1820TIP3    H127095   1.755   4.255   1.520 -0.7898 -0.4378  2.1757
 1820TIP3    H227096   1.856   4.282   1.629  0.9140  1.1273  0.3000
 1821TIP3   OH227097   4.701   3.746   2.391  0.2433  0.2227  0.2857
 1821TIP3    H127098   4.635   3.716   2.454 -0.5513  1.6755  0.1753
 1821TIP3    H227099   4.652   3.799   2.328  1.3514  0.4427 -0.4194
 1822TIP3   OH227100   2.742   1.503   1.786 -0.0276 -0.9811 -0.0608
 1822TIP3    H127101   2.742   1.598   1.800  0.5826 -0.8657 -0.7675
 1822TIP3    H227102   2.828   1.475   1.816  1.0410 -0.8273 -2.7205
 1823TIP3   OH227103   1.005   0.830   2.430  0.2741  0.3406 -0.1339
 1823TIP3    H127104   1.043   0.799   2.513 -0.6699 -0.6787 -0.0468
 1823TIP3    H227105   0.928   0.774   2.418 -1.4456  2.5907 -0.0767
 1824TIP3   OH227106   6.564   4.025   8.169 -0.4502  0.6990  0.0884
 1824TIP3    H127107   6.509   4.100   8.146  0.3950  0.7490 -1.9088
 1824TIP3    H227108   6.632   4.023   8.102  1.2006 -0.1892  1.7059
 1825TIP3   OH227109   3.345   2.836   7.985  0.6382  0.2580  0.5618
 1825TIP3    H127110   3.279   2.781   7.942  2.1450 -0.9307 -0.3108
 1825TIP3    H227111   3.376   2.894   7.915 -0.7293  2.0966  1.4033
 1826TIP3   OH227112   6.556   1.122   7.271 -0.2717 -0.3438 -0.6078
 1826TIP3    H127113   6.503   1.052   7.234 -1.5624 -1.4269  2.8426
 1826TIP3    H227114   6.639   1.079   7.294  0.7263  0.4379 -2.5107
 1827TIP3   OH227115   4.040   6.463   1.977 -0.3246 -0.2661  0.5366
 1827TIP3    H127116   4.033   6.448   2.071  2.1450 -1.4255  0.6139
 1827TIP3    H227117   4.003   6.550   1.964 -0.7683 -0.1078  2.5776
 1828TIP3   OH227118   1.782   0.442   0.454  0.3666 -0.0598  0.0979
 1828TIP3    H127119   1.717   0.385   0.412 -0.1804 -0.1518  1.0380
 1828TIP3    H227120   1.754   0.531   0.430 -0.1661 -0.0961  0.5773
 1829TIP3   OH227121   3.658   2.444   0.001  0.3400  0.3093 -0.2675
 1829TIP3    H127122   3.651   2.362  -0.048  0.9239  0.4708 -0.6273
 1829TIP3    H227123   3.567   2.473   0.012 -0.0804 -1.4999  1.8107
 1830TIP3   OH227124   1.968   5.819   8.061  0.2456 -0.0419 -0.6502
 1830TIP3    H127125   2.030   5.782   7.998 -0.7389  0.2330 -1.8128
 1830TIP3    H227126   1.900   5.859   8.007 -0.3303  0.7135  0.5939
 1831TIP3   OH227127   0.340   0.332   1.913  0.0621  0.3080  0.1787
 1831TIP3    H127128   0.390   0.252   1.932 -0.3197  0.3156  1.3344
 1831TIP3    H227129   0.251   0.311   1.942 -0.3964  0.6165 -0.9836
 1832TIP3   OH227130   6.562   1.025   7.763  0.5504  0.2035 -0.2836
 1832TIP3    H127131   6.492   0.978   7.717  1.1749 -0.0927 -0.9483
 1832TIP3    H227132   6.527   1.040   7.851  0.6566 -2.3817  0.3074
 1833TIP3   OH227133   4.010   4.831   7.606 -0.1246 -0.3597  0.5737
 1833TIP3    H127134   4.078   4.835   7.673 -0.1672  2.3580  0.5373
 1833TIP3    H227135   4.010   4.918   7.566 -2.4177 -0.8470 -0.6475
 1834TIP3   OH227136   5.887   4.997   2.529 -0.4913  0.0754  0.4017
 1834TIP3    H127137   5.873   5.026   2.619 -1.7995 -0.4866  0.4008
 1834TIP3    H227138   5.799   4.982   2.494  0.0147 -0.3277 -0.7659
 1835TIP3   OH227139   5.756   5.379   8.269  0.0348  0.3965 -0.3218
 1835TIP3    H127140   5.729   5.333   8.348 -1.3232 -1.2161 -1.6429
 1835TIP3    H227141   5.790   5.463   8.300 -1.7101  0.3719  1.8592
 1836TIP3   OH227142   3.049   1.083   0.431  0.2706 -0.1632  0.1388
 1836TIP3    H127143   3.050   1.021   0.358 -1.0805  3.9026 -3.7905
 1836TIP3    H227144   2.966   1.065   0.476 -0.6777 -0.4788 -1.6391
 1837TIP3   OH227145   5.944   3.123   7.886  0.2318 -0.1008 -0.6062
 1837TIP3    H127146   5.958   3.029   7.892 -0.4835 -0.2674 -1.4826
 1837TIP3    H227147   5.923   3.150   7.975  0.1976 -0.8057 -0.3986
 1838TIP3   OH227148   6.145   4.561   0.322 -0.3936 -0.0998 -0.1043
 1838TIP3    H127149   6.207   4.508   0.373 -1.0943 -0.1924  0.6852
 1838TIP3    H227150   6.177   4.556   0.232  0.8347 -0.0080  0.3105
 1839TIP3   OH227151   3.489   5.694   0.519  0.3552 -0.2578 -0.2519
 1839TIP3    H127152   3.411   5.715   0.469 -1.3590 -1.0788  1.8980
 1839TIP3    H227153   3.541   5.774   0.518 -0.5492  0.3417 -1.6513
 1840TIP3   OH227154   0.759   2.232   2.814  0.0492 -0.2214 -0.3575
 1840TIP3    H127155   0.784   2.145   2.846 -1.0398  0.2705  2.0249
 1840TIP3    H227156   0.669   2.243   2.843 -0.4571  1.0262 -2.2243
 1841TIP3   OH227157   6.812   5.678   1.346  0.2011 -0.1257 -0.1073
 1841TIP3    H127158   6.874   5.751   1.351  1.1216 -0.9393  0.7905
 1841TIP3    H227159   6.814   5.639   1.433  1.5623 -2.6737 -1.1580
 1842TIP3   OH227160   0.031   3.869   6.961  0.3851  0.1400 -0.3305
 1842TIP3    H127161   0.049   3.860   6.868  1.0458 -0.8574 -0.1244
 1842TIP3    H227162   0.003   3.960   6.972 -0.3175  0.0969 -1.5902
 1843TIP3   OH227163   2.262   5.194   7.994 -0.0980 -0.0780  0.7230
 1843TIP3    H127164   2.264   5.113   7.942  0.5756  0.8029 -0.6808
 1843TIP3    H227165   2.346   5.235   7.977 -1.8584  2.8862 -1.9197
 1844TIP3   OH227166   5.502   5.978   7.938 -0.1750  0.1330  0.2862
 1844TIP3    H127167   5.473   6.028   8.014 -2.8792  0.8656 -1.1214
 1844TIP3    H227168   5.494   6.039   7.865  0.1002 -1.2619 -0.9453
 1845TIP3   OH227169   3.350   3.687   0.528  0.5618 -0.8168 -0.1964
 1845TIP3    H127170   3.355   3.612   0.587  1.9128 -0.2743  0.4040
 1845TIP3    H227171   3.266   3.728   0.548 -0.4488 -2.4467 -0.9106
 1846TIP3   OH227172   1.372   2.782   1.638  0.5090  0.0468  0.4135
 1846TIP3    H127173   1.307   2.750   1.700  0.4827  0.2667  0.4983
 1846TIP3    H227174   1.321   2.807   1.561  0.2361  2.1401  1.2011
 1847TIP3   OH227175   3.740   4.878   7.677 -0.4431 -0.1919  0.0754
 1847TIP3    H127176   3.688   4.821   7.619 -0.2324  0.3088 -0.6249
 1847TIP3    H227177   3.829   4.843   7.671 -0.2172  0.4919 -0.7442
 1848TIP3   OH227178   5.190   5.128   8.190  0.5685  0.1633  0.1292
 1848TIP3    H127179   5.197   5.039   8.223  1.3257  0.0654 -0.2802
 1848TIP3    H227180   5.102   5.156   8.215  0.4916 -0.5324  0.6582
 1849TIP3   OH227181   2.433   3.594   6.990  0.3809  0.2123  0.3096
 1849TIP3    H127182   2.488   3.558   6.920 -1.3224  0.5904 -1.3113
 1849TIP3    H227183   2.426   3.687   6.969  0.4903  0.4965  1.4750
 1850TIP3   OH227184   0.885   2.660   2.198 -0.4762 -0.6725  0.0362
 1850TIP3    H127185   0.914   2.654   2.289 -2.7776 -0.2481  0.8594
 1850TIP3    H227186   0.816   2.594   2.190 -1.6466  0.6091 -0.8346
 1851TIP3   OH227187   5.790   4.528   8.054  0.0953  0.0292 -0.2432
 1851TIP3    H127188   5.706   4.517   8.009  0.8925 -2.6639 -1.2120
 1851TIP3    H227189   5.853   4.482   8.000  1.6800 -0.6033  2.0085
 1852TIP3   OH227190   2.557   4.600   7.271  0.1538  0.3634 -0.3691
 1852TIP3    H127191   2.622   4.606   7.341  0.2835  2.1092 -0.5936
 1852TIP3    H227192   2.491   4.539   7.304  0.5146  0.7033  1.0164
 1853TIP3   OH227193   3.360   5.491   0.681  0.7043 -0.0207  0.2778
 1853TIP3    H127194   3.413   5.481   0.760  2.0416  1.9879 -0.2775
 1853TIP3    H227195   3.382   5.579   0.649 -0.5999 -0.3736 -1.7511
 1854TIP3   OH227196   0.065   1.017   2.494  0.4607  0.7388  0.2176
 1854TIP3    H127197   0.037   1.102   2.528 -0.9668  0.5339 -0.3837
 1854TIP3    H227198  -0.016   0.974   2.467  1.3208 -0.0602 -1.2200
 1855TIP3   OH227199   2.961   1.502   2.209  0.4427  0.0396  0.2438
 1855TIP3    H127200   2.982   1.566   2.141  1.1730  0.9889  1.3264
 1855TIP3    H227201   2.867   1.487   2.199  0.6103 -0.1913 -1.2487
 1856TIP3   OH227202   0.657   0.336   8.280 -0.5275 -0.1280  0.0875
 1856TIP3    H127203   0.585   0.274   8.272  0.4396 -1.1908 -0.5150
 1856TIP3    H227204   0.641   0.401   8.211 -1.3984  0.1794  0.5582
 1857TIP3   OH227205   0.220   3.801   7.187 -0.0507 -0.5557 -0.1083
 1857TIP3    H127206   0.154   3.818   7.254 -0.1239 -1.5806  0.0869
 1857TIP3    H227207   0.176   3.823   7.105 -0.0981  0.2945  0.1263
 1858TIP3   OH227208   3.821   0.099   0.025  0.4304  0.2132 -0.3871
 1858TIP3    H127209   3.769   0.110  -0.054  1.2436 -0.3264 -1.0141
 1858TIP3    H227210   3.826   0.187   0.063 -1.0963  0.2355 -0.1941
 1859TIP3   OH227211   4.285   4.615   7.274 -0.5102  0.0687  0.0342
 1859TIP3    H127212   4.374   4.588   7.254 -1.1039 -1.7632 -0.2871
 1859TIP3    H227213   4.293   4.661   7.358  1.1643  2.8736 -1.5009
 1860TIP3   OH227214   0.326   2.219   8.252 -0.8877 -0.5743  0.0461
 1860TIP3    H127215   0.255   2.177   8.203 -0.3005 -0.3670 -1.0030
 1860TIP3    H227216   0.332   2.307   8.215 -1.0831 -0.0635  1.1733
 1861TIP3   OH227217   3.831   1.428   1.734 -0.0303 -0.5570  0.1574
 1861TIP3    H127218   3.889   1.499   1.762  1.2717 -1.6854  0.4320
 1861TIP3    H227219   3.755   1.472   1.696 -0.3196  1.0166  2.3857
 1862TIP3   OH227220   5.434   1.966   8.054  0.5081 -0.7426 -0.1224
 1862TIP3    H127221   5.361   2.027   8.055  1.5795  0.5786  0.6242
 1862TIP3    H227222   5.487   1.992   7.979  0.6229 -1.1800 -0.1976
 1863TIP3   OH227223   5.564   1.299   0.414 -0.5214 -0.2587 -0.1051
 1863TIP3    H127224   5.618   1.372   0.384 -0.2287 -0.2363  0.4640
 1863TIP3    H227225   5.476   1.337   0.423 -0.0782  0.4418  1.6500
 1864TIP3   OH227226   0.017   2.257   7.085  0.1360  0.4119 -0.2291
 1864TIP3    H127227  -0.006   2.340   7.127 -1.2589  0.0734 -0.2785
 1864TIP3    H227228  -0.060   2.202   7.097 -0.0574  0.0732 -2.6299
 1865TIP3   OH227229   1.757   3.867   7.147  0.7720 -0.5897 -0.1576
 1865TIP3    H127230   1.689   3.900   7.206  0.4149  1.8651 -1.7880
 1865TIP3    H227231   1.838   3.875   7.197  0.2450 -0.6286  0.7324
 1866TIP3   OH227232   3.096   6.730   7.033 -0.6544 -0.2033  0.3840
 1866TIP3    H127233   3.093   6.694   7.121 -0.4088 -2.4370 -0.4470
 1866TIP3    H227234   3.006   6.724   7.001 -0.4131 -1.3149 -0.1682
 1867TIP3   OH227235   3.769   0.949   0.280  0.1679  0.4906 -0.1217
 1867TIP3    H127236   3.716   0.947   0.200  0.6071  0.1733 -0.4070
 1867TIP3    H227237   3.706   0.968   0.349 -0.4745 -0.7533 -0.3444
 1868TIP3   OH227238   1.216   0.445   8.622  0.1230  0.2497 -0.0272
 1868TIP3    H127239   1.151   0.386   8.584  0.4348 -0.3198  0.2920
 1868TIP3    H227240   1.172   0.530   8.628  0.0531  0.3448 -1.5874
 1869TIP3   OH227241   6.802   3.514   1.373  0.1706  0.1943  0.3180
 1869TIP3    H127242   6.856   3.582   1.333  0.7630  0.3017  1.2737
 1869TIP3    H227243   6.712   3.544   1.360  0.2458 -0.4693 -2.1726
 1870TIP3   OH227244   6.479   3.511   7.492 -0.0954  0.5882  0.0775
 1870TIP3    H127245   6.413   3.449   7.523  1.4334 -0.3253  1.6677
 1870TIP3    H227246   6.521   3.467   7.419  0.5723 -0.0098  0.8118
 1871TIP3   OH227247   3.550   1.001   7.778  0.4361  0.4986 -0.0747
 1871TIP3    H127248   3.562   1.088   7.816  1.5372  0.3652 -0.0937
 1871TIP3    H227249   3.499   1.015   7.699  0.1541  1.0632  0.2062
 1872TIP3   OH227250   3.945   1.413   7.806  0.9965 -0.3342 -0.0880
 1872TIP3    H127251   4.023   1.382   7.761 -0.0619  0.6563 -2.8356
 1872TIP3    H227252   3.872   1.373   7.758 -0.2327  1.2610  0.3416
 1873TIP3   OH227253   2.246   3.650   7.405 -0.1509  0.6280 -0.0862
 1873TIP3    H127254   2.288   3.613   7.483  1.7901 -0.1997 -1.4317
 1873TIP3    H227255   2.292   3.733   7.390 -0.1068  0.5079 -0.6476
 1874TIP3   OH227256   3.623   2.779   1.423 -0.4772  0.7052  0.3878
 1874TIP3    H127257   3.700   2.753   1.473 -1.5964  0.7542  2.2354
 1874TIP3    H227258   3.617   2.874   1.435 -0.0591  0.9193 -0.9309
 1875TIP3   OH227259   5.094   5.332   0.809 -0.4868 -0.6321  0.4921
 1875TIP3    H127260   5.169   5.346   0.751  0.4364 -1.3373  1.4791
 1875TIP3    H227261   5.133   5.310   0.893 -1.8141 -0.3185  1.2118
 1876TIP3   OH227262   3.267   3.912   8.590 -0.1208  0.4182  0.6039
 1876TIP3    H127263   3.199   3.947   8.647  1.1879  5.5124 -0.4835
 1876TIP3    H227264   3.245   3.943   8.503  1.1960 -1.8999 -0.6607
 1877TIP3   OH227265   5.171   6.064   7.358 -0.2985  0.5256  0.2483
 1877TIP3    H127266   5.222   6.124   7.304  0.9482 -1.4631 -0.9301
 1877TIP3    H227267   5.113   6.019   7.297  1.6810 -2.3222  0.2390
 1878TIP3   OH227268   0.624   3.767   8.312 -0.2027 -0.5228  0.0318
 1878TIP3    H127269   0.563   3.815   8.369  1.1816  0.2990  0.8740
 1878TIP3    H227270   0.670   3.836   8.263 -1.1980 -1.2013 -1.9776
 1879TIP3   OH227271   0.745   4.843   1.026  0.2078  0.6111  0.1931
 1879TIP3    H127272   0.769   4.928   1.064  0.5072  1.0872 -1.0016
 1879TIP3    H227273   0.819   4.822   0.968 -1.0727  0.8720 -1.6194
 1880TIP3   OH227274   6.774   6.235   6.782 -0.2894  0.2394  0.1270
 1880TIP3    H127275   6.737   6.303   6.725 -0.0701  0.5871  0.3919
 1880TIP3    H227276   6.710   6.226   6.853 -1.8744 -2.0255 -1.4405
 1881TIP3   OH227277   3.931   1.104   7.703 -0.4068  0.3048 -0.4186
 1881TIP3    H127278   3.836   1.114   7.692 -0.5459  1.3431  1.3552
 1881TIP3    H227279   3.940   1.053   7.784  0.5732 -1.6451 -1.6554
 1882TIP3   OH227280   6.054   3.450   7.210  0.2165  0.3139 -0.0658
 1882TIP3    H127281   6.118   3.455   7.139 -0.3917 -1.9048 -0.8684
 1882TIP3    H227282   5.970   3.435   7.166 -0.3629  0.0665  1.0821
 1883TIP3   OH227283   5.196   4.474   1.887  0.1546 -0.5281 -0.5400
 1883TIP3    H127284   5.192   4.454   1.794 -1.4849 -0.0281 -0.5992
 1883TIP3    H227285   5.283   4.444   1.914  0.7309 -0.4994 -2.2533
 1884TIP3   OH227286   3.721   3.679   7.793  0.0750  0.0617  0.0413
 1884TIP3    H127287   3.765   3.607   7.837 -0.2815 -0.5719 -0.6249
 1884TIP3    H227288   3.638   3.642   7.763  0.2892  0.4848 -1.1238
 1885TIP3   OH227289   2.408   2.214   1.201  0.0110  0.2555  0.2111
 1885TIP3    H127290   2.457   2.260   1.133 -2.0216  1.2924 -0.6457
 1885TIP3    H227291   2.385   2.130   1.161  1.0167 -0.2237  0.6064
 1886TIP3   OH227292   0.835   2.272   7.386 -0.4251 -0.2089 -0.0762
 1886TIP3    H127293   0.781   2.201   7.421  1.8366 -1.7417  0.5080
 1886TIP3    H227294   0.911   2.275   7.443 -0.8154  3.4163  0.5216
 1887TIP3   OH227295   5.566   5.652   0.437 -0.5002 -0.0249  0.2743
 1887TIP3    H127296   5.623   5.575   0.436  1.2137  1.1906  0.4440
 1887TIP3    H227297   5.590   5.701   0.359 -1.1013  0.6613  0.5123
 1888TIP3   OH227298   3.815   0.199   0.937 -0.2935 -0.7322  0.0898
 1888TIP3    H127299   3.768   0.116   0.941 -1.4068 -0.0865  0.9217
 1888TIP3    H227300   3.817   0.230   1.027  0.5074 -0.0583 -0.1463
 1889TIP3   OH227301   5.460   5.572   0.684 -0.4961  0.6514  0.4541
 1889TIP3    H127302   5.502   5.586   0.599 -0.5534 -2.0259 -0.1001
 1889TIP3    H227303   5.526   5.600   0.748  0.8514 -0.3074 -0.4618
 1890TIP3   OH227304   3.383   4.487   7.702 -0.2264 -0.1301  0.0492
 1890TIP3    H127305   3.352   4.565   7.657  0.7917  0.2204 -0.0726
 1890TIP3    H227306   3.478   4.492   7.697 -0.1387 -1.6942 -0.4965
 1891TIP3   OH227307   2.707   3.273   1.874 -0.5857  0.4356  0.2848
 1891TIP3    H127308   2.620   3.277   1.914 -0.4401  0.1087  0.6291
 1891TIP3    H227309   2.763   3.322   1.934 -0.1201 -1.0692  1.1234
 1892TIP3   OH227310   5.416   1.153   7.980  0.4072 -0.0844  0.1318
 1892TIP3    H127311   5.324   1.127   7.976  0.2154  0.3591  1.4450
 1892TIP3    H227312   5.422   1.228   7.921 -0.0206 -0.2341 -0.1078
 1893TIP3   OH227313   0.559   0.070   7.945 -0.3340  0.3889 -0.3228
 1893TIP3    H127314   0.580   0.087   8.037  2.4233 -1.3972 -0.4800
 1893TIP3    H227315   0.641   0.035   7.909 -2.0537 -1.3698 -2.8165
 1894TIP3   OH227316   1.998   3.729   1.220  0.0987 -0.6990 -0.8140
 1894TIP3    H127317   2.083   3.773   1.223 -0.5706  0.6312 -0.6160
 1894TIP3    H227318   1.992   3.682   1.303  0.0501  0.3870 -0.1787
 1895TIP3   OH227319   3.079   1.182   0.032 -0.2544 -0.1840 -0.4028
 1895TIP3    H127320   3.158   1.194   0.085  0.3268 -0.9565 -1.0655
 1895TIP3    H227321   3.009   1.165   0.096  0.4684 -1.2901  0.1302
 1896TIP3   OH227322   5.109   4.587   2.788 -0.5469 -0.3650  0.4890
 1896TIP3    H127323   5.081   4.517   2.729  0.3950 -0.8376  0.5847
 1896TIP3    H227324   5.194   4.615   2.755  0.2531 -1.0085  1.8924
 1897TIP3   OH227325   5.046   2.612   8.303  0.1973  0.0978  0.2089
 1897TIP3    H127326   5.038   2.616   8.208  1.8372 -1.3046 -0.0332
 1897TIP3    H227327   5.075   2.522   8.321  0.2028  0.4231  2.0109
 1898TIP3   OH227328   1.508   1.143   0.227  0.1191  0.2753 -0.4796
 1898TIP3    H127329   1.594   1.156   0.267  0.0435 -1.6946  0.3983
 1898TIP3    H227330   1.485   1.053   0.247 -2.0199  0.6559 -1.0085
 1899TIP3   OH227331   0.373   4.597   6.991 -0.3821 -0.2684 -0.2679
 1899TIP3    H127332   0.321   4.657   6.938  0.0967 -0.6145 -1.1408
 1899TIP3    H227333   0.347   4.510   6.961  1.0866 -0.4430 -1.1196
 1900TIP3   OH227334   4.087   0.187   8.626 -0.7720 -0.2315 -0.2872
 1900TIP3    H127335   4.017   0.142   8.673 -0.6883 -1.9307 -1.7034
 1900TIP3    H227336   4.117   0.254   8.688 -0.0036 -2.9292  2.5309
 1901TIP3   OH227337   5.184   4.633   6.660  0.8878  0.5515  0.7233
 1901TIP3    H127338   5.192   4.543   6.692  0.4415  0.7723  1.4964
 1901TIP3    H227339   5.103   4.633   6.609  1.3579  0.3092 -0.0390
 1902TIP3   OH227340   4.598   3.913   8.613 -0.2279 -0.3796  0.3661
 1902TIP3    H127341   4.528   3.862   8.572  0.6875 -0.9266 -0.5625
 1902TIP3    H227342   4.567   4.004   8.609 -1.2202 -0.6933  0.6817
 1903TIP3   OH227343   5.058   2.719   0.076  0.5424 -0.2023 -0.2047
 1903TIP3    H127344   5.035   2.806   0.044  1.2874  0.0126 -0.1749
 1903TIP3    H227345   5.049   2.726   0.171 -1.1868 -0.6992 -0.2926
 1904TIP3   OH227346   4.395   0.580   1.500 -0.5540  0.2136  0.4067
 1904TIP3    H127347   4.427   0.661   1.459  0.8628  0.4677  1.9120
 1904TIP3    H227348   4.472   0.543   1.542 -0.9960 -2.3703 -0.8806
 1905TIP3   OH227349   6.893   0.435   1.767 -0.1717  0.3248  0.1378
 1905TIP3    H127350   6.867   0.343   1.760 -1.4995  0.6787  0.0445
 1905TIP3    H227351   6.988   0.434   1.767 -0.1640 -0.9519 -1.1675
 1906TIP3   OH227352   0.453   0.140   8.208 -0.8917 -0.0174  0.4077
 1906TIP3    H127353   0.367   0.177   8.227 -1.4386 -1.0583  0.0369
 1906TIP3    H227354   0.452   0.054   8.250 -0.4845 -0.5394 -0.6151
 1907TIP3   OH227355   0.584   4.753   8.404 -0.1541 -0.3930  0.3279
 1907TIP3    H127356   0.489   4.745   8.403 -0.1715 -0.4115  1.2104
 1907TIP3    H227357   0.604   4.810   8.330 -0.8082 -0.7831 -0.1605
 1908TIP3   OH227358   6.536   4.017   0.299 -0.4105  0.0157 -0.3332
 1908TIP3    H127359   6.631   4.023   0.311 -0.4570 -0.4557  0.3075
 1908TIP3    H227360   6.525   3.966   0.219 -0.1262 -0.5327 -0.0272
 1909TIP3   OH227361   2.907   0.046   0.745 -0.3906  0.2703 -0.5822
 1909TIP3    H127362   2.907  -0.033   0.799  0.7054  0.9177  0.4160
 1909TIP3    H227363   2.827   0.093   0.770 -1.7709 -1.1029 -2.1513
 1910TIP3   OH227364   2.342   1.187   8.319 -0.1176  0.4378  0.3638
 1910TIP3    H127365   2.381   1.102   8.339  2.2791  1.7247  1.5375
 1910TIP3    H227366   2.260   1.188   8.369  0.1666 -0.8841  0.8915
 1911TIP3   OH227367   3.489   3.913   7.671 -0.1898  0.3435  0.6120
 1911TIP3    H127368   3.400   3.884   7.690  0.2936 -0.5565  1.6355
 1911TIP3    H227369   3.513   3.869   7.590  0.2533 -1.5699  1.7367
 1912TIP3   OH227370   2.404   2.208   8.218  0.0690 -0.1042  0.3707
 1912TIP3    H127371   2.491   2.205   8.179  0.4121  1.2955  0.9516
 1912TIP3    H227372   2.357   2.134   8.179  1.4461 -0.7630 -0.0987
 1913TIP3   OH227373   4.360   2.179   0.344  0.0937 -0.0962  0.5732
 1913TIP3    H127374   4.313   2.131   0.413  0.5677 -0.8532  0.3825
 1913TIP3    H227375   4.320   2.148   0.263  1.2438 -1.1431  0.3784
 1914TIP3   OH227376   3.105   0.836   0.084  0.0663  0.0139 -0.0984
 1914TIP3    H127377   3.118   0.741   0.092  0.9042  0.2321  1.9933
 1914TIP3    H227378   3.194   0.872   0.090 -0.4038  1.0080  2.1664
 1915TIP3   OH227379   5.473   0.193   8.298 -0.3483 -0.1191 -0.7770
 1915TIP3    H127380   5.469   0.188   8.394 -0.7064  1.1910 -0.7154
 1915TIP3    H227381   5.450   0.104   8.269 -1.2217 -0.2756  0.3214
 1916TIP3   OH227382   2.928   4.639   2.229 -0.3673  0.6878 -0.0044
 1916TIP3    H127383   2.843   4.660   2.270 -1.6683  1.2485 -2.7818
 1916TIP3    H227384   2.972   4.723   2.223  0.1401  0.4954  0.8107
 1917TIP3   OH227385   3.929   0.504   2.191 -1.0784  0.6255 -0.1444
 1917TIP3    H127386   3.950   0.482   2.101 -0.4359 -1.1708  0.4080
 1917TIP3    H227387   4.002   0.559   2.220 -1.1377  0.9576 -0.6043
 1918TIP3   OH227388   2.437   1.269   0.920 -0.8025 -0.3836 -0.4429
 1918TIP3    H127389   2.401   1.199   0.974 -1.8328  0.2172 -0.3268
 1918TIP3    H227390   2.430   1.348   0.974 -2.0354  0.2640 -1.4996
 1919TIP3   OH227391   5.333   5.340   2.140  0.2483 -0.3443 -0.3331
 1919TIP3    H127392   5.314   5.434   2.138  1.3083 -0.1185 -0.9039
 1919TIP3    H227393   5.367   5.324   2.228 -2.5081 -0.7793  0.7436
 1920TIP3   OH227394   4.278   0.222   2.302  0.2325 -0.2849  1.0697
 1920TIP3    H127395   4.192   0.212   2.343 -0.3134 -2.3613 -0.4295
 1920TIP3    H227396   4.285   0.316   2.285 -2.8225 -0.2416 -0.8014
 1921TIP3   OH227397   3.046   1.878   0.682 -0.5430  0.1992  0.0454
 1921TIP3    H127398   3.004   1.937   0.620  1.5321  1.6412 -0.0882
 1921TIP3    H227399   3.139   1.879   0.658  0.2770  0.4801  2.8707
 1922TIP3   OH227400   4.753   6.765   2.489  0.7003  0.1906 -0.0663
 1922TIP3    H127401   4.697   6.812   2.551  2.1628  2.6271 -0.4534
 1922TIP3    H227402   4.752   6.820   2.410  4.0980  0.7606  0.1343
 1923TIP3   OH227403   0.749   6.807   8.191 -0.6857 -0.0651  0.0942
 1923TIP3    H127404   0.694   6.728   8.188 -1.4781  0.4171  1.1346
 1923TIP3    H227405   0.721   6.851   8.271  1.5642 -0.0367  0.9134
 1924TIP3   OH227406   4.343   4.769   0.789  0.0987  0.1076  0.2280
 1924TIP3    H127407   4.304   4.809   0.711  1.4242  0.5776 -0.2313
 1924TIP3    H227408   4.302   4.815   0.862  1.6133  2.4964 -0.2815
 1925TIP3   OH227409   5.026   4.475   7.378 -0.7240 -0.5845  0.3400
 1925TIP3    H127410   5.067   4.434   7.302 -2.6177 -1.5958 -0.1959
 1925TIP3    H227411   5.074   4.440   7.453  1.4648  0.7584 -0.3134
 1926TIP3   OH227412   5.001   0.874   1.787 -0.4128  0.6345 -0.2355
 1926TIP3    H127413   5.050   0.811   1.734 -0.1323  0.4942  0.1779
 1926TIP3    H227414   5.061   0.896   1.858 -0.1121  2.1881 -0.9457
 1927TIP3   OH227415   0.206   5.145   0.233 -0.0808 -0.3654 -0.4311
 1927TIP3    H127416   0.235   5.185   0.151  2.0034  0.3460  0.5742
 1927TIP3    H227417   0.140   5.205   0.267  1.2450  0.9829 -0.1404
 1928TIP3   OH227418   2.092   5.282   7.554  0.4005  0.3940 -0.6635
 1928TIP3    H127419   2.055   5.216   7.495  0.4041  0.0280 -0.2599
 1928TIP3    H227420   2.171   5.241   7.588  1.4845  1.3465 -1.8986
 1929TIP3   OH227421   0.008   5.917   8.154 -0.1470 -0.6841  0.2528
 1929TIP3    H127422   0.038   5.990   8.208 -2.0083  1.0036 -0.8826
 1929TIP3    H227423  -0.073   5.948   8.114 -0.6670 -3.1615 -0.7832
 1930TIP3   OH227424   2.322   5.653   2.232 -0.1854 -0.7916  0.5794
 1930TIP3    H127425   2.368   5.662   2.148 -0.3594 -0.7038  0.4919
 1930TIP3    H227426   2.244   5.708   2.222 -0.2500 -0.8486  0.7686
 1931TIP3   OH227427   1.511   0.463   1.274  0.1380 -0.0439  0.2390
 1931TIP3    H127428   1.447   0.395   1.296 -0.3072 -0.8879 -3.1072
 1931TIP3    H227429   1.458   0.538   1.248  0.5560  0.2854  0.3321
 1932TIP3   OH227430   3.465   2.668   0.885 -0.1048 -0.5585  0.1578
 1932TIP3    H127431   3.523   2.597   0.855  0.3379 -0.0959 -0.1012
 1932TIP3    H227432   3.501   2.746   0.843 -2.3652 -0.5665 -2.0352
 1933TIP3   OH227433   0.832   5.368   7.756  0.4713 -0.2742  0.3359
 1933TIP3    H127434   0.833   5.459   7.726 -1.7313  0.4680  2.2539
 1933TIP3    H227435   0.878   5.320   7.687  0.2824  2.0500 -1.5423
 1934TIP3   OH227436   5.789   1.768   8.599  0.2165 -0.5464  0.4239
 1934TIP3    H127437   5.858   1.832   8.581  1.3535 -1.9027 -0.2979
 1934TIP3    H227438   5.751   1.797   8.682 -1.2309  2.5964 -1.1673
 1935TIP3   OH227439   5.843   6.878   7.107  0.2490 -0.1671  0.1296
 1935TIP3    H127440   5.889   6.952   7.067  2.6643 -1.5586  0.1205
 1935TIP3    H227441   5.828   6.817   7.036 -1.5013  0.1488  0.1874
 1936TIP3   OH227442   4.880   1.736   7.781  0.1407  0.6974  0.1787
 1936TIP3    H127443   4.955   1.745   7.841  1.1349  0.8907 -1.0548
 1936TIP3    H227444   4.915   1.688   7.706 -1.4282 -0.7324  0.3007
 1937TIP3   OH227445   5.088   4.794   7.402 -0.1578  0.2596  0.6243
 1937TIP3    H127446   5.167   4.759   7.443 -1.1123 -0.5373  1.8479
 1937TIP3    H227447   5.056   4.860   7.464 -0.1729  0.9820 -0.1239
 1938TIP3   OH227448   1.132   3.686   2.758 -0.9287  0.4044 -0.6778
 1938TIP3    H127449   1.134   3.603   2.710  0.1492  0.5530 -0.9266
 1938TIP3    H227450   1.199   3.676   2.826 -1.8509  0.5148  0.2665
 1939TIP3   OH227451   1.562   4.280   2.253  0.5448 -0.4074 -0.2591
 1939TIP3    H127452   1.641   4.229   2.270  0.8147  0.2406  0.4486
 1939TIP3    H227453   1.563   4.350   2.318 -1.9812 -1.9139  1.5820
 1940TIP3   OH227454   4.224   2.529   2.528  0.2565  0.1611 -0.0825
 1940TIP3    H127455   4.258   2.495   2.446 -3.1486  0.2110 -1.6825
 1940TIP3    H227456   4.222   2.453   2.587 -0.6569 -0.7737 -1.2800
 1941TIP3   OH227457   4.449   0.483   2.361  0.4980  0.2601 -0.2969
 1941TIP3    H127458   4.428   0.491   2.454  1.8006  0.4002  0.0030
 1941TIP3    H227459   4.544   0.484   2.358  0.4706  0.2260 -1.6401
 1942TIP3   OH227460   5.687   2.230   7.937 -0.7810  0.0159  0.0705
 1942TIP3    H127461   5.757   2.196   7.992 -1.4455 -1.2271  0.1807
 1942TIP3    H227462   5.663   2.157   7.880 -2.3471  0.2346  0.4061
 1943TIP3   OH227463   4.162   3.705   2.109 -0.1927  0.0939 -0.5792
 1943TIP3    H127464   4.201   3.630   2.065 -0.1537 -0.3462  0.1832
 1943TIP3    H227465   4.150   3.770   2.040 -0.1515 -0.5805 -1.2353
 1944TIP3   OH227466   4.823   2.541   2.719 -1.1023  0.1190  0.5818
 1944TIP3    H127467   4.834   2.534   2.814 -0.7263  0.8413  0.5981
 1944TIP3    H227468   4.888   2.481   2.683 -1.1253 -0.0244  0.7776
 1945TIP3   OH227469   2.667   6.592   7.947  0.8952 -0.1531  0.1667
 1945TIP3    H127470   2.662   6.687   7.956 -1.0492 -0.2268  0.2082
 1945TIP3    H227471   2.671   6.560   8.037  1.5035 -0.1268  0.1534
 1946TIP3   OH227472   5.664   2.381   2.366 -0.1541  0.4821 -0.3009
 1946TIP3    H127473   5.735   2.413   2.422  0.0914 -0.2806 -0.1668
 1946TIP3    H227474   5.646   2.293   2.397 -0.6644  0.3992 -0.8094
 1947TIP3   OH227475   0.573   4.987   0.867  0.1146 -0.3968  0.4126
 1947TIP3    H127476   0.485   4.993   0.904  0.6342  0.6162  1.5500
 1947TIP3    H227477   0.628   4.961   0.941  0.7996 -0.9157 -0.2636
 1948TIP3   OH227478   3.127   3.509   7.191 -0.5912 -0.2550 -0.0086
 1948TIP3    H127479   3.218   3.487   7.212 -0.3284 -0.7888 -1.5703
 1948TIP3    H227480   3.101   3.571   7.258  0.9487 -0.0516  0.4347
 1949TIP3   OH227481   3.669   0.690   0.098 -0.3265  0.1982 -0.1302
 1949TIP3    H127482   3.663   0.676   0.004  0.8863 -2.0377  0.0670
 1949TIP3    H227483   3.755   0.729   0.111  0.3681 -1.3556  0.1771
 1950TIP3   OH227484   1.127   0.764   0.288 -0.4389 -1.2074  0.1578
 1950TIP3    H127485   1.041   0.798   0.312 -1.1458 -1.8433 -1.2927
 1950TIP3    H227486   1.115   0.730   0.199  0.6778 -3.4691  0.7698
 1951TIP3   OH227487   4.029   6.210   1.446 -0.5713  0.1392  0.3436
 1951TIP3    H127488   4.067   6.277   1.390 -1.5537  1.9287  1.7208
 1951TIP3    H227489   4.094   6.139   1.445  1.5405  1.9421  0.4969
 1952TIP3   OH227490   3.613   1.567   7.429  0.1643 -0.1801  0.5881
 1952TIP3    H127491   3.549   1.540   7.364 -0.9979  2.4014  0.5614
 1952TIP3    H227492   3.685   1.605   7.378  0.0935  0.1769  0.7546
 1953TIP3   OH227493   4.560   5.693   1.187  0.3944  0.1849 -0.1246
 1953TIP3    H127494   4.546   5.750   1.111 -0.3530  0.2732  0.0723
 1953TIP3    H227495   4.523   5.609   1.160  0.1648  0.2063  0.1239
 1954TIP3   OH227496   3.778   6.505   8.291  0.2010  0.0077  0.2186
 1954TIP3    H127497   3.741   6.593   8.280  1.5679  0.5275 -0.4970
 1954TIP3    H227498   3.782   6.492   8.386 -0.8697  0.3229  0.3192
 1955TIP3   OH227499   3.721   4.256   1.088  0.0757  0.2040  0.8117
 1955TIP3    H127500   3.801   4.203   1.092 -0.1856 -0.2782 -0.0545
 1955TIP3    H227501   3.650   4.192   1.090 -0.2816  0.6063  1.0927
 1956TIP3   OH227502   0.993   4.411   7.123 -0.3182  0.1092 -0.1656
 1956TIP3    H127503   0.912   4.422   7.072 -0.7350  1.5433  0.7470
 1956TIP3    H227504   1.043   4.345   7.075 -2.1274 -0.9929 -0.6246
 1957TIP3   OH227505   5.105   1.038   0.359 -0.5661  0.2869  0.0594
 1957TIP3    H127506   5.152   1.113   0.395 -1.4773  0.3661  1.1381
 1957TIP3    H227507   5.115   1.047   0.264  1.1866  0.5389  0.2431
 1958TIP3   OH227508   0.126   2.856   7.758  0.3790 -0.1704  0.3681
 1958TIP3    H127509   0.146   2.776   7.808 -0.8280 -0.4938  0.3582
 1958TIP3    H227510   0.089   2.916   7.823 -0.4134 -0.2871  0.0288
 1959TIP3   OH227511   1.446   5.028   7.701 -0.5806 -0.1737 -0.0186
 1959TIP3    H127512   1.427   4.955   7.760  0.5461 -1.2758 -0.9696
 1959TIP3    H227513   1.388   5.014   7.625 -0.9468  0.3989  0.1448
 1960TIP3   OH227514   4.169   1.090   8.100 -0.0899 -0.1926 -0.5197
 1960TIP3    H127515   4.220   1.023   8.146 -0.8835  0.4701  1.4550
 1960TIP3    H227516   4.207   1.173   8.128  0.7969  0.2472 -2.8375
 1961TIP3   OH227517   5.686   4.449   7.066  0.3066 -0.3502 -0.6929
 1961TIP3    H127518   5.718   4.530   7.105 -1.0921  0.8888 -1.9816
 1961TIP3    H227519   5.746   4.431   6.994  0.3959 -0.2354 -0.6469
 1962TIP3   OH227520   6.615   1.128   0.992 -0.1880  0.5147  0.1844
 1962TIP3    H127521   6.665   1.142   1.073 -0.9391  1.1064  0.5624
 1962TIP3    H227522   6.604   1.034   0.987  2.1194  0.2238 -0.6362
 1963TIP3   OH227523   6.409   1.571   8.256 -0.0747 -0.7467  0.4787
 1963TIP3    H127524   6.450   1.629   8.321  1.1773 -0.4297 -0.5542
 1963TIP3    H227525   6.432   1.483   8.285  1.2428 -0.5794  0.0172
 1964TIP3   OH227526   4.038   5.742   8.353 -0.2874 -0.5683  0.1593
 1964TIP3    H127527   4.106   5.806   8.371 -1.9489  1.4631 -0.3534
 1964TIP3    H227528   3.963   5.769   8.406 -2.0986 -0.0862 -2.4017
 1965TIP3   OH227529   4.420   1.655   8.098  0.1782 -0.3977  0.2338
 1965TIP3    H127530   4.358   1.641   8.026  0.4884  0.0040 -0.1118
 1965TIP3    H227531   4.501   1.681   8.056  0.0075  1.1199  0.7796
 1966TIP3   OH227532   4.055   5.889   1.814  0.0604  0.0085 -0.1242
 1966TIP3    H127533   3.999   5.924   1.882 -0.3273 -1.8607  0.5896
 1966TIP3    H227534   4.004   5.818   1.775  1.0783 -0.2905 -0.9655
 1967TIP3   OH227535   1.919   0.868   0.431 -0.2004  0.5619 -0.2117
 1967TIP3    H127536   1.928   0.841   0.340  0.9890 -0.0137  0.0605
 1967TIP3    H227537   2.005   0.852   0.470 -0.6422  0.9480  0.9721
 1968TIP3   OH227538   3.000   2.364   1.266  0.6518  0.1986  0.0693
 1968TIP3    H127539   3.040   2.401   1.345 -1.8030 -1.9273  2.5034
 1968TIP3    H227540   3.045   2.281   1.254 -0.0046 -0.1708  0.1555
 1969TIP3   OH227541   0.098   3.210   1.778 -0.3834  0.1542 -0.3141
 1969TIP3    H127542   0.058   3.291   1.747 -0.9469 -0.1996 -0.5289
 1969TIP3    H227543   0.104   3.221   1.873  0.3017  0.7804 -0.4242
 1970TIP3   OH227544   6.634   4.235   6.590  0.0614 -0.2053  0.2368
 1970TIP3    H127545   6.721   4.218   6.554 -0.3181 -1.1062 -0.2785
 1970TIP3    H227546   6.644   4.221   6.684  0.0970 -2.0609 -0.0061
 1971TIP3   OH227547   0.688   3.470   1.442 -0.0398 -0.3286  0.0558
 1971TIP3    H127548   0.657   3.514   1.522 -1.6580 -0.3540 -0.5204
 1971TIP3    H227549   0.660   3.527   1.371  1.9480  0.0152 -0.5052
 1972TIP3   OH227550   1.688   0.286   0.178  0.8306 -0.4205  0.4659
 1972TIP3    H127551   1.658   0.219   0.240  0.0115  2.2094  3.1432
 1972TIP3    H227552   1.610   0.338   0.159  0.7311 -1.8629 -4.0442
 1973TIP3   OH227553   3.675   6.289   0.652 -0.1220  0.1695  0.3673
 1973TIP3    H127554   3.666   6.380   0.682 -0.7809  0.0733  0.4732
 1973TIP3    H227555   3.769   6.278   0.639 -0.0995  1.1238 -0.4501
 1974TIP3   OH227556   3.565   3.567   7.300  0.0671 -0.4727 -0.1942
 1974TIP3    H127557   3.639   3.597   7.247 -0.5256  1.4091 -0.0563
 1974TIP3    H227558   3.552   3.476   7.274  0.2478  0.1379 -2.8008
 1975TIP3   OH227559   0.018   3.276   1.411 -0.1877 -0.5133 -0.4747
 1975TIP3    H127560  -0.037   3.353   1.397 -0.4098 -0.2677  1.4615
 1975TIP3    H227561   0.107   3.311   1.417  0.0597 -0.7575 -2.2960
 1976TIP3   OH227562   2.588   1.414   2.630  0.2213  0.3717 -0.1582
 1976TIP3    H127563   2.656   1.413   2.698 -0.5753 -0.0039  0.6597
 1976TIP3    H227564   2.546   1.500   2.640 -0.2242  0.1186  0.1637
 1977TIP3   OH227565   5.610   3.140   0.881 -0.4673  0.0795  0.4937
 1977TIP3    H127566   5.557   3.070   0.919 -1.1146  0.3618  0.1275
 1977TIP3    H227567   5.697   3.127   0.919 -0.1339 -1.9071 -0.8240
 1978TIP3   OH227568   1.737   6.330   7.179 -0.4950  0.7026 -0.4373
 1978TIP3    H127569   1.666   6.268   7.166 -1.3672  1.7478 -0.8340
 1978TIP3    H227570   1.807   6.299   7.121 -0.7835 -0.0912 -0.3675
 1979TIP3   OH227571   2.003   4.579   1.303 -0.3140 -0.2153  0.1753
 1979TIP3    H127572   2.007   4.484   1.293  0.9865 -0.1292 -0.2701
 1979TIP3    H227573   1.988   4.612   1.214 -2.3607 -0.0343  0.5192
 1980TIP3   OH227574   0.955   4.699   1.759 -0.1713  0.0421  0.1085
 1980TIP3    H127575   0.936   4.606   1.746 -0.7123  0.1974 -0.2592
 1980TIP3    H227576   0.870   4.741   1.752 -0.1727  0.4034  1.8755
 1981TIP3   OH227577   0.522   5.291   2.462  0.4936  0.1558  0.1805
 1981TIP3    H127578   0.446   5.241   2.494  1.0291  0.2882  1.7770
 1981TIP3    H227579   0.496   5.323   2.376 -1.2963  0.2683  0.7261
 1982TIP3   OH227580   6.011   5.722   6.988 -0.1747 -0.3983 -0.1535
 1982TIP3    H127581   6.047   5.796   6.939  0.5719 -0.2459  0.6039
 1982TIP3    H227582   5.955   5.762   7.054  0.8561 -0.4408  0.7748
 1983TIP3   OH227583   2.602   6.636   1.218  0.3355 -0.2961 -0.0788
 1983TIP3    H127584   2.542   6.565   1.196  0.4084  0.0086 -1.3907
 1983TIP3    H227585   2.623   6.623   1.310 -2.5489  0.2172  0.7222
 1984TIP3   OH227586   0.031   2.425   1.968 -0.2475 -0.4128  0.3111
 1984TIP3    H127587   0.023   2.431   1.873  0.3177  1.9044  0.3633
 1984TIP3    H227588  -0.043   2.369   1.995 -2.2862  1.3719 -1.2433
 1985TIP3   OH227589   3.704   2.110   0.163 -0.0334 -0.1665 -0.1652
 1985TIP3    H127590   3.713   2.061   0.081 -0.5618 -0.1364 -0.2408
 1985TIP3    H227591   3.791   2.106   0.202  0.0173 -0.8648 -0.3387
 1986TIP3   OH227592   2.764   5.938   0.961 -0.0375 -0.8958  0.5365
 1986TIP3    H127593   2.796   6.022   0.926 -0.1623 -1.8807 -2.2006
 1986TIP3    H227594   2.678   5.958   0.996 -1.1132 -0.2177 -2.2504
 1987TIP3   OH227595   0.453   1.308   0.715  0.3178  0.0681  0.6351
 1987TIP3    H127596   0.393   1.370   0.758 -0.4678 -0.7289  0.7355
 1987TIP3    H227597   0.453   1.232   0.773 -0.5537 -0.9346 -0.6262
 1988TIP3   OH227598   1.904   6.105   1.560  0.0272  0.1235  0.9664
 1988TIP3    H127599   1.983   6.053   1.572  0.4832  0.5646  0.0024
 1988TIP3    H227600   1.911   6.175   1.625  0.5942  0.3503  0.6658
 1989TIP3   OH227601   4.133   5.279   7.661 -0.1220 -0.0113 -0.0742
 1989TIP3    H127602   4.189   5.225   7.716  0.2852  0.5423  0.0661
 1989TIP3    H227603   4.097   5.344   7.721  0.2005  0.4998 -0.4246
 1990TIP3   OH227604   3.215   5.205   0.489 -0.0310  0.0109 -0.2606
 1990TIP3    H127605   3.171   5.186   0.572  1.9181 -1.8672  0.4564
 1990TIP3    H227606   3.170   5.150   0.425 -0.2808 -0.0330 -0.0498
 1991TIP3   OH227607   4.756   1.645   1.232  0.1440  0.7313 -0.1849
 1991TIP3    H127608   4.819   1.706   1.272  0.0692  0.1714  0.7978
 1991TIP3    H227609   4.674   1.694   1.230 -0.0005  0.5656  0.9279
 1992TIP3   OH227610   1.044   0.110   7.539 -0.0721  0.5789 -0.3064
 1992TIP3    H127611   0.964   0.137   7.585 -0.8883  0.5418 -1.6408
 1992TIP3    H227612   1.103   0.184   7.548  0.1374  0.2406  1.5170
 1993TIP3   OH227613   0.439   1.060   7.903 -0.0874 -0.2093  0.5223
 1993TIP3    H127614   0.524   1.086   7.940 -0.2803  0.9440  0.2159
 1993TIP3    H227615   0.451   1.070   7.808 -0.8483  0.9609  0.5211
 1994TIP3   OH227616   0.478   4.066   8.575 -0.0747  0.3134 -0.0217
 1994TIP3    H127617   0.390   4.080   8.540 -0.2010 -1.1447 -0.3374
 1994TIP3    H227618   0.487   3.971   8.580  1.1533  0.4553  0.8615
 1995TIP3   OH227619   4.047   3.835   0.129 -0.2834  0.6249 -0.3071
 1995TIP3    H127620   4.133   3.861   0.097  1.0721 -2.5656  0.4106
 1995TIP3    H227621   3.988   3.849   0.055  1.3302  0.4907 -1.6542
 1996TIP3   OH227622   4.854   2.414   6.847 -0.2414  0.4956  0.0142
 1996TIP3    H127623   4.831   2.407   6.940  0.5891  0.7936  0.2494
 1996TIP3    H227624   4.866   2.507   6.831 -2.9576  0.7471 -1.0627
 1997TIP3   OH227625   3.202   1.945   0.366  0.0556  0.0688  0.0344
 1997TIP3    H127626   3.114   1.913   0.345 -0.0397  0.3949 -0.0738
 1997TIP3    H227627   3.212   2.023   0.312  0.2441  0.2783  0.3701
 1998TIP3   OH227628   3.681   3.753   1.534 -0.2012 -0.4492  0.0871
 1998TIP3    H127629   3.754   3.813   1.552 -0.0691 -1.1078  1.9335
 1998TIP3    H227630   3.657   3.718   1.620 -0.2995 -3.0384 -0.9080
 1999TIP3   OH227631   1.794   2.926   0.356 -0.0330  0.3344 -0.2580
 1999TIP3    H127632   1.853   2.876   0.412  0.3820  1.2795  0.1708
 1999TIP3    H227633   1.843   3.006   0.335 -0.0986 -0.0741 -2.1350
 2000TIP3   OH227634   0.834   6.647   7.485 -0.1709 -0.2129  0.2160
 2000TIP3    H127635   0.850   6.657   7.391 -1.1972  1.3428  0.1657
 2000TIP3    H227636   0.761   6.586   7.491  0.0374 -0.4855  0.0307
 2001TIP3   OH227637   3.038   2.340   6.776  0.3655  0.2444  0.0903
 2001TIP3    H127638   3.123   2.367   6.811  0.7638  0.2162 -0.8035
 2001TIP3    H227639   3.057   2.317   6.684 -0.5248 -0.1864  0.0050
 2002TIP3   OH227640   0.033   1.207   7.734 -0.4896 -0.0153 -0.2748
 2002TIP3    H127641   0.021   1.146   7.661 -2.1054 -0.9637  0.7136
 2002TIP3    H227642  -0.052   1.208   7.778  0.5833  0.0754  1.9343
 2003TIP3   OH227643   0.765   6.556   1.694 -0.1870  0.4527 -0.1672
 2003TIP3    H127644   0.858   6.546   1.716 -0.2006  0.9365  0.1493
 2003TIP3    H227645   0.724   6.476   1.725 -0.0847  0.8163  0.9621
 2004TIP3   OH227646   0.582   3.091   1.653  0.4869 -0.2582  0.0481
 2004TIP3    H127647   0.542   3.011   1.688 -0.7366 -0.1059 -0.9248
 2004TIP3    H227648   0.659   3.060   1.605  0.1881 -0.8307 -0.0708
 2005TIP3   OH227649   2.957   4.719   0.970  0.4035  0.6384 -0.2679
 2005TIP3    H127650   3.021   4.709   1.041 -0.4236 -1.6369  0.2444
 2005TIP3    H227651   2.872   4.720   1.015 -0.0156  2.1606 -1.0428
 2006TIP3   OH227652   4.718   0.451   7.403  0.1319 -0.0760  0.0173
 2006TIP3    H127653   4.697   0.376   7.346 -0.3955 -0.6883  0.9935
 2006TIP3    H227654   4.789   0.419   7.459 -0.7812 -0.2199  1.1361
 2007TIP3   OH227655   5.165   1.840   8.479 -0.1731  0.3231  0.5491
 2007TIP3    H127656   5.216   1.837   8.560  3.0631 -0.5134 -1.3555
 2007TIP3    H227657   5.175   1.930   8.447 -0.8491  0.4574  0.6961
 2008TIP3   OH227658   3.940   0.469   0.879 -0.1536 -0.0397 -0.0067
 2008TIP3    H127659   3.868   0.533   0.876 -0.6016 -0.5457 -0.1573
 2008TIP3    H227660   3.914   0.408   0.948  0.0055 -0.3772 -0.2448
 2009TIP3   OH227661   3.561   3.705   0.208 -0.3172 -0.0357  0.4855
 2009TIP3    H127662   3.626   3.643   0.176  1.8467  1.6309  1.4398
 2009TIP3    H227663   3.563   3.696   0.303 -1.1079  0.4215  0.5536
 2010TIP3   OH227664   2.947   3.631   8.049  0.0247  0.2963  0.6921
 2010TIP3    H127665   3.007   3.558   8.061 -0.4885 -0.0742  1.0526
 2010TIP3    H227666   2.955   3.654   7.957 -1.6983 -1.9148 -0.0936
 2011TIP3   OH227667   2.122   3.119   8.454  0.2123 -0.3205 -0.1240
 2011TIP3    H127668   2.159   3.172   8.525  2.1807 -0.5432 -0.9112
 2011TIP3    H227669   2.085   3.183   8.394  0.3509  0.0024  0.1304
 2012TIP3   OH227670   6.146   2.429   7.978 -0.1303 -0.0359  0.4263
 2012TIP3    H127671   6.125   2.497   8.042 -1.1178  0.2935 -0.2308
 2012TIP3    H227672   6.080   2.438   7.910 -0.5190 -1.8817  0.4898
 2013TIP3   OH227673   6.216   1.992   0.927 -0.1242 -0.0848 -0.0112
 2013TIP3    H127674   6.126   1.970   0.948 -0.9352  0.9090 -2.1209
 2013TIP3    H227675   6.229   2.078   0.967 -1.6933  1.8485 -3.2167
 2014TIP3   OH227676   3.904   0.854   8.209 -0.1344  0.3673  0.0167
 2014TIP3    H127677   3.895   0.819   8.120 -0.0074 -2.8785  1.1748
 2014TIP3    H227678   3.816   0.848   8.245  0.3835 -1.3908  1.0920
 2015TIP3   OH227679   0.419   3.884   1.326 -0.1397  0.1442  0.5894
 2015TIP3    H127680   0.397   3.959   1.382 -0.8696 -0.0847  0.6141
 2015TIP3    H227681   0.493   3.915   1.274 -0.5057  0.9337  0.5146
 2016TIP3   OH227682   4.475   2.130   7.325  0.0048  0.3591  0.3170
 2016TIP3    H127683   4.470   2.051   7.378  0.9333 -1.3579 -2.0315
 2016TIP3    H227684   4.519   2.194   7.382 -1.9507 -0.2703  2.7448
 2017TIP3   OH227685   5.815   2.188   0.055 -0.3727  0.3267 -0.1506
 2017TIP3    H127686   5.815   2.181   0.150  2.3064 -0.1738 -0.0897
 2017TIP3    H227687   5.769   2.270   0.037 -1.7690 -0.0437  1.4773
 2018TIP3   OH227688   2.997   0.042   0.500  0.1560  0.4165 -0.0496
 2018TIP3    H127689   2.955   0.044   0.586  0.2557  1.3299 -0.0165
 2018TIP3    H227690   2.972  -0.043   0.463 -2.5599  1.2810 -0.4417
 2019TIP3   OH227691   0.680   0.423   1.830 -0.0690  0.3229  0.6222
 2019TIP3    H127692   0.660   0.494   1.892 -2.0871  0.4299 -0.0604
 2019TIP3    H227693   0.701   0.468   1.749 -1.1870  0.1736  0.2334
 2020TIP3   OH227694   1.268   0.708   2.883 -0.0726  0.3589 -0.4368
 2020TIP3    H127695   1.329   0.769   2.923  0.7650 -0.4674 -0.4112
 2020TIP3    H227696   1.214   0.675   2.956  1.2628 -0.9320  0.0161
 2021TIP3   OH227697   0.062   4.887   0.013 -0.1156 -0.5617  0.6044
 2021TIP3    H127698   0.046   4.980   0.029 -2.4651 -0.5558 -1.1803
 2021TIP3    H227699  -0.004   4.863  -0.052  1.5389 -3.0910 -0.2633
 2022TIP3   OH227700   0.463   1.600   0.291  0.2740 -0.2351 -0.0043
 2022TIP3    H127701   0.486   1.528   0.233  0.9559  0.0273 -0.0623
 2022TIP3    H227702   0.478   1.679   0.239  2.6615  0.1055  1.0626
 2023TIP3   OH227703   0.530   4.978   8.664 -0.7230 -0.2359 -0.6645
 2023TIP3    H127704   0.475   5.046   8.626 -0.0133  0.3872 -0.6136
 2023TIP3    H227705   0.620   5.011   8.652 -0.4531 -0.3077  1.0007
 2024TIP3   OH227706   4.441   6.004   0.294 -0.3648 -0.2249 -0.1402
 2024TIP3    H127707   4.412   6.038   0.378  0.7300 -0.2645  0.2675
 2024TIP3    H227708   4.404   5.916   0.290  1.7104 -1.2798  1.5319
 2025TIP3   OH227709   0.439   0.962   1.727 -0.6634 -0.0144  0.0119
 2025TIP3    H127710   0.498   1.016   1.675  0.1581  0.5063  1.4224
 2025TIP3    H227711   0.414   0.890   1.669  1.2765 -0.1907 -0.6761
 2026TIP3   OH227712   0.550   2.701   1.572 -0.1614  0.2128 -0.1956
 2026TIP3    H127713   0.524   2.746   1.491 -1.9192  0.0023  0.2084
 2026TIP3    H227714   0.522   2.761   1.642  0.7641  0.1039  0.2780
 2027TIP3   OH227715   4.914   4.209   1.336  0.5390 -0.2953 -0.3058
 2027TIP3    H127716   4.899   4.142   1.402 -1.1135 -0.8530 -1.1761
 2027TIP3    H227717   4.829   4.253   1.327  2.2525  4.3168  2.6488
 2028TIP3   OH227718   2.489   1.586   2.329  0.4312 -0.1436 -0.0192
 2028TIP3    H127719   2.496   1.680   2.342 -0.8491 -0.0358 -0.0062
 2028TIP3    H227720   2.397   1.571   2.305  0.4218 -1.4619  0.6924
 2029TIP3   OH227721   5.513   3.585   0.129 -0.4063  0.2187 -0.5659
 2029TIP3    H127722   5.534   3.645   0.057 -0.9885  0.3504 -0.6330
 2029TIP3    H227723   5.443   3.629   0.177  0.2891  0.3427  0.3623
 2030TIP3   OH227724   2.425   0.298   0.268 -0.0714  0.1151 -0.4952
 2030TIP3    H127725   2.437   0.332   0.357  1.6109  0.7679 -0.9346
 2030TIP3    H227726   2.482   0.221   0.264 -0.6979 -0.3429 -0.7962
 2031TIP3   OH227727   1.946   3.438   7.275  0.1597  0.1215 -0.7424
 2031TIP3    H127728   1.903   3.509   7.228  1.4463  2.5247  1.4420
 2031TIP3    H227729   2.033   3.432   7.234  0.5165  0.7316 -0.0852
 2032TIP3   OH227730   4.913   4.577   6.828  0.7357 -0.1473 -1.0162
 2032TIP3    H127731   4.932   4.545   6.916  0.3035 -0.7165 -1.1239
 2032TIP3    H227732   4.918   4.672   6.835 -0.1050 -0.1511 -0.1798
 2033TIP3   OH227733   1.654   3.580   8.301 -0.2275 -0.4051  0.1201
 2033TIP3    H127734   1.669   3.671   8.327  1.4143 -0.5407 -0.2325
 2033TIP3    H227735   1.741   3.546   8.281 -0.9740 -1.5373 -1.4575
 2034TIP3   OH227736   6.833   6.127   2.470  0.1659 -0.3574  0.1657
 2034TIP3    H127737   6.856   6.059   2.532 -1.2559 -1.0388  0.0002
 2034TIP3    H227738   6.741   6.110   2.449  0.9695 -1.1427 -3.3268
 2035TIP3   OH227739   6.042   6.314   8.408 -0.1025  0.2206  0.5966
 2035TIP3    H127740   6.101   6.330   8.482 -0.5819 -2.5664  1.7048
 2035TIP3    H227741   6.038   6.219   8.401 -1.3093  0.3815 -2.0676
 2036TIP3   OH227742   1.502   5.907   0.497  0.3552 -0.3578 -0.2251
 2036TIP3    H127743   1.532   5.997   0.500 -0.2593 -0.1630  0.5658
 2036TIP3    H227744   1.581   5.854   0.508  0.8861  0.0340 -1.9403
 2037TIP3   OH227745   1.314   1.677   8.008 -0.0654  0.7786  0.1778
 2037TIP3    H127746   1.357   1.592   8.000 -1.8659 -0.0003 -2.4898
 2037TIP3    H227747   1.280   1.677   8.098  1.0359 -0.7402  0.6484
 2038TIP3   OH227748   1.359   3.016   0.767  0.2299  0.0159 -0.4141
 2038TIP3    H127749   1.397   3.012   0.680 -2.0589  0.8777 -1.5370
 2038TIP3    H227750   1.434   3.024   0.826  1.7687  1.4171 -2.4440
 2039TIP3   OH227751   6.531   4.160   2.342 -0.1046  0.0554 -0.0350
 2039TIP3    H127752   6.545   4.231   2.405 -1.1655 -1.5793  2.1472
 2039TIP3    H227753   6.444   4.126   2.363  0.1824 -1.5838 -1.3555
 2040TIP3   OH227754   1.292   4.216   2.245  0.1417 -0.6738  0.1358
 2040TIP3    H127755   1.286   4.204   2.340 -0.8272 -1.3840 -0.0044
 2040TIP3    H227756   1.377   4.259   2.232 -0.5095  1.1576  1.4671
 2041TIP3   OH227757   5.785   5.635   8.371 -0.0040 -0.3237 -0.5844
 2041TIP3    H127758   5.783   5.731   8.370  1.1212 -0.2827 -1.5463
 2041TIP3    H227759   5.710   5.610   8.423  1.3994  1.1314  2.3772
 2042TIP3   OH227760   1.538   2.316   7.465  0.2371 -0.2138  0.3320
 2042TIP3    H127761   1.557   2.391   7.521  2.2349 -1.7833  1.9218
 2042TIP3    H227762   1.619   2.300   7.418 -0.2953 -1.1008 -0.3094
 2043TIP3   OH227763   6.176   5.394   2.735 -0.0239  0.5016  0.0900
 2043TIP3    H127764   6.183   5.307   2.696  0.5684  0.9940 -0.9396
 2043TIP3    H227765   6.129   5.446   2.670  1.0216  1.3535 -0.0068
 2044TIP3   OH227766   1.121   2.430   0.205 -0.5775  0.2570  0.2772
 2044TIP3    H127767   1.026   2.441   0.206 -0.4955  1.0321  0.7597
 2044TIP3    H227768   1.155   2.518   0.184  0.0256 -0.0525 -0.0752
 2045TIP3   OH227769   3.037   2.451   7.701  0.1845 -0.1620  0.5299
 2045TIP3    H127770   3.023   2.475   7.793  0.4097  0.5810  0.3805
 2045TIP3    H227771   2.950   2.435   7.667 -0.0159  0.8044  0.5546
 2046TIP3   OH227772   5.816   2.761   1.841  0.7084  0.4476  0.5642
 2046TIP3    H127773   5.736   2.813   1.843  0.8315  0.6322  0.9198
 2046TIP3    H227774   5.882   2.819   1.805  0.1272 -0.5394 -2.2988
 2047TIP3   OH227775   4.706   4.806   8.616 -0.7770 -0.6446 -0.1378
 2047TIP3    H127776   4.691   4.901   8.622 -0.7921 -0.6387 -0.2738
 2047TIP3    H227777   4.732   4.792   8.525 -0.5258 -0.7360 -0.0537
 2048TIP3   OH227778   0.653   0.621   8.249  0.1306 -0.0313 -0.2964
 2048TIP3    H127779   0.609   0.642   8.331  0.1594  2.1853 -0.7685
 2048TIP3    H227780   0.722   0.560   8.273  0.4146  0.9005  1.4306
 2049TIP3   OH227781   2.823   0.223   8.312  0.0314 -0.2691 -0.1723
 2049TIP3    H127782   2.816   0.266   8.398  2.0777 -0.0071 -0.0668
 2049TIP3    H227783   2.915   0.197   8.307 -0.4497 -1.8403 -1.5795
 2050TIP3   OH227784   0.318   4.881   7.448 -0.2160  0.4053  0.7489
 2050TIP3    H127785   0.306   4.864   7.541  2.4263 -0.0277  1.1009
 2050TIP3    H227786   0.375   4.958   7.445  0.7519 -0.3094 -0.4206
 2051TIP3   OH227787   2.206   3.644   1.992 -0.7035  0.4376  0.0690
 2051TIP3    H127788   2.225   3.603   1.908  0.9499 -0.8809  1.0237
 2051TIP3    H227789   2.112   3.631   2.004 -1.2420  1.8119 -2.1179
 2052TIP3   OH227790   1.673   3.031   8.442  0.2775 -0.1796  0.5105
 2052TIP3    H127791   1.661   2.992   8.528  0.4962 -0.0091  0.6195
 2052TIP3    H227792   1.725   2.967   8.393 -1.5512 -1.2193 -0.1744
 2053TIP3   OH227793   0.177   2.962   7.332 -0.2786  0.6662 -0.6029
 2053TIP3    H127794   0.258   2.928   7.370 -0.9669  0.7208  1.0218
 2053TIP3    H227795   0.204   3.038   7.281  0.9411 -0.6524 -2.0156
 2054TIP3   OH227796   0.768   2.027   0.470 -0.6340  0.0253 -0.0922
 2054TIP3    H127797   0.710   2.005   0.397 -0.3621 -0.3910 -0.1864
 2054TIP3    H227798   0.714   2.081   0.527 -1.4438 -1.1466  0.3100
 2055TIP3   OH227799   6.308   6.694   6.692  0.1649  0.0489  0.3620
 2055TIP3    H127800   6.346   6.737   6.616  0.7738 -1.3561 -0.1489
 2055TIP3    H227801   6.376   6.699   6.760 -0.3192  1.1612  0.7935
 2056TIP3   OH227802   6.820   5.726   0.096  0.2153  0.5936 -0.8866
 2056TIP3    H127803   6.733   5.765   0.108 -0.2859 -0.1988 -1.7897
 2056TIP3    H227804   6.802   5.639   0.060  1.4103  0.9178 -2.3767
 2057TIP3   OH227805   0.882   0.396   0.524 -0.3922 -0.2262  0.8387
 2057TIP3    H127806   0.830   0.320   0.551 -0.6110 -0.4188 -0.0665
 2057TIP3    H227807   0.917   0.432   0.605 -0.2802 -1.2991  1.2797
 2058TIP3   OH227808   6.725   5.729   7.297 -0.6640 -0.1254 -0.5422
 2058TIP3    H127809   6.690   5.704   7.212  1.9116  1.4339 -2.2082
 2058TIP3    H227810   6.794   5.665   7.314 -1.2176 -0.4840  0.4654
 2059TIP3   OH227811   1.663   4.498   8.165 -0.2333  0.1883  0.0806
 2059TIP3    H127812   1.571   4.523   8.159 -0.0443  0.8981  0.1054
 2059TIP3    H227813   1.662   4.414   8.211 -0.9947 -0.7175 -1.5241
 2060TIP3   OH227814   0.752   6.600   7.191  0.1166  0.3995  0.3536
 2060TIP3    H127815   0.847   6.593   7.204  0.0092 -0.2949  0.7924
 2060TIP3    H227816   0.741   6.684   7.147  1.4158 -1.6010 -4.4575
 2061TIP3   OH227817   2.963   0.068   1.403 -0.3668  0.1170  0.1456
 2061TIP3    H127818   2.987   0.027   1.486 -2.0779 -0.2705  0.4911
 2061TIP3    H227819   2.937  -0.006   1.348  0.0128  0.4423 -0.4783
 2062TIP3   OH227820   2.301   6.264   2.496  0.4747  0.0886  0.5234
 2062TIP3    H127821   2.379   6.319   2.484  0.8131 -1.0170 -3.7904
 2062TIP3    H227822   2.336   6.180   2.525  0.3037  0.8456  3.2175
 2063TIP3   OH227823   1.801   1.191   1.549  0.1498 -0.5598  0.4487
 2063TIP3    H127824   1.715   1.163   1.516 -0.7650  1.6152  0.8468
 2063TIP3    H227825   1.856   1.113   1.540 -1.4538 -1.5857 -1.2081
 2064TIP3   OH227826   2.708   5.435   8.571 -0.2719 -0.4740 -0.0443
 2064TIP3    H127827   2.690   5.353   8.526  0.7086 -0.6800 -0.0810
 2064TIP3    H227828   2.802   5.432   8.590 -0.6267 -0.3868  1.9751
 2065TIP3   OH227829   2.628   0.683   2.864  0.0345 -0.4830 -0.4091
 2065TIP3    H127830   2.565   0.670   2.793  0.9173 -1.6904 -1.0168
 2065TIP3    H227831   2.575   0.703   2.940 -0.9976 -0.1600 -1.1958
 2066TIP3   OH227832   0.069   0.786   0.828  0.0046 -0.3692 -0.6754
 2066TIP3    H127833   0.089   0.738   0.748  1.2528  1.9389 -1.8579
 2066TIP3    H227834   0.154   0.799   0.870  0.1665  2.8224 -1.7046
 2067TIP3   OH227835   2.535   3.764   0.066  0.0700  0.2260  0.1223
 2067TIP3    H127836   2.444   3.784   0.043  0.4521  1.1829 -0.6676
 2067TIP3    H227837   2.531   3.677   0.107 -1.2726  0.5459  0.7228
 2068TIP3   OH227838   4.328   0.572   0.077 -0.7833 -0.1518  0.4048
 2068TIP3    H127839   4.420   0.562   0.054 -0.3998 -1.1681  2.2575
 2068TIP3    H227840   4.286   0.597  -0.006  1.0249 -0.3263 -0.6199
 2069TIP3   OH227841   5.940   2.269   2.426 -0.1646 -0.2693 -0.1426
 2069TIP3    H127842   6.022   2.269   2.476 -0.1806  0.0937 -0.1163
 2069TIP3    H227843   5.905   2.357   2.437 -0.2194 -0.2163 -0.7131
 2070TIP3   OH227844   4.902   0.894   7.797 -0.4777 -0.0968 -0.3453
 2070TIP3    H127845   4.890   0.985   7.770 -1.3196  0.1889  0.9116
 2070TIP3    H227846   4.822   0.850   7.771 -0.0981 -0.4777 -0.8968
 2071TIP3   OH227847   2.306   2.383   0.938  0.5366 -0.3865  0.2157
 2071TIP3    H127848   2.276   2.294   0.957  0.8870 -0.3832  0.8210
 2071TIP3    H227849   2.244   2.439   0.983  0.5181 -0.3315  0.1222
 2072TIP3   OH227850   1.613   2.005   0.326 -0.0065 -0.3398 -0.0777
 2072TIP3    H127851   1.571   2.028   0.409  0.6108  0.3173  0.0602
 2072TIP3    H227852   1.540   1.994   0.265 -0.4097  0.4531  0.2404
 2073TIP3   OH227853   2.499   3.055   7.427  0.3600  0.1475  0.0438
 2073TIP3    H127854   2.569   3.115   7.451  0.6832 -0.2020 -0.0203
 2073TIP3    H227855   2.437   3.109   7.378 -0.4208  0.9207  1.8109
 2074TIP3   OH227856   5.507   1.120   0.200  0.4035 -0.1994 -0.5283
 2074TIP3    H127857   5.597   1.090   0.212  1.2858  2.3023 -0.4865
 2074TIP3    H227858   5.460   1.085   0.276  1.2004 -1.8201 -0.7237
 2075TIP3   OH227859   4.851   0.047   8.366  0.2042 -0.1701  0.1913
 2075TIP3    H127860   4.884   0.092   8.444 -0.9943 -2.5568  2.2013
 2075TIP3    H227861   4.920  -0.016   8.344 -0.6034 -1.3985  1.0644
 2076TIP3   OH227862   1.351   3.430   0.218 -0.2982  0.1003 -0.1327
 2076TIP3    H127863   1.313   3.496   0.160  0.4355  1.4734  0.9107
 2076TIP3    H227864   1.278   3.369   0.234 -1.0100  0.6736 -1.0401
 2077TIP3   OH227865   2.075   0.278   1.002  0.2229 -0.0396 -0.5935
 2077TIP3    H127866   2.031   0.356   0.967 -0.2564  0.4242  0.9540
 2077TIP3    H227867   2.156   0.311   1.040  0.1866 -0.3470 -0.2436
 2078TIP3   OH227868   4.396   4.917   1.653  0.3252  0.0639  0.4265
 2078TIP3    H127869   4.364   5.006   1.645  1.9355  0.5513 -1.1556
 2078TIP3    H227870   4.379   4.877   1.568  1.9307 -0.2935  0.2361
 2079TIP3   OH227871   3.996   3.127   2.451  0.4611  0.2714  0.0329
 2079TIP3    H127872   4.047   3.048   2.438  1.1128  0.7586 -0.4161
 2079TIP3    H227873   4.035   3.168   2.528  1.4939  1.2033 -0.9489
 2080TIP3   OH227874   0.401   3.344   2.042  0.2465  0.0851 -0.2657
 2080TIP3    H127875   0.468   3.314   2.102  0.4978 -0.3081 -0.7343
 2080TIP3    H227876   0.430   3.314   1.956 -0.0216  0.7746 -0.6111
 2081TIP3   OH227877   0.875   2.795   8.611  0.1718  0.5006  0.0973
 2081TIP3    H127878   0.832   2.725   8.563  1.4116  0.4904 -1.0644
 2081TIP3    H227879   0.841   2.876   8.572 -0.1478  0.5234  0.4211
 2082TIP3   OH227880   5.315   3.472   1.854 -0.4880  0.4038 -0.1789
 2082TIP3    H127881   5.253   3.403   1.875  0.7065 -0.9152 -0.8486
 2082TIP3    H227882   5.298   3.494   1.763  0.8512 -0.9080 -0.7850
 2083TIP3   OH227883   6.598   3.802   0.810 -0.7673  0.1922  1.1683
 2083TIP3    H127884   6.611   3.828   0.719  0.6932  0.3013  1.3779
 2083TIP3    H227885   6.597   3.706   0.808 -0.0670  0.1808  1.1039
 2084TIP3   OH227886   2.451   5.556   6.714  0.5649 -0.2503  0.4819
 2084TIP3    H127887   2.410   5.470   6.722 -0.0527  0.1109  1.5217
 2084TIP3    H227888   2.519   5.545   6.648  0.2667 -1.4427  0.3512
 2085TIP3   OH227889   1.026   4.190   2.260  0.3421 -0.3350  0.1516
 2085TIP3    H127890   1.102   4.194   2.319 -1.0777  0.1241  2.0593
 2085TIP3    H227891   1.011   4.281   2.234 -0.0060 -0.3171  0.4088
 2086TIP3   OH227892   2.523   0.301   1.487 -0.0988  0.1786  0.0190
 2086TIP3    H127893   2.560   0.369   1.431  0.4276  0.6061  0.8510
 2086TIP3    H227894   2.526   0.339   1.575 -1.3011 -0.3099  0.2871
 2087TIP3   OH227895   4.385   0.467   0.768 -0.2819  0.1070 -0.0824
 2087TIP3    H127896   4.313   0.522   0.798  1.3676  2.1671  0.3055
 2087TIP3    H227897   4.408   0.414   0.844  1.8591  3.1071  1.5885
 2088TIP3   OH227898   1.223   5.326   0.861 -0.3650  0.8166  0.1198
 2088TIP3    H127899   1.162   5.267   0.817 -0.0253 -0.4200  1.2444
 2088TIP3    H227900   1.302   5.323   0.806 -0.7336  1.1458 -0.4463
 2089TIP3   OH227901   1.718   6.614   2.708 -0.3906  0.0156 -0.4620
 2089TIP3    H127902   1.719   6.685   2.773 -3.1108  0.9212 -1.2773
 2089TIP3    H227903   1.807   6.613   2.673 -0.0433  2.5672  0.0986
 2090TIP3   OH227904   3.394   0.353   1.228  0.0326  0.6791 -0.2367
 2090TIP3    H127905   3.331   0.312   1.287  0.1498  0.5999 -0.1671
 2090TIP3    H227906   3.363   0.332   1.141  1.3975 -1.6074 -0.2470
 2091TIP3   OH227907   5.330   0.524   0.031 -0.4577  0.4467 -0.2814
 2091TIP3    H127908   5.418   0.492   0.046 -0.8628 -0.3757  0.4351
 2091TIP3    H227909   5.283   0.450  -0.009 -1.9995 -0.7747  3.3644
 2092TIP3   OH227910   3.354   1.012   7.538 -0.4780 -0.5686  0.4378
 2092TIP3    H127911   3.333   1.063   7.460  1.1136  0.0095  0.3600
 2092TIP3    H227912   3.283   1.033   7.599 -2.2328 -1.7049 -1.0921
 2093TIP3   OH227913   1.942   0.898   2.006 -1.1383 -0.1834 -0.4410
 2093TIP3    H127914   1.939   0.988   1.975  0.5557 -0.7160 -2.3388
 2093TIP3    H227915   1.979   0.904   2.094 -1.6251  1.0006 -0.2989
 2094TIP3   OH227916   4.161   6.846   6.890 -0.2656  0.1382 -1.0451
 2094TIP3    H127917   4.105   6.771   6.866  1.1506 -0.4474 -2.7601
 2094TIP3    H227918   4.245   6.827   6.849  1.1958  1.0839  1.3220
 2095TIP3   OH227919   0.426   6.558   6.872  0.6169 -0.4205  0.1204
 2095TIP3    H127920   0.432   6.653   6.864  1.4634 -0.4003  0.8231
 2095TIP3    H227921   0.496   6.525   6.815  0.5529 -0.6138  0.1527
 2096TIP3   OH227922   5.194   6.708   0.978  0.0609 -0.2834 -0.4507
 2096TIP3    H127923   5.214   6.650   0.904  0.9531  0.7737 -1.0887
 2096TIP3    H227924   5.206   6.796   0.942 -2.2993  0.3536  0.1828
 2097TIP3   OH227925   6.544   5.244   7.010  0.0089 -0.3550  0.4414
 2097TIP3    H127926   6.488   5.321   7.000  0.1033 -0.2600  0.6566
 2097TIP3    H227927   6.628   5.269   6.972 -0.2121 -0.6368 -0.2654
 2098TIP3   OH227928   3.132   3.307   1.000 -0.2472 -0.2853  0.1212
 2098TIP3    H127929   3.161   3.390   0.962  0.4748  0.0707  1.3921
 2098TIP3    H227930   3.107   3.330   1.089 -3.0854 -0.8666 -0.4312
 2099TIP3   OH227931   3.703   5.311   1.809  0.0653 -0.2467 -0.0960
 2099TIP3    H127932   3.748   5.274   1.885 -0.2768 -0.4024  0.0310
 2099TIP3    H227933   3.622   5.347   1.844 -0.2277 -0.5735 -0.4240
 2100TIP3   OH227934   5.563   6.567   8.494 -0.6345 -0.4848 -1.1125
 2100TIP3    H127935   5.618   6.644   8.479 -1.8412  1.0767  1.6672
 2100TIP3    H227936   5.618   6.508   8.546 -0.5232 -0.3826 -1.1136
 2101TIP3   OH227937   2.819   0.443   0.124  0.1600  0.1578 -0.3169
 2101TIP3    H127938   2.907   0.421   0.095 -0.6655 -1.5999 -1.6749
 2101TIP3    H227939   2.832   0.498   0.201  2.4285 -0.6102 -0.0876
 2102TIP3   OH227940   6.270   3.656   1.093  0.5709 -0.0972  0.0167
 2102TIP3    H127941   6.193   3.611   1.059  0.1008  0.5811  0.1618
 2102TIP3    H227942   6.297   3.605   1.169 -2.7273  2.2616  3.1044
 2103TIP3   OH227943   5.469   4.095   8.475  1.2156 -0.0544  0.2019
 2103TIP3    H127944   5.499   4.085   8.565  0.9264  2.1568  0.5954
 2103TIP3    H227945   5.378   4.066   8.476  1.1328  0.2178  0.6915
 2104TIP3   OH227946   3.299   3.963   7.311  0.6453 -0.2578 -0.2908
 2104TIP3    H127947   3.312   3.920   7.226  1.6151  2.5922 -1.7141
 2104TIP3    H227948   3.245   4.039   7.291 -2.8324 -1.6942  2.4584
 2105TIP3   OH227949   1.904   6.204   7.384 -0.4189  0.0042 -0.0401
 2105TIP3    H127950   1.838   6.255   7.339  0.3528  1.6820  0.6502
 2105TIP3    H227951   1.987   6.246   7.361  0.1819 -0.4713  1.1643
 2106TIP3   OH227952   5.934   4.142   1.531 -0.1114  0.2516 -0.1082
 2106TIP3    H127953   5.888   4.058   1.524 -0.8119  0.7531 -2.7396
 2106TIP3    H227954   5.981   4.137   1.614 -1.9846 -1.7848  0.9323
 2107TIP3   OH227955   6.478   3.300   8.340  0.8561  0.7652 -0.2608
 2107TIP3    H127956   6.519   3.359   8.276  1.2965  1.1083  0.3266
 2107TIP3    H227957   6.386   3.298   8.315  1.0100  0.9582 -0.8596
 2108TIP3   OH227958   5.822   5.639   0.029 -0.0540 -0.5995  0.3948
 2108TIP3    H127959   5.732   5.645  -0.000 -0.4469 -1.8473  1.2919
 2108TIP3    H227960   5.816   5.629   0.124  1.0068 -1.1082  0.4259
 2109TIP3   OH227961   6.833   2.158   0.535  0.1486  0.4612 -0.0692
 2109TIP3    H127962   6.807   2.203   0.455 -1.2731  0.6696  0.4944
 2109TIP3    H227963   6.759   2.169   0.594  1.7538  1.6280  1.8460
 2110TIP3   OH227964   1.601   4.293   0.530 -0.4971  0.0890 -0.3778
 2110TIP3    H127965   1.602   4.354   0.603 -0.9365 -0.4014  0.0500
 2110TIP3    H227966   1.563   4.343   0.457 -1.9355  0.0045  0.2770
 2111TIP3   OH227967   5.879   3.217   8.403  0.2123  0.7809 -0.3956
 2111TIP3    H127968   5.800   3.266   8.427  0.0274  0.2902  0.0285
 2111TIP3    H227969   5.858   3.126   8.426  0.8094  0.6096 -0.5156
 2112TIP3   OH227970   4.639   0.052   1.867 -0.3859  0.7597 -0.0269
 2112TIP3    H127971   4.624  -0.031   1.912  0.3716  0.2119 -0.7546
 2112TIP3    H227972   4.720   0.086   1.905  1.0719 -0.4066 -1.8833
 2113TIP3   OH227973   5.972   6.725   0.983 -0.5970  0.5980  0.1549
 2113TIP3    H127974   5.926   6.804   1.012  0.7711  0.1234  4.2547
 2113TIP3    H227975   5.925   6.653   1.026 -0.1100 -0.5588 -1.1884
 2114TIP3   OH227976   6.890   4.335   0.403  0.2223 -0.4252 -0.1124
 2114TIP3    H127977   6.914   4.317   0.494  1.7706  0.6025 -0.2722
 2114TIP3    H227978   6.830   4.410   0.408  2.1581  1.1966 -0.0129
 2115TIP3   OH227979   2.523   5.303   7.544 -0.3738  0.1599 -0.3978
 2115TIP3    H127980   2.497   5.321   7.454  1.9872 -1.4281 -1.4823
 2115TIP3    H227981   2.453   5.247   7.578 -1.4139  0.9703 -1.1097
 2116TIP3   OH227982   2.798   2.153   1.483 -0.2610 -0.0552 -0.6064
 2116TIP3    H127983   2.874   2.094   1.483  0.2295  0.5362  0.6662
 2116TIP3    H227984   2.737   2.114   1.545  0.0679  0.7335  0.2446
 2117TIP3   OH227985   3.158   0.771   0.423 -0.0131 -0.1492  0.4594
 2117TIP3    H127986   3.105   0.691   0.414 -1.7120  1.0269 -0.4895
 2117TIP3    H227987   3.181   0.773   0.516 -1.1032 -1.0460  0.7795
 2118TIP3   OH227988   4.445   2.927   2.464  0.4245 -0.1719 -0.4146
 2118TIP3    H127989   4.471   2.835   2.453 -0.4157 -0.5209  0.3973
 2118TIP3    H227990   4.518   2.977   2.428  0.2853 -1.1571 -2.2298
 2119TIP3   OH227991   2.485   2.548   8.471  0.1510  0.1050 -0.0378
 2119TIP3    H127992   2.497   2.545   8.376  2.2183 -0.7106  0.1987
 2119TIP3    H227993   2.459   2.638   8.488  1.3433  0.7294 -1.2584
 2120TIP3   OH227994   1.144   6.573   0.080  1.0182 -0.2381  0.1443
 2120TIP3    H127995   1.079   6.610   0.020  0.9882 -0.2832  0.1491
 2120TIP3    H227996   1.227   6.580   0.034  1.0066 -0.1997  0.1296
 2121TIP3   OH227997   4.580   6.044   1.754  0.5885  0.1909 -0.1979
 2121TIP3    H127998   4.664   6.004   1.731  0.0281 -0.3651 -1.3592
 2121TIP3    H227999   4.518   5.972   1.750 -0.0035  0.6634  0.3434
 2122TIP3   OH228000   1.276   4.982   1.313 -0.2072  0.3643  0.4493
 2122TIP3    H128001   1.236   5.005   1.397 -1.9315 -2.8553  0.6619
 2122TIP3    H228002   1.246   5.050   1.253 -1.2332  1.2108  1.8466
 2123TIP3   OH228003   0.971   2.468   0.924 -0.2910  0.1470 -0.3596
 2123TIP3    H128004   0.972   2.425   0.839  0.4924  1.0190 -0.8076
 2123TIP3    H228005   0.996   2.400   0.986 -0.9959 -0.5267 -0.8021
 2124TIP3   OH228006   0.481   0.293   8.548  0.1984  0.4703 -0.6625
 2124TIP3    H128007   0.521   0.209   8.524  1.2340  1.0633 -1.0794
 2124TIP3    H228008   0.554   0.355   8.548 -0.0368  0.8666  2.3189
 2125TIP3   OH228009   5.915   4.455   0.246  0.2867 -0.1667  0.4119
 2125TIP3    H128010   5.875   4.508   0.177  1.3596  0.1594  0.0192
 2125TIP3    H228011   5.980   4.513   0.286  1.1463 -1.0248  0.2937
 2126TIP3   OH228012   2.063   2.020   7.855 -0.1386 -0.2982  0.9454
 2126TIP3    H128013   2.096   2.070   7.780  0.3377 -2.0689 -0.0816
 2126TIP3    H228014   2.076   2.077   7.930  1.9013  0.4841  0.0464
 2127TIP3   OH228015   4.757   4.925   0.839  0.7346  0.2746 -0.1845
 2127TIP3    H128016   4.720   5.002   0.795  1.0824  0.5327 -0.0236
 2127TIP3    H228017   4.852   4.936   0.831  0.7863 -0.1140 -0.1172
 2128TIP3   OH228018   6.877   1.663   2.432 -0.8200 -0.5101  0.1078
 2128TIP3    H128019   6.795   1.652   2.384 -0.9198 -1.5254  0.4900
 2128TIP3    H228020   6.861   1.735   2.493 -0.6041  1.0120 -1.5279
 2129TIP3   OH228021   2.736   3.594   0.558 -0.1209  0.3724 -0.4668
 2129TIP3    H128022   2.687   3.675   0.545 -0.2762  0.2583 -0.5947
 2129TIP3    H228023   2.815   3.604   0.504 -0.1796  0.4030 -0.5465
 2130TIP3   OH228024   5.590   6.266   2.775 -0.0383 -0.5875  0.0718
 2130TIP3    H128025   5.639   6.347   2.789 -0.3131 -0.6166  1.2983
 2130TIP3    H228026   5.640   6.200   2.822 -0.8447 -0.7593  0.6915
 2131TIP3   OH228027   0.606   3.249   1.879  0.2087  0.1272  0.0810
 2131TIP3    H128028   0.590   3.194   1.802  2.3660 -1.3805  0.6278
 2131TIP3    H228029   0.627   3.335   1.843  1.1607 -0.5478 -1.0496
 2132TIP3   OH228030   1.589   2.201   1.653 -0.3002  0.5228 -0.3590
 2132TIP3    H128031   1.570   2.190   1.747 -2.5221 -0.1024 -0.8245
 2132TIP3    H228032   1.554   2.288   1.633  0.8505  0.9693 -0.4736
 2133TIP3   OH228033   6.687   2.868   0.387 -0.5038  0.2731 -0.0398
 2133TIP3    H128034   6.711   2.884   0.295  1.0150  1.0519  0.4643
 2133TIP3    H228035   6.769   2.846   0.430 -1.2930 -0.7015  1.0402
 2134TIP3   OH228036   0.586   1.965   6.853 -0.5188 -0.6354 -0.0109
 2134TIP3    H128037   0.534   2.030   6.900  0.9570  1.0493 -0.5840
 2134TIP3    H228038   0.583   1.993   6.762  0.1778 -1.3527 -0.2660
 2135TIP3   OH228039   4.777   2.582   7.925 -0.2911  0.2407  0.4242
 2135TIP3    H128040   4.748   2.491   7.928 -1.4968  0.6137  1.1189
 2135TIP3    H228041   4.723   2.622   7.857 -0.1199  0.5421  0.4648
 2136TIP3   OH228042   1.327   0.758   1.715 -0.4116 -0.2768  0.6311
 2136TIP3    H128043   1.267   0.768   1.640  0.1668 -2.1605 -0.1531
 2136TIP3    H228044   1.270   0.730   1.787 -0.5987 -1.6276  0.0044
 2137TIP3   OH228045   1.278   0.475   2.732 -0.5092 -0.0322  0.1474
 2137TIP3    H128046   1.279   0.548   2.794 -2.8959  0.3870 -0.1950
 2137TIP3    H228047   1.185   0.457   2.718 -0.0077 -1.7084 -1.4768
 2138TIP3   OH228048   5.679   5.464   1.048  0.2713  0.3208 -0.0972
 2138TIP3    H128049   5.613   5.460   1.117 -0.6096  2.1393 -0.7681
 2138TIP3    H228050   5.639   5.519   0.980  1.4698 -0.6736 -1.6659
 2139TIP3   OH228051   4.562   0.994   2.415  0.5004 -0.2531 -0.5599
 2139TIP3    H128052   4.552   1.074   2.467  0.8682 -0.7602  0.2992
 2139TIP3    H228053   4.588   0.927   2.478 -1.2431 -1.4264 -0.9945
 2140TIP3   OH228054   0.470   0.245   0.297 -0.5219  0.5245  0.2685
 2140TIP3    H128055   0.382   0.234   0.261  0.0792  0.2212 -1.1373
 2140TIP3    H228056   0.487   0.339   0.291 -0.7355  0.5850  0.5499
 2141TIP3   OH228057   4.098   1.652   2.218 -0.4549  0.1124 -0.4647
 2141TIP3    H128058   4.193   1.647   2.233 -0.4271 -1.4910 -0.9401
 2141TIP3    H228059   4.059   1.625   2.302 -0.4499 -0.6015 -0.6844
 2142TIP3   OH228060   4.517   1.160   1.306  0.0350  1.0690  0.0047
 2142TIP3    H128061   4.549   1.084   1.354  1.4353  1.9927  0.5896
 2142TIP3    H228062   4.580   1.229   1.325 -0.5880  2.0819 -1.3988
 2143TIP3   OH228063   2.339   2.821   7.955  0.6511  0.3501  0.3008
 2143TIP3    H128064   2.365   2.847   8.043 -0.9323 -0.4516  1.0357
 2143TIP3    H228065   2.406   2.759   7.927  1.5734  1.1816  0.6258
 2144TIP3   OH228066   3.569   2.207   8.555 -0.4623  0.0821 -0.0744
 2144TIP3    H128067   3.526   2.146   8.615 -0.8633 -0.4305 -0.8626
 2144TIP3    H228068   3.507   2.216   8.482 -0.4091  1.4317  0.0202
 2145TIP3   OH228069   0.339   4.378   8.255  0.1400 -0.0277 -0.1000
 2145TIP3    H128070   0.413   4.329   8.291  1.0034  0.5487 -1.0304
 2145TIP3    H228071   0.288   4.403   8.331 -0.0310 -1.8886  0.4386
 2146TIP3   OH228072   0.547   4.388   7.861  0.2095  0.0006 -0.3607
 2146TIP3    H128073   0.528   4.473   7.821  0.8414  0.7946  0.9402
 2146TIP3    H228074   0.469   4.367   7.912  1.2031  1.4131  1.9070
 2147TIP3   OH228075   4.444   3.597   2.205 -0.2563  0.4658  0.7261
 2147TIP3    H128076   4.417   3.675   2.253 -0.9244  0.7116 -0.0252
 2147TIP3    H228077   4.485   3.631   2.125  0.3102  0.0599  0.8426
 2148TIP3   OH228078   0.887   6.888   6.971 -0.0516  0.1849 -0.4628
 2148TIP3    H128079   0.882   6.976   6.932 -1.6044 -0.5873 -2.1807
 2148TIP3    H228080   0.808   6.880   7.023 -0.1691 -0.3725 -0.7198
 2149TIP3   OH228081   6.518   1.781   0.790  0.1333  0.4022  0.2787
 2149TIP3    H128082   6.521   1.782   0.695 -1.8662  1.1559  0.1589
 2149TIP3    H228083   6.595   1.731   0.817  1.7952  1.7989 -1.6313
 2150TIP3   OH228084   2.484   6.485   0.459 -1.2762  0.2389 -0.1894
 2150TIP3    H128085   2.477   6.557   0.396 -2.0311 -0.0676 -0.4731
 2150TIP3    H228086   2.569   6.445   0.441 -1.1626  0.6253 -0.5067
 2151TIP3   OH228087   3.235   2.604   0.996 -0.2557 -0.4414 -0.4503
 2151TIP3    H128088   3.274   2.582   1.080  0.2397  0.1551 -0.5236
 2151TIP3    H228089   3.307   2.636   0.943 -0.7059 -0.0321 -0.8299
 2152TIP3   OH228090   0.014   5.949   2.653 -0.1561  0.3823  0.1226
 2152TIP3    H128091  -0.052   5.881   2.668  0.5986 -0.1215  1.2379
 2152TIP3    H228092   0.098   5.905   2.667  0.3279  1.7110  1.6913
 2153TIP3   OH228093   5.435   0.731   7.882  0.1565  0.2900  0.3476
 2153TIP3    H128094   5.411   0.727   7.975 -0.9484 -0.5005  0.0423
 2153TIP3    H228095   5.412   0.645   7.848  1.9192  0.0610 -0.3586
 2154TIP3   OH228096   2.498   3.916   2.592  0.1337 -0.2463  0.4111
 2154TIP3    H128097   2.586   3.919   2.555  0.1650 -0.0073  0.5026
 2154TIP3    H228098   2.506   3.955   2.679 -0.0794 -0.1238  0.3797
 2155TIP3   OH228099   2.350   2.285   2.207  0.1002 -0.5786  0.2835
 2155TIP3    H128100   2.256   2.275   2.194  0.1132  1.2886 -1.8800
 2155TIP3    H228101   2.359   2.367   2.257  0.5770 -0.0907 -0.5756
 2156TIP3   OH228102   3.749   6.633   0.949 -0.5625 -0.2366 -0.5585
 2156TIP3    H128103   3.756   6.548   0.991 -3.0614 -0.7674 -1.0229
 2156TIP3    H228104   3.753   6.697   1.020 -0.1985 -0.8408 -0.0367
 2157TIP3   OH228105   6.594   0.848   1.075 -0.2508  0.2008  0.0484
 2157TIP3    H128106   6.501   0.838   1.058 -0.2958 -0.4893  0.6547
 2157TIP3    H228107   6.637   0.796   1.006 -0.3455 -0.2538  0.3300
 2158TIP3   OH228108   1.434   2.022   6.872 -0.5468  0.3114 -0.3861
 2158TIP3    H128109   1.401   1.944   6.827 -1.6668  0.6703 -0.1952
 2158TIP3    H228110   1.473   2.075   6.803  1.1069 -0.8258 -0.3978
 2159TIP3   OH228111   1.233   3.384   1.798  0.1492  0.1555 -0.3535
 2159TIP3    H128112   1.320   3.418   1.821 -1.1023  3.3229  0.2572
 2159TIP3    H228113   1.237   3.372   1.703  1.3218 -0.0103 -0.3023
 2160TIP3   OH228114   0.274   2.624   0.079  0.2744  0.3565 -0.1784
 2160TIP3    H128115   0.298   2.574   0.001  0.8718  1.7787 -0.9456
 2160TIP3    H228116   0.224   2.698   0.045 -1.4257 -0.1990  1.0202
 2161TIP3   OH228117   2.852   5.640   2.224 -0.5843 -0.3618  0.2808
 2161TIP3    H128118   2.782   5.661   2.162 -0.3481 -0.9931 -0.2083
 2161TIP3    H228119   2.885   5.726   2.253 -0.8998 -0.0637 -0.2288
 2162TIP3   OH228120   6.489   3.719   2.956 -0.1581 -0.0314  0.1080
 2162TIP3    H128121   6.435   3.706   2.878 -0.7604  0.5421  0.4203
 2162TIP3    H228122   6.468   3.643   3.011  0.5740 -0.6501 -0.4492
 2163TIP3   OH228123   5.450   5.179   7.072  0.1541 -0.1689  0.0482
 2163TIP3    H128124   5.435   5.252   7.012 -0.0868  0.9535  1.4064
 2163TIP3    H228125   5.532   5.139   7.043  0.9402  1.4228 -0.0084
 2164TIP3   OH228126   5.681   0.785   1.200 -0.0405 -0.0303 -0.3753
 2164TIP3    H128127   5.646   0.845   1.266  0.8715  0.7810 -0.6045
 2164TIP3    H228128   5.646   0.700   1.224 -2.0131  0.7059 -0.4865
 2165TIP3   OH228129   5.791   6.133   1.118  0.3408  0.3877  0.2625
 2165TIP3    H128130   5.841   6.205   1.079  0.8976 -0.0091  0.2319
 2165TIP3    H228131   5.837   6.114   1.200  2.7645 -2.6512 -1.5846
 2166TIP3   OH228132   0.197   4.118   8.168  0.3335  0.6883 -0.4954
 2166TIP3    H128133   0.121   4.102   8.112 -2.2349 -0.1193  2.8760
 2166TIP3    H228134   0.222   4.208   8.149 -0.4495  0.4692 -2.8175
 2167TIP3   OH228135   6.811   1.995   1.924  0.0440  0.0514 -0.5631
 2167TIP3    H128136   6.777   2.084   1.926  1.1549  0.4823  0.9799
 2167TIP3    H228137   6.802   1.964   2.014  1.7257 -0.5549 -0.5671
 2168TIP3   OH228138   1.772   1.204   1.179  0.5332  0.4327 -0.5088
 2168TIP3    H128139   1.835   1.136   1.155  1.2844  0.9674 -0.1143
 2168TIP3    H228140   1.709   1.204   1.107  0.4421 -0.7543 -0.4519
 2169TIP3   OH228141   0.249   4.879   7.700  0.3117 -0.1977 -0.4895
 2169TIP3    H128142   0.188   4.827   7.753 -0.3539  1.9452  0.9559
 2169TIP3    H228143   0.335   4.863   7.740  0.1552 -0.3696 -0.2185
 2170TIP3   OH228144   4.039   0.399   8.338  0.6142 -0.0815 -0.1210
 2170TIP3    H128145   4.004   0.367   8.421  0.6726 -0.4513 -0.2343
 2170TIP3    H228146   4.088   0.324   8.303 -0.0123 -0.1725 -0.8313
 2171TIP3   OH228147   1.304   2.279   0.739 -0.8876  0.3637 -0.0684
 2171TIP3    H128148   1.390   2.308   0.708  0.2576 -1.0200  1.6000
 2171TIP3    H228149   1.324   2.221   0.813 -3.2603 -0.2320  0.1784
 2172TIP3   OH228150   4.447   4.429   8.592  0.0283 -0.4807 -0.4414
 2172TIP3    H128151   4.426   4.468   8.677 -1.0196 -1.4038 -0.2581
 2172TIP3    H228152   4.417   4.493   8.528  0.7717  0.1950 -0.1328
 2173TIP3   OH228153   4.722   3.387   1.958 -0.1506  0.0040  0.0516
 2173TIP3    H128154   4.769   3.349   2.032 -0.2660 -2.8109 -1.2078
 2173TIP3    H228155   4.630   3.384   1.983 -0.0605  1.1469  0.6206
 2174TIP3   OH228156   2.966   2.530   7.955 -0.5567 -0.0244  0.4054
 2174TIP3    H128157   3.031   2.518   8.025 -0.5919  1.1881  0.6713
 2174TIP3    H228158   2.881   2.520   7.999 -0.5734 -1.1527  0.1474
 2175TIP3   OH228159   6.701   2.088   7.103 -0.4802  0.2473  0.2852
 2175TIP3    H128160   6.735   2.004   7.073 -1.5722  0.2816 -1.1080
 2175TIP3    H228161   6.623   2.066   7.153 -2.0880  0.4955 -1.9758
 2176TIP3   OH228162   5.792   2.399   1.556  0.0843 -0.5900 -0.1992
 2176TIP3    H128163   5.705   2.365   1.576  0.3207 -0.9520  0.2217
 2176TIP3    H228164   5.782   2.494   1.559 -0.1727 -0.6339  0.3828
 2177TIP3   OH228165   5.350   2.203   0.939 -0.3763 -0.3005  0.4345
 2177TIP3    H128166   5.409   2.278   0.947  1.3287 -1.0761 -2.8508
 2177TIP3    H228167   5.394   2.132   0.986  0.0521 -0.2444  0.1176
 2178TIP3   OH228168   5.396   5.573   1.912  0.4825 -0.3269  0.3630
 2178TIP3    H128169   5.363   5.638   1.850 -1.4160 -2.1002 -0.6119
 2178TIP3    H228170   5.346   5.587   1.992  0.6620 -0.0704  0.4300
 2179TIP3   OH228171   6.106   2.955   0.699 -0.0594 -0.2526 -0.0200
 2179TIP3    H128172   6.011   2.964   0.696 -0.0920 -0.6095 -0.0243
 2179TIP3    H228173   6.124   2.914   0.783  0.1930  1.0410  0.5810
 2180TIP3   OH228174   0.735   1.754   2.317  0.0666 -0.0747  0.3470
 2180TIP3    H128175   0.649   1.740   2.277  1.3336 -1.3031 -2.2042
 2180TIP3    H228176   0.746   1.681   2.378 -0.7747  0.2297  0.8773
 2181TIP3   OH228177   4.211   2.030   0.158  0.2211 -0.1732 -0.1731
 2181TIP3    H128178   4.158   2.102   0.193  0.8312  0.4719 -0.5621
 2181TIP3    H228179   4.149   1.980   0.105  0.1675  1.0822 -1.3650
 2182TIP3   OH228180   4.755   2.775   0.516 -0.6925  0.5278  0.2800
 2182TIP3    H128181   4.669   2.742   0.540  0.1631 -2.0321  0.1297
 2182TIP3    H228182   4.816   2.725   0.569  0.7638  1.9248  0.0155
 2183TIP3   OH228183   0.946   3.706   1.699  0.0272  0.0072 -0.1748
 2183TIP3    H128184   0.946   3.772   1.768 -2.3105 -0.2202  0.1445
 2183TIP3    H228185   0.910   3.752   1.623  2.9317  0.3694 -1.4482
 2184TIP3   OH228186   5.290   5.101   8.642  0.4656 -0.4748  0.2264
 2184TIP3    H128187   5.226   5.052   8.694 -0.6471 -0.3511 -0.9947
 2184TIP3    H228188   5.292   5.057   8.558 -1.1717  1.9885 -1.2052
 2185TIP3   OH228189   0.450   2.888   1.760  0.0524  0.4470 -0.4597
 2185TIP3    H128190   0.434   2.857   1.849 -0.6158  0.2553 -0.6415
 2185TIP3    H228191   0.370   2.935   1.736  1.3564  3.1459  0.1348
 2186TIP3   OH228192   0.588   4.294   2.140 -0.2238  0.5224  0.0622
 2186TIP3    H128193   0.526   4.321   2.208 -0.2636 -1.2767  0.7909
 2186TIP3    H228194   0.626   4.213   2.173  0.2012 -0.0941 -1.8045
 2187TIP3   OH228195   1.341   0.280   7.515 -0.1114 -0.3746  0.2743
 2187TIP3    H128196   1.350   0.248   7.605  1.8769 -1.0436 -0.1135
 2187TIP3    H228197   1.403   0.353   7.510 -0.0522 -0.4836 -0.6286
 2188TIP3   OH228198   6.323   5.981   2.708  0.3602  0.2253  0.3438
 2188TIP3    H128199   6.286   5.933   2.782  0.3948 -1.1354 -0.4748
 2188TIP3    H228200   6.253   6.039   2.680 -0.9920 -1.7993 -0.7305
 2189TIP3   OH228201   6.648   5.429   7.770 -0.5294  0.1157 -0.1021
 2189TIP3    H128202   6.717   5.378   7.812 -0.8969 -1.9801 -1.8550
 2189TIP3    H228203   6.645   5.511   7.819  0.3581 -1.3739  2.6474
 2190TIP3   OH228204   0.941   0.059   1.167 -0.4398  0.4670 -0.1613
 2190TIP3    H128205   1.013   0.028   1.113 -1.4126 -2.0368 -0.1580
 2190TIP3    H228206   0.973   0.050   1.257 -0.5978 -0.3020 -0.1727
 2191TIP3   OH228207   6.352   6.012   8.156 -0.4580  0.2675  0.3944
 2191TIP3    H128208   6.283   5.953   8.125  0.4512 -0.2239 -0.7719
 2191TIP3    H228209   6.380   6.060   8.078  0.3449  0.6394  0.8958
 2192TIP3   OH228210   2.521   5.058   2.474 -0.2612 -0.0577  0.0305
 2192TIP3    H128211   2.474   5.113   2.537 -1.9760  0.1898 -1.3757
 2192TIP3    H228212   2.486   4.970   2.488 -1.9016  0.2555 -1.5527
 2193TIP3   OH228213   0.110   2.440   8.118 -0.6263 -0.3492  0.7590
 2193TIP3    H128214   0.108   2.442   8.214 -2.5728 -1.6300  0.7993
 2193TIP3    H228215   0.051   2.368   8.094  0.2718 -0.4343 -1.4008
 2194TIP3   OH228216   1.829   3.268   2.124  0.5669  0.0787  0.7717
 2194TIP3    H128217   1.781   3.203   2.073  1.1135  0.5912 -0.4249
 2194TIP3    H228218   1.760   3.324   2.161  0.1850  0.0503  0.1187
 2195TIP3   OH228219   1.083   1.828   1.988  0.5277  0.1129 -0.6363
 2195TIP3    H128220   1.069   1.839   1.894  0.6970 -1.5405 -0.8809
 2195TIP3    H228221   1.003   1.862   2.028  0.6271  1.2257 -1.3283
 2196TIP3   OH228222   2.724   5.426   7.704 -0.4546  0.6279  0.4038
 2196TIP3    H128223   2.669   5.484   7.757 -1.1169 -0.0221  0.4428
 2196TIP3    H228224   2.663   5.366   7.662  0.2040  0.0517  0.2406
 2197TIP3   OH228225   4.914   0.778   1.017 -0.1109  0.3379 -0.0871
 2197TIP3    H128226   5.005   0.807   1.009 -0.0584 -0.1906 -1.9396
 2197TIP3    H228227   4.868   0.822   0.945 -0.9445 -0.7062 -0.2248
 2198TIP3   OH228228   0.585   5.800   1.276 -0.1728  0.4615 -0.5674
 2198TIP3    H128229   0.556   5.853   1.350  1.5335  1.1417 -0.3460
 2198TIP3    H228230   0.567   5.854   1.199  0.3983  0.8512 -0.4360
 2199TIP3   OH228231   6.309   2.701   2.509 -0.2567 -0.1231 -0.0854
 2199TIP3    H128232   6.263   2.617   2.510  0.0385 -0.3353  2.7042
 2199TIP3    H228233   6.244   2.763   2.477 -0.9264 -1.1553 -0.8144
 2200TIP3   OH228234   1.272   4.295   0.813 -0.4308 -0.3660 -0.1822
 2200TIP3    H128235   1.270   4.200   0.801  0.8627 -0.1883 -2.2050
 2200TIP3    H228236   1.350   4.311   0.866  0.0627 -0.3600 -0.8985
 2201TIP3   OH228237   3.000   4.483   1.345 -0.2522  0.5554  0.3592
 2201TIP3    H128238   2.996   4.436   1.262 -2.6443  0.4446  0.4832
 2201TIP3    H228239   3.037   4.569   1.322  0.3096  0.0879 -0.5630
 2202TIP3   OH228240   5.401   1.730   0.279  0.4825  0.0420 -0.0687
 2202TIP3    H128241   5.340   1.658   0.294  0.7734 -0.2519 -0.2825
 2202TIP3    H228242   5.410   1.772   0.365 -1.1022  0.9654 -0.3128
 2203TIP3   OH228243   3.152   1.704   6.981  0.1646 -0.2019  0.3412
 2203TIP3    H128244   3.130   1.797   6.972 -1.0590 -0.5962 -0.8892
 2203TIP3    H228245   3.119   1.663   6.902  1.3239 -1.5967  0.5411
 2204TIP3   OH228246   2.672   3.926   7.688 -0.2658  0.1967 -0.0150
 2204TIP3    H128247   2.590   3.974   7.693 -1.1647 -1.3991  1.8186
 2204TIP3    H228248   2.734   3.980   7.738 -1.2123 -0.3750  1.8638
 2205TIP3   OH228249   6.170   5.796   1.579 -0.2948 -0.2385  0.5869
 2205TIP3    H128250   6.248   5.828   1.535 -0.0800  0.4248  1.4413
 2205TIP3    H228251   6.194   5.709   1.610 -0.2865 -0.5103 -0.1535
 2206TIP3   OH228252   6.483   3.468   0.161 -0.0538  0.2047 -0.1098
 2206TIP3    H128253   6.425   3.540   0.183  1.1853  0.9815  0.7458
 2206TIP3    H228254   6.530   3.497   0.083 -0.2940 -0.1221 -0.3793
 2207TIP3   OH228255   2.522   4.177   1.507 -0.4360 -0.6388 -0.1360
 2207TIP3    H128256   2.596   4.116   1.514  1.1373  1.1444 -0.4640
 2207TIP3    H228257   2.538   4.242   1.575  0.6930  2.1189 -2.7720
 2208TIP3   OH228258   4.578   3.291   7.489  0.3649  0.0826 -0.3053
 2208TIP3    H128259   4.569   3.364   7.551 -0.8627  0.1692 -0.5615
 2208TIP3    H228260   4.589   3.333   7.404  0.1994 -0.0209 -0.3795
 2209TIP3   OH228261   2.316   3.158   1.544 -0.5856 -0.3642 -0.4112
 2209TIP3    H128262   2.279   3.072   1.526  1.5480 -1.4614  0.1014
 2209TIP3    H228263   2.359   3.184   1.462  1.1932 -1.1336  0.2265
 2210TIP3   OH228264   0.703   1.000   8.474 -0.7368 -0.2324 -0.1924
 2210TIP3    H128265   0.730   1.084   8.510 -0.5754  0.3524 -1.6099
 2210TIP3    H228266   0.775   0.972   8.418 -1.4036 -0.5700 -0.9164
 2211TIP3   OH228267   2.217   6.545   1.078 -0.2844  0.5026 -0.2574
 2211TIP3    H128268   2.312   6.543   1.066 -0.0720 -0.5640  1.2645
 2211TIP3    H228269   2.206   6.546   1.173 -1.7954 -1.9525 -0.3297
 2212TIP3   OH228270   6.279   4.184   1.465  0.8374  0.6512  0.1800
 2212TIP3    H128271   6.339   4.234   1.410 -0.6456 -0.9702 -3.1855
 2212TIP3    H228272   6.192   4.207   1.432 -0.1620 -0.3112  1.9950
 2213TIP3   OH228273   5.788   5.632   7.869  0.1660  0.1056  0.1289
 2213TIP3    H128274   5.721   5.663   7.930 -0.4140 -1.2873  0.2227
 2213TIP3    H228275   5.739   5.606   7.791  0.3959 -2.2615  0.7125
 2214TIP3   OH228276   6.484   0.399   6.952  0.0887 -0.0108 -0.1509
 2214TIP3    H128277   6.399   0.385   6.909 -0.4924  1.2775  0.5301
 2214TIP3    H228278   6.531   0.317   6.939 -0.5907 -0.1441 -2.0555
 2215TIP3   OH228279   5.071   4.228   8.395 -0.2106  0.2325  0.1525
 2215TIP3    H128280   4.995   4.175   8.372 -0.1937  0.3984 -0.2804
 2215TIP3    H228281   5.080   4.216   8.490  0.3656 -1.3098 -0.0608
 2216TIP3   OH228282   4.304   0.631   1.192  0.1371  0.4886 -0.8137
 2216TIP3    H128283   4.370   0.562   1.201 -0.6894 -0.8139 -3.5796
 2216TIP3    H228284   4.354   0.708   1.165  0.9024  0.6403  0.8869
 2217TIP3   OH228285   3.717   0.266   1.815  0.0545 -0.5800 -0.3313
 2217TIP3    H128286   3.674   0.351   1.822  0.2376 -0.5247  0.1409
 2217TIP3    H228287   3.701   0.238   1.725  0.3028  0.1229 -0.5991
 2218TIP3   OH228288   5.497   1.193   8.602 -0.7092  0.4855 -0.2757
 2218TIP3    H128289   5.491   1.181   8.697  2.5794  3.0745  0.4106
 2218TIP3    H228290   5.508   1.287   8.590  1.7099 -0.0100 -2.9642
 2219TIP3   OH228291   1.518   4.339   0.291 -0.1975  0.2127  0.6803
 2219TIP3    H128292   1.490   4.282   0.219 -1.8970 -0.9948  2.1941
 2219TIP3    H228293   1.501   4.427   0.259 -2.5099 -0.3420  0.1640
 2220TIP3   OH228294   0.589   1.325   8.391  0.5910  0.0074 -0.1992
 2220TIP3    H128295   0.604   1.329   8.296  0.8476  0.4743 -0.1473
 2220TIP3    H228296   0.675   1.343   8.429  0.7438 -1.3454  0.1301
 2221TIP3   OH228297   5.868   0.877   0.746  0.4330  0.1087  0.7543
 2221TIP3    H128298   5.819   0.956   0.771 -0.1724 -0.0251  0.0233
 2221TIP3    H228299   5.931   0.907   0.681  1.2887  0.2626  1.6247
 2222TIP3   OH228300   2.117   6.202   0.763 -0.1625 -0.2655  0.2366
 2222TIP3    H128301   2.161   6.184   0.680  1.7002  0.2041  1.0728
 2222TIP3    H228302   2.166   6.275   0.801 -0.5455 -0.9088  2.0624
 2223TIP3   OH228303   6.198   4.162   8.079  1.1381  0.4482  0.0925
 2223TIP3    H128304   6.261   4.213   8.131 -1.0580  1.7291  1.7109
 2223TIP3    H228305   6.114   4.177   8.123 -0.3296 -1.1024 -1.9904
 2224TIP3   OH228306   6.582   3.245   1.165  0.1724 -0.4780 -0.1348
 2224TIP3    H128307   6.567   3.340   1.164  1.5901 -0.2359 -0.6581
 2224TIP3    H228308   6.540   3.213   1.085 -1.5203 -0.5301  0.7224
 2225TIP3   OH228309   3.394   1.940   0.966 -0.3015 -0.1002  0.1625
 2225TIP3    H128310   3.382   1.926   0.872  0.3708 -1.9901  0.3067
 2225TIP3    H228311   3.367   1.858   1.006  0.6944  0.1896  1.5008
 2226TIP3   OH228312   6.884   2.874   2.019 -0.5857  0.3611  0.1448
 2226TIP3    H128313   6.802   2.904   1.981  1.0474  2.7603 -1.7690
 2226TIP3    H228314   6.902   2.936   2.090 -0.3872 -0.1388  0.5443
 2227TIP3   OH228315   5.594   5.937   7.514 -0.3017  0.4066  0.3320
 2227TIP3    H128316   5.612   5.955   7.422  0.7673 -1.0900  0.2037
 2227TIP3    H228317   5.510   5.891   7.514 -1.0040  1.6412  0.2740
 2228TIP3   OH228318   6.518   4.784   8.442 -0.1081 -0.6983  0.5995
 2228TIP3    H128319   6.500   4.878   8.438  2.5410 -0.1361 -0.8260
 2228TIP3    H228320   6.453   4.745   8.383 -0.2734  0.4458 -0.0176
 2229TIP3   OH228321   2.757   2.372   1.691 -0.1863  0.1855  0.4587
 2229TIP3    H128322   2.792   2.335   1.610  0.9489  1.2529  0.4253
 2229TIP3    H228323   2.687   2.431   1.662 -0.5362 -0.2800  0.3485
 2230TIP3   OH228324   2.461   2.918   1.882 -0.3609  0.0239 -0.2102
 2230TIP3    H128325   2.430   2.849   1.823  0.6255  0.4524 -1.2491
 2230TIP3    H228326   2.387   2.979   1.888 -0.5109 -0.0802 -0.9187
 2231TIP3   OH228327   2.165   4.559   1.615 -0.3661  0.1818  0.7991
 2231TIP3    H128328   2.198   4.649   1.619 -0.7306  0.3409  0.2356
 2231TIP3    H228329   2.220   4.511   1.678  0.0336  0.7294  0.8756
 2232TIP3   OH228330   6.124   4.933   2.388 -0.4493  0.6068  0.5759
 2232TIP3    H128331   6.207   4.945   2.434 -1.1746  3.4209  1.3828
 2232TIP3    H228332   6.058   4.936   2.457 -1.2832 -1.3155 -0.0845
 2233TIP3   OH228333   4.884   1.812   1.891  0.0904 -0.2148 -0.6678
 2233TIP3    H128334   4.973   1.846   1.887 -0.1953  0.6106 -0.3450
 2233TIP3    H228335   4.860   1.797   1.800  1.0861 -1.9280 -0.6914
 2234TIP3   OH228336   2.073   3.711   0.669 -0.6700  0.0490  0.6610
 2234TIP3    H128337   1.995   3.755   0.634 -1.6566 -0.5145  2.0184
 2234TIP3    H228338   2.050   3.618   0.668  1.4598 -0.5678 -2.3412
 2235TIP3   OH228339   2.061   1.223   0.475 -0.5937 -0.5568  0.3118
 2235TIP3    H128340   2.070   1.313   0.506  0.1578 -0.5175  0.0194
 2235TIP3    H228341   1.978   1.221   0.428 -0.1843  0.2443 -0.4871
 2236TIP3   OH228342   6.749   4.198   6.856  1.0035 -0.6053  0.4199
 2236TIP3    H128343   6.826   4.154   6.892  1.0515 -0.5793  0.3483
 2236TIP3    H228344   6.682   4.129   6.852  1.5591 -1.1034 -1.2321
 2237TIP3   OH228345   4.716   0.868   2.616  0.2043  0.0120  0.3009
 2237TIP3    H128346   4.758   0.785   2.592 -0.2148 -0.3499  0.7980
 2237TIP3    H228347   4.777   0.935   2.585 -0.1409 -0.4237 -1.4811
 2238TIP3   OH228348   1.376   2.878   7.960  0.3004 -0.1999 -0.1223
 2238TIP3    H128349   1.324   2.881   7.880 -0.2753  0.3063  0.2554
 2238TIP3    H228350   1.313   2.850   8.028  0.4569  0.6445  0.3821
 2239TIP3   OH228351   2.824   2.870   7.464  0.2747  0.2874 -0.1035
 2239TIP3    H128352   2.835   2.947   7.409  0.8256  0.0295 -0.3622
 2239TIP3    H228353   2.817   2.905   7.553 -1.5855  0.7771 -0.4072
 2240TIP3   OH228354   6.689   4.201   2.061 -0.4742 -0.6774 -0.2730
 2240TIP3    H128355   6.624   4.235   1.999 -0.3259  0.2457  0.0737
 2240TIP3    H228356   6.636   4.160   2.130 -0.6511 -1.2067 -0.7145
 2241TIP3   OH228357   3.496   0.556   1.347  0.1174 -0.3196  0.5409
 2241TIP3    H128358   3.459   0.473   1.317 -2.1289  0.6132  0.5397
 2241TIP3    H228359   3.455   0.570   1.433  0.6835  0.6557  0.6597
 2242TIP3   OH228360   2.434   0.790   6.435 -0.3605 -0.0387 -0.2672
 2242TIP3    H128361   2.526   0.818   6.442 -0.4774  1.0317 -2.3883
 2242TIP3    H228362   2.383   0.870   6.447 -1.0312 -0.5714  0.5546
 2243TIP3   OH228363   3.591   0.520   1.891  0.1609 -0.0749  0.2767
 2243TIP3    H128364   3.680   0.550   1.871 -0.0054  0.8624  0.8963
 2243TIP3    H228365   3.591   0.506   1.986 -0.7809  1.4322  0.5287
 2244TIP3   OH228366   5.142   4.055   8.054 -0.4887 -0.4042  0.2055
 2244TIP3    H128367   5.141   4.146   8.084 -0.5937 -0.4569  0.3679
 2244TIP3    H228368   5.083   4.010   8.115 -1.5221 -0.3205 -0.7072
 2245TIP3   OH228369   3.954   0.210   2.333  0.9051  0.5305  0.2562
 2245TIP3    H128370   3.918   0.271   2.268 -0.9065 -0.4409  0.2859
 2245TIP3    H228371   3.881   0.193   2.393  1.3434 -1.6451  0.2566
 2246TIP3   OH228372   4.865   1.930   0.650  0.0374  0.3467 -0.3164
 2246TIP3    H128373   4.799   1.860   0.652  0.2198  0.1840  0.1000
 2246TIP3    H228374   4.847   1.981   0.729 -0.6818  1.3224 -1.0763
 2247TIP3   OH228375   0.302   4.506   8.501  0.1077 -1.1614 -0.1141
 2247TIP3    H128376   0.310   4.489   8.595 -1.9581 -1.6881  0.0114
 2247TIP3    H228377   0.270   4.596   8.495  0.6215 -0.9910 -0.3317
 2248TIP3   OH228378   3.146   4.598   1.978 -0.4923 -0.1512 -0.5765
 2248TIP3    H128379   3.094   4.668   1.938 -1.0266 -1.4532 -2.2962
 2248TIP3    H228380   3.104   4.518   1.948  0.9579 -1.2235  0.1637
 2249TIP3   OH228381   5.468   6.240   0.295  0.3928 -0.0128  1.0137
 2249TIP3    H128382   5.382   6.281   0.299  0.9068  1.0784  1.3204
 2249TIP3    H228383   5.478   6.196   0.379 -0.2807 -1.0632  0.5718
 2250TIP3   OH228384   6.517   5.803   7.474  0.2317  0.1371  0.6305
 2250TIP3    H128385   6.479   5.864   7.411 -1.2152 -0.2862  1.0522
 2250TIP3    H228386   6.589   5.762   7.427 -0.4161  0.2898 -0.5381
 2251TIP3   OH228387   4.470   6.099   2.337  0.5073 -0.5582  0.1047
 2251TIP3    H128388   4.482   6.005   2.348 -0.4349 -0.7700 -0.5872
 2251TIP3    H228389   4.393   6.119   2.389  0.0690 -0.3645 -0.6106
 2252TIP3   OH228390   6.445   5.491   8.385  0.1980 -0.0397 -0.6464
 2252TIP3    H128391   6.368   5.510   8.331 -2.0549 -1.0530  1.9984
 2252TIP3    H228392   6.478   5.407   8.350 -1.0663 -0.5615 -0.6404
 2253TIP3   OH228393   4.865   2.992   1.230  0.5619 -0.5476 -0.8688
 2253TIP3    H128394   4.846   2.898   1.237  2.1035 -0.7642  3.2372
 2253TIP3    H228395   4.953   2.996   1.193  0.4111 -0.7025 -1.2461
 2254TIP3   OH228396   2.401   2.095   2.038 -0.4534  0.3198 -0.2123
 2254TIP3    H128397   2.402   2.156   2.112  2.1967 -0.2535  0.3320
 2254TIP3    H228398   2.345   2.023   2.067 -1.5756  1.3070  0.1422
 2255TIP3   OH228399   3.606   5.505   7.329 -0.4667 -0.1868 -0.6109
 2255TIP3    H128400   3.557   5.558   7.392 -0.9144 -1.6843  0.3544
 2255TIP3    H228401   3.667   5.566   7.288 -2.6805  1.6162 -1.3970
 2256TIP3   OH228402   5.588   4.101   1.537 -0.0057 -0.0032 -0.4206
 2256TIP3    H128403   5.562   4.107   1.629  0.1771  0.1184 -0.3772
 2256TIP3    H228404   5.683   4.108   1.538 -0.0290  0.3577 -0.6516
 2257TIP3   OH228405   0.841   5.151   8.638 -0.5044 -0.3993  0.2746
 2257TIP3    H128406   0.805   5.156   8.726  0.2887  1.1123  0.5492
 2257TIP3    H228407   0.920   5.206   8.641 -0.8963  0.3448 -1.5649
 2258TIP3   OH228408   5.783   3.039   0.330 -0.4813 -0.1467  0.3327
 2258TIP3    H128409   5.794   2.944   0.322  0.6201 -0.0108  0.0352
 2258TIP3    H228410   5.800   3.072   0.242  1.5907  0.5083  0.9187
 2259TIP3   OH228411   2.759   4.916   2.435  0.3096 -0.1902 -0.0426
 2259TIP3    H128412   2.818   4.867   2.492 -0.0694  0.1527  0.6558
 2259TIP3    H228413   2.692   4.852   2.409 -0.7278  0.1427  1.6338
 2260TIP3   OH228414   1.284   1.990   1.166  0.2427 -0.0018 -0.0744
 2260TIP3    H128415   1.307   2.002   1.258  0.5213  2.2547 -0.3831
 2260TIP3    H228416   1.189   1.985   1.165  0.2575 -0.3835  0.3649
 2261TIP3   OH228417   4.611   4.720   0.741 -0.5594  0.3693 -0.1138
 2261TIP3    H128418   4.664   4.797   0.761 -0.6979  1.0178 -2.0594
 2261TIP3    H228419   4.520   4.752   0.742 -0.6284  0.1988 -0.7866
 2262TIP3   OH228420   0.697   3.512   0.949 -0.5783  0.6849 -0.1382
 2262TIP3    H128421   0.780   3.553   0.924 -0.2179  0.0189 -0.0531
 2262TIP3    H228422   0.669   3.561   1.027 -0.3808  1.0577 -0.2968
 2263TIP3   OH228423   3.675   3.078   1.131  0.9512 -0.1566  0.1108
 2263TIP3    H128424   3.623   3.021   1.076 -1.1703 -0.3403  2.1245
 2263TIP3    H228425   3.640   3.064   1.219 -0.2596  4.6486  0.6904
 2264TIP3   OH228426   3.966   1.398   0.657  0.2555  0.3081  0.1580
 2264TIP3    H128427   3.877   1.384   0.689  0.2524  0.0146  0.0150
 2264TIP3    H228428   3.967   1.361   0.569  0.4739  0.4592  0.0951
 2265TIP3   OH228429   4.183   1.395   8.418  0.4181 -0.7152  0.0038
 2265TIP3    H128430   4.219   1.312   8.386  0.4737 -0.4131 -0.7429
 2265TIP3    H228431   4.134   1.371   8.497 -0.8941 -1.7027 -1.0668
 2266TIP3   OH228432   5.194   2.496   2.515  0.2350 -0.0920  0.1344
 2266TIP3    H128433   5.236   2.482   2.600 -0.9999 -0.4523  0.7080
 2266TIP3    H228434   5.243   2.441   2.454  0.5967 -0.5021  0.7911
 2267TIP3   OH228435   0.175   0.814   1.931 -0.2379  0.4475 -0.6277
 2267TIP3    H128436   0.226   0.894   1.919 -0.6647  1.0083  1.0483
 2267TIP3    H228437   0.240   0.745   1.940  0.2394  1.0427  0.7319
 2268TIP3   OH228438   6.007   2.583   8.500  0.0130 -0.0631  0.1631
 2268TIP3    H128439   5.957   2.596   8.420  0.6520 -1.3305 -0.4814
 2268TIP3    H228440   6.024   2.488   8.503  0.7479  0.0764  1.3391
 2269TIP3   OH228441   0.459   1.973   7.488 -0.1622 -0.9187 -0.2598
 2269TIP3    H128442   0.385   1.933   7.533 -2.0771  0.6920 -1.7503
 2269TIP3    H228443   0.420   2.046   7.439  2.3225 -0.4560 -1.7142
 2270TIP3   OH228444   2.690   4.529   0.312  0.0749 -0.3607  0.1127
 2270TIP3    H128445   2.620   4.565   0.256  0.2230 -1.2535 -0.6761
 2270TIP3    H228446   2.764   4.517   0.253  0.1048 -1.7225  0.3794
 2271TIP3   OH228447   0.334   1.116   7.349  0.0010  0.0877 -0.0605
 2271TIP3    H128448   0.285   1.115   7.267 -1.0977  1.6668  0.5282
 2271TIP3    H228449   0.345   1.209   7.370  1.5259 -0.2573  0.8607
 2272TIP3   OH228450   4.397   2.742   8.122 -0.4547  0.4103  0.0406
 2272TIP3    H128451   4.419   2.742   8.028  1.7383 -1.8268  0.4347
 2272TIP3    H228452   4.470   2.787   8.164 -1.4225  1.3935  0.7246
 2273TIP3   OH228453   0.554   5.942   0.483 -0.6219 -0.2733 -1.0271
 2273TIP3    H128454   0.480   5.953   0.542 -0.9003 -0.1655 -1.3934
 2273TIP3    H228455   0.516   5.907   0.402 -0.0252 -2.0160 -0.5990
 2274TIP3   OH228456   4.258   4.989   2.347  0.5262  0.2203 -0.2804
 2274TIP3    H128457   4.294   4.926   2.409 -0.7278  0.0404  0.2938
 2274TIP3    H228458   4.244   5.068   2.399 -1.9442 -0.3872  0.1124
 2275TIP3   OH228459   1.556   0.076   0.761  0.4376 -0.1456 -0.1713
 2275TIP3    H128460   1.469   0.082   0.722  0.1050 -1.6751  0.2804
 2275TIP3    H228461   1.610   0.035   0.693  0.6005 -0.0412 -0.1075
 2276TIP3   OH228462   1.712   6.497   0.945  0.1575 -0.0334 -0.2046
 2276TIP3    H128463   1.690   6.588   0.928 -0.0646 -0.6270 -3.8913
 2276TIP3    H228464   1.796   6.500   0.992  0.1559  2.0303 -0.2742
 2277TIP3   OH228465   5.076   0.078   2.001  0.1391  0.5701 -1.1218
 2277TIP3    H128466   5.029   0.077   1.918  1.5932  0.8735 -1.9715
 2277TIP3    H228467   5.071   0.169   2.031 -2.6686 -0.0005  0.5293
 2278TIP3   OH228468   6.702   0.625   8.541 -0.3022 -0.2835 -0.6993
 2278TIP3    H128469   6.757   0.621   8.619  0.5522 -1.3499 -1.3263
 2278TIP3    H228470   6.717   0.541   8.497 -0.7879  0.2871 -1.9923
 2279TIP3   OH228471   0.833   2.222   2.268  0.0011 -0.2332 -0.1021
 2279TIP3    H128472   0.798   2.241   2.355 -0.7220 -0.2444 -0.3806
 2279TIP3    H228473   0.911   2.170   2.284 -0.3815 -0.6298  0.5349
 2280TIP3   OH228474   5.746   0.298   8.522  0.2367  0.1434  0.1179
 2280TIP3    H128475   5.802   0.337   8.589  0.6631  1.0689 -0.7493
 2280TIP3    H228476   5.801   0.294   8.444  0.1404 -2.0223  0.0889
 2281TIP3   OH228477   1.124   2.428   1.606  0.2588  0.4811  0.4963
 2281TIP3    H128478   1.045   2.478   1.584  0.7340  1.4645  0.9206
 2281TIP3    H228479   1.095   2.363   1.670 -0.4911 -0.2141 -0.5285
 2282TIP3   OH228480   2.953   0.798   6.740 -0.0732 -0.4146 -0.2417
 2282TIP3    H128481   2.991   0.711   6.730  2.4870  0.3622  1.6506
 2282TIP3    H228482   2.969   0.841   6.656 -1.2380 -1.6590 -1.1425
 2283TIP3   OH228483   0.415   6.371   0.513  0.2860  0.0011 -0.0165
 2283TIP3    H128484   0.425   6.402   0.602  0.6175 -1.6609  0.5600
 2283TIP3    H228485   0.495   6.399   0.468  1.0801 -0.9283  0.7747
 2284TIP3   OH228486   5.801   3.176   7.656 -0.2967 -0.0628  0.0951
 2284TIP3    H128487   5.852   3.153   7.734 -0.2757  0.6243  0.2895
 2284TIP3    H228488   5.748   3.098   7.638  2.2496 -1.5762 -1.2983
 2285TIP3   OH228489   5.734   1.022   1.751  0.4217  0.9198 -0.1328
 2285TIP3    H128490   5.731   0.973   1.669  1.9590 -0.5200  0.6057
 2285TIP3    H228491   5.756   1.111   1.725  0.6154  0.5398 -1.3165
 2286TIP3   OH228492   5.997   0.321   2.226 -0.5106 -0.4609 -0.7724
 2286TIP3    H128493   5.957   0.279   2.302  0.3109 -1.2810 -0.7792
 2286TIP3    H228494   5.958   0.408   2.224 -0.4222 -0.3505  0.7057
 2287TIP3   OH228495   0.219   3.946   1.102 -0.3546 -0.0594 -0.5797
 2287TIP3    H128496   0.203   4.038   1.124 -0.2513 -0.2841  0.4860
 2287TIP3    H228497   0.271   3.913   1.175  1.8068 -0.3282 -2.1399
 2288TIP3   OH228498   2.071   4.290   1.161 -0.5768  0.2225  0.0212
 2288TIP3    H128499   2.022   4.341   1.096  0.0640  0.8244 -0.0016
 2288TIP3    H228500   2.079   4.203   1.122 -0.7923  0.3879 -0.4016
 2289TIP3   OH228501   1.317   0.723   8.369  0.3128  0.4377 -0.0531
 2289TIP3    H128502   1.330   0.631   8.395 -1.0473  0.6427  1.5168
 2289TIP3    H228503   1.235   0.722   8.320  1.0870  0.5984 -1.3714
 2290TIP3   OH228504   3.404   5.833   2.172  0.9517  0.3362 -0.2199
 2290TIP3    H128505   3.368   5.915   2.204  1.6139  0.4186  0.3631
 2290TIP3    H228506   3.390   5.834   2.078  1.7118  1.5141 -0.3413
 2291TIP3   OH228507   4.142   4.578   2.685  0.2506  0.2732  0.3369
 2291TIP3    H128508   4.153   4.507   2.748  0.2198 -0.2066 -0.1838
 2291TIP3    H228509   4.047   4.592   2.681  0.1033 -0.8280 -0.7965
 2292TIP3   OH228510   6.788   4.251   7.355  0.3958  0.1526  0.1535
 2292TIP3    H128511   6.837   4.302   7.291 -0.9526  1.1137 -0.1433
 2292TIP3    H228512   6.787   4.162   7.319  0.6759  0.4308 -0.5535
 2293TIP3   OH228513   3.118   1.440   8.603  0.5065 -0.7660  0.7153
 2293TIP3    H128514   3.103   1.359   8.651 -0.3314 -0.5143  0.8934
 2293TIP3    H228515   3.102   1.417   8.512 -0.5732 -0.6158  0.8517
 2294TIP3   OH228516   5.558   5.083   7.546 -0.0690  0.1914 -0.1185
 2294TIP3    H128517   5.469   5.087   7.510 -0.5174  2.6260  1.0409
 2294TIP3    H228518   5.601   5.161   7.511  1.2604 -0.3609  0.2353
 2295TIP3   OH228519   3.516   4.121   1.194 -0.6155 -0.1155 -0.1707
 2295TIP3    H128520   3.506   4.128   1.289  0.5801  2.2583 -0.1337
 2295TIP3    H228521   3.550   4.033   1.179  0.3991 -0.0894  1.7416
 2296TIP3   OH228522   4.779   4.192   0.713  0.2191 -0.6701 -0.7417
 2296TIP3    H128523   4.780   4.282   0.680 -2.4041 -1.4809 -3.4441
 2296TIP3    H228524   4.716   4.194   0.785 -0.6027 -0.4839 -1.4457
 2297TIP3   OH228525   4.068   6.506   1.077  0.3273 -0.2065  0.1183
 2297TIP3    H128526   4.128   6.504   1.002  1.2109 -1.9401  0.8184
 2297TIP3    H228527   4.017   6.586   1.065  0.7105 -0.2449 -2.1114
 2298TIP3   OH228528   0.420   4.385   1.183  0.5516 -0.4822 -0.3610
 2298TIP3    H128529   0.380   4.417   1.102 -0.8942  0.4109  0.6481
 2298TIP3    H228530   0.514   4.386   1.165  0.2036 -3.3329 -3.0679
 2299TIP3   OH228531   4.100   6.628   7.216 -0.3168 -0.0753 -0.8397
 2299TIP3    H128532   4.133   6.542   7.242 -0.5467 -0.0427 -0.4349
 2299TIP3    H228533   4.039   6.610   7.144  0.4582 -0.1509 -1.4997
 2300TIP3   OH228534   2.462   4.331   7.402  0.2155  0.2988  0.3861
 2300TIP3    H128535   2.469   4.276   7.324  0.1457 -1.4945  1.5677
 2300TIP3    H228536   2.368   4.340   7.417  0.2294  0.4686  0.3700
 2301TIP3   OH228537   3.517   0.576   2.389 -0.6895 -0.1212  0.3048
 2301TIP3    H128538   3.506   0.486   2.361  1.5649 -0.7008  1.0311
 2301TIP3    H228539   3.540   0.624   2.309  0.4979 -0.7000  0.2818
 2302TIP3   OH228540   3.749   6.684   0.098  0.1210 -0.2795  0.2023
 2302TIP3    H128541   3.758   6.668   0.004  2.3130  1.2948  0.0796
 2302TIP3    H228542   3.777   6.602   0.140 -0.6793 -0.9209 -0.4782
 2303TIP3   OH228543   1.048   0.494   1.615  0.4214  0.3569  0.1274
 2303TIP3    H128544   1.023   0.428   1.551 -0.5581 -0.7694  1.6131
 2303TIP3    H228545   1.143   0.502   1.605  0.3299 -0.0094 -1.2217
 2304TIP3   OH228546   2.097   2.342   7.983 -0.7601  0.2644 -0.7124
 2304TIP3    H128547   2.015   2.293   7.989 -0.1215 -0.8836 -1.0619
 2304TIP3    H228548   2.127   2.349   8.074  0.4977 -2.4259 -0.8394
 2305TIP3   OH228549   2.042   2.834   2.072 -0.3953 -0.6554 -0.5305
 2305TIP3    H128550   2.112   2.868   2.128 -1.4675 -0.6600  0.8528
 2305TIP3    H228551   2.000   2.766   2.124 -2.4502  0.4203 -0.6687
 2306TIP3   OH228552   1.874   5.685   0.996 -0.1938 -0.4933  0.1834
 2306TIP3    H128553   1.948   5.627   0.984  1.0309  0.9530  0.4125
 2306TIP3    H228554   1.800   5.638   0.957  1.0035 -1.6050 -0.8449
 2307TIP3   OH228555   1.856   6.139   0.791 -0.5259  0.1137 -0.3078
 2307TIP3    H128556   1.949   6.156   0.783 -0.3985 -0.9021 -1.2555
 2307TIP3    H228557   1.850   6.062   0.847 -0.8381  0.5707  0.2994
 2308TIP3   OH228558   5.200   6.031   6.955  0.4388  0.1508 -0.4682
 2308TIP3    H128559   5.180   5.951   6.906  0.1643 -0.8997  1.2843
 2308TIP3    H228560   5.120   6.084   6.947  0.5897  0.2473 -1.5610
 2309TIP3   OH228561   6.175   3.597   8.563 -0.6950 -0.2505  0.4311
 2309TIP3    H128562   6.108   3.638   8.618 -0.8947 -1.1137  0.8526
 2309TIP3    H228563   6.143   3.508   8.547  0.5119 -0.8127  0.9628
 2310TIP3   OH228564   2.543   2.940   6.516 -0.2639  0.3305 -0.3345
 2310TIP3    H128565   2.525   2.864   6.571 -0.6516 -0.0165 -0.9283
 2310TIP3    H228566   2.637   2.953   6.522 -0.5715  1.9104  2.4996
 2311TIP3   OH228567   4.974   0.987   0.575  0.4126  0.4157  0.1831
 2311TIP3    H128568   5.015   1.002   0.490 -0.2986 -1.2088 -0.4770
 2311TIP3    H228569   4.880   0.989   0.558  0.2603 -1.6056  0.5767
 2312TIP3   OH228570   0.154   0.887   1.088 -0.2018  0.5631 -0.4218
 2312TIP3    H128571   0.222   0.955   1.095 -0.5086  0.8306 -0.0329
 2312TIP3    H228572   0.072   0.935   1.097 -0.4675  0.3123 -1.3802
 2313TIP3   OH228573   4.045   5.481   2.583 -0.1173 -0.1539 -0.1309
 2313TIP3    H128574   3.970   5.449   2.633 -1.9891  2.3457 -1.1001
 2313TIP3    H228575   4.117   5.484   2.646 -0.9825 -1.9321  1.0255
 2314TIP3   OH228576   4.199   0.874   7.396  0.8414  0.6552 -0.0580
 2314TIP3    H128577   4.232   0.893   7.309  1.8235 -0.9919 -0.0963
 2314TIP3    H228578   4.264   0.911   7.456  1.7158 -0.7005 -0.1085
 2315TIP3   OH228579   5.673   5.056   0.366  0.4851  0.0283  0.3890
 2315TIP3    H128580   5.765   5.034   0.381  0.7467  1.8972  1.8919
 2315TIP3    H228581   5.624   4.985   0.409  1.2415 -0.3350  0.6595
 2316TIP3   OH228582   2.420   5.664   0.822  0.4627 -0.7082 -0.4535
 2316TIP3    H128583   2.353   5.732   0.830  0.6701 -0.6361  0.9619
 2316TIP3    H228584   2.498   5.710   0.791  0.4554 -0.3846 -0.0000
 2317TIP3   OH228585   0.232   6.405   7.020 -0.0045 -0.4164  0.2465
 2317TIP3    H128586   0.237   6.448   7.105 -1.0443 -0.2775  0.2589
 2317TIP3    H228587   0.302   6.444   6.968  1.1134 -1.0244  1.2537
 2318TIP3   OH228588   2.426   5.997   7.929  0.3210  0.1569 -0.0338
 2318TIP3    H128589   2.504   5.943   7.944 -0.5137 -0.9397  0.4637
 2318TIP3    H228590   2.456   6.065   7.869  1.7324 -0.0845  0.3604
 2319TIP3   OH228591   6.441   4.305   1.976  0.2497  0.2240  0.2920
 2319TIP3    H128592   6.397   4.262   2.049  0.7813 -1.1125 -0.1319
 2319TIP3    H228593   6.376   4.306   1.906  0.0335  0.6775  0.4994
 2320TIP3   OH228594   4.433   4.019   0.785 -0.2743  0.1855  0.5414
 2320TIP3    H128595   4.508   4.041   0.730  0.4301 -0.3065  1.2750
 2320TIP3    H228596   4.356   4.036   0.730  0.3063  1.9877  0.2248
 2321TIP3   OH228597   4.478   0.268   1.059 -0.5534  0.5458  0.0382
 2321TIP3    H128598   4.495   0.340   1.120 -0.9556 -0.3518  1.2573
 2321TIP3    H228599   4.517   0.192   1.102 -0.3208 -0.0046 -1.1343
 2322TIP3   OH228600   3.493   0.250   8.126  0.3273  0.4134  0.3819
 2322TIP3    H128601   3.438   0.266   8.050  1.9698  2.3038 -0.5006
 2322TIP3    H228602   3.582   0.271   8.096  1.4884 -1.8630  1.9243
 2323TIP3   OH228603   2.180   5.461   6.801  0.4629 -0.0734 -0.1218
 2323TIP3    H128604   2.116   5.424   6.862  0.1040  0.8702  0.0983
 2323TIP3    H228605   2.265   5.436   6.837  0.3791 -4.3711 -2.2447
 2324TIP3   OH228606   4.719   4.203   0.265 -0.5435 -0.3495  0.0747
 2324TIP3    H128607   4.771   4.283   0.253 -0.2578 -0.5017  0.2879
 2324TIP3    H228608   4.766   4.137   0.215 -0.1355 -0.6537  0.8406
 2325TIP3   OH228609   4.769   5.404   1.641  0.3402 -0.0810  0.5192
 2325TIP3    H128610   4.836   5.444   1.696  1.8766  1.3828 -2.2050
 2325TIP3    H228611   4.705   5.473   1.626  0.9401  0.1823 -1.0099
 2326TIP3   OH228612   4.315   6.192   8.055 -0.4073  0.1803  0.2270
 2326TIP3    H128613   4.313   6.182   7.960 -1.5784  0.5756  0.1940
 2326TIP3    H228614   4.407   6.206   8.076 -0.1450  0.1613 -0.8549
 2327TIP3   OH228615   3.716   3.935   8.427  0.0501  0.2812 -0.0794
 2327TIP3    H128616   3.668   3.938   8.509  1.0161 -0.9730  0.5607
 2327TIP3    H228617   3.674   4.001   8.372  0.5819  2.5551  2.0632
 2328TIP3   OH228618   0.923   2.216   2.585 -0.7244  0.1217  0.0949
 2328TIP3    H128619   0.978   2.142   2.610  0.8440  1.2499  0.1678
 2328TIP3    H228620   0.924   2.273   2.662 -2.0249  0.1737  0.0939
 2329TIP3   OH228621   2.057   1.799   0.543 -0.0508  0.4174  0.2429
 2329TIP3    H128622   2.138   1.847   0.528  0.4202 -0.6427 -0.7408
 2329TIP3    H228623   2.045   1.800   0.638  1.4619  0.0290  0.4596
 2330TIP3   OH228624   4.672   0.644   1.064  0.3090 -0.0979 -0.4126
 2330TIP3    H128625   4.611   0.717   1.052  0.5347  0.5616  1.9571
 2330TIP3    H228626   4.758   0.683   1.054  0.4349  0.0350  0.9957
 2331TIP3   OH228627   3.885   2.480   0.810 -0.0176 -0.1588  0.3945
 2331TIP3    H128628   3.972   2.506   0.839  1.6628 -0.9030 -3.3238
 2331TIP3    H228629   3.852   2.556   0.763 -0.3804 -0.6317 -0.1271
 2332TIP3   OH228630   0.381   1.970   0.625  0.2834  0.2367  0.6001
 2332TIP3    H128631   0.308   2.014   0.668 -1.5604 -1.0457 -1.0602
 2332TIP3    H228632   0.392   1.889   0.674 -0.8511 -0.5431 -0.3775
 2333TIP3   OH228633   4.178   4.025   0.648  0.0827  0.6714 -0.1755
 2333TIP3    H128634   4.156   3.971   0.573  0.2486 -0.2724  0.4389
 2333TIP3    H228635   4.171   3.966   0.723  1.0457  1.2962  0.4310
 2334TIP3   OH228636   4.134   4.236   1.726 -0.1853 -0.0278  0.4015
 2334TIP3    H128637   4.200   4.305   1.731 -0.6496  0.3478  1.9415
 2334TIP3    H228638   4.183   4.159   1.698  1.0678  0.0985  2.0281
 2335TIP3   OH228639   1.545   3.764   0.940  0.0926  0.3224 -0.2346
 2335TIP3    H128640   1.524   3.678   0.904  1.0201 -0.5408  1.1645
 2335TIP3    H228641   1.495   3.769   1.022 -1.4095  1.9284 -1.1760
 2336TIP3   OH228642   0.239   0.557   7.815  0.1872 -0.2989  0.0708
 2336TIP3    H128643   0.149   0.529   7.800  0.3992 -0.2895 -1.3896
 2336TIP3    H228644   0.231   0.634   7.871 -0.6214 -1.0208  0.9936
 2337TIP3   OH228645   4.489   0.728   8.109 -0.1023  0.3413  0.5520
 2337TIP3    H128646   4.575   0.688   8.121  0.1440  0.6337 -0.1641
 2337TIP3    H228647   4.428   0.664   8.146  0.3436 -0.3675  0.0956
 2338TIP3   OH228648   6.107   3.149   1.239 -0.7127  0.1857 -1.0980
 2338TIP3    H128649   6.090   3.185   1.151 -0.2635  1.8592 -0.5263
 2338TIP3    H228650   6.202   3.155   1.249 -0.8584  1.0389 -0.0905
 2339TIP3   OH228651   5.485   1.748   7.456 -0.1239 -0.6947 -0.3785
 2339TIP3    H128652   5.573   1.709   7.460  0.3974  0.4238 -0.6542
 2339TIP3    H228653   5.486   1.803   7.378  0.0912  2.0163  1.3875
 2340TIP3   OH228654   6.454   2.701   1.003 -0.3229 -0.0991  0.0320
 2340TIP3    H128655   6.530   2.759   1.005 -0.3930 -0.0088  0.0942
 2340TIP3    H228656   6.413   2.712   1.089 -0.9814  0.6279 -0.3591
 2341TIP3   OH228657   3.112   4.964   2.536  0.1054 -0.4941 -0.6477
 2341TIP3    H128658   3.042   4.981   2.600 -0.4075 -0.1926 -1.2752
 2341TIP3    H228659   3.140   4.874   2.556  0.6538 -0.0609  0.6487
 2342TIP3   OH228660   5.996   0.544   0.784  0.1311  0.2835 -0.5809
 2342TIP3    H128661   5.967   0.453   0.772 -0.1581  0.2877  0.0111
 2342TIP3    H228662   5.941   0.576   0.855  0.3904  0.8545 -0.6384
 2343TIP3   OH228663   2.378   6.669   1.536 -0.5737  0.5457  0.0896
 2343TIP3    H128664   2.362   6.763   1.527 -1.8288  0.3589  0.3017
 2343TIP3    H228665   2.337   6.646   1.619  2.0567  0.2991  1.4582
 2344TIP3   OH228666   2.922   4.804   1.316  0.5558  0.7545  0.5004
 2344TIP3    H128667   2.965   4.786   1.400 -1.9066 -3.8163  1.0915
 2344TIP3    H228668   2.990   4.792   1.250  1.4805 -0.6198  1.6519
 2345TIP3   OH228669   0.206   0.765   8.316  0.3153  0.2757  0.2880
 2345TIP3    H128670   0.202   0.840   8.258 -1.1566  0.4302  0.5700
 2345TIP3    H228671   0.119   0.725   8.311  1.0419 -1.3754  0.1947
 2346TIP3   OH228672   2.317   6.209   0.135 -0.0206 -0.0609 -0.2467
 2346TIP3    H128673   2.253   6.138   0.129 -0.1450 -0.2884  2.4979
 2346TIP3    H228674   2.352   6.202   0.224 -0.5956  3.7630  0.4241
 2347TIP3   OH228675   5.987   3.568   6.774 -0.0965  0.1016 -0.2683
 2347TIP3    H128676   6.020   3.657   6.785  1.5538 -0.5433  0.3980
 2347TIP3    H228677   5.896   3.578   6.746 -0.6104  1.9895  1.8684
 2348TIP3   OH228678   0.345   1.052   0.404  0.4270 -0.3151  0.0786
 2348TIP3    H128679   0.393   1.077   0.325  0.6713  0.4692  0.4696
 2348TIP3    H228680   0.283   0.986   0.374  1.1329 -0.6873 -0.6007
 2349TIP3   OH228681   6.407   5.180   2.345  0.5333 -0.9581  0.0991
 2349TIP3    H128682   6.438   5.198   2.433  2.1337 -1.7940 -0.2564
 2349TIP3    H228683   6.475   5.216   2.287  0.2816 -1.7769 -0.7400
 2350TIP3   OH228684   2.960   5.326   1.502 -0.1445 -0.0317  0.0841
 2350TIP3    H128685   2.909   5.247   1.481  0.0159 -0.4117  1.0901
 2350TIP3    H228686   3.033   5.323   1.440  0.3670 -1.1858  0.6996
 2351TIP3   OH228687   4.071   6.296   0.146 -0.5674  0.6679  0.3732
 2351TIP3    H128688   4.137   6.359   0.117 -1.2721  1.1374 -0.2563
 2351TIP3    H228689   4.100   6.212   0.110  1.1865  0.2911  2.4758
 2352TIP3   OH228690   0.041   5.682   7.997  0.2864  0.0515  0.0238
 2352TIP3    H128691  -0.042   5.635   8.008  0.8292 -0.8534  0.2624
 2352TIP3    H228692   0.031   5.760   8.052 -0.1893 -0.3301  0.4934
 2353TIP3   OH228693   0.365   1.830   0.877  0.6829 -0.5275 -0.2203
 2353TIP3    H128694   0.387   1.891   0.948  1.5057 -1.5523  0.4359
 2353TIP3    H228695   0.295   1.776   0.914 -0.2851  0.2183 -0.9232
 2354TIP3   OH228696   4.065   5.083   1.814 -0.4799 -0.2772 -0.4590
 2354TIP3    H128697   4.085   5.061   1.905  1.9317 -0.6476 -1.0231
 2354TIP3    H228698   4.129   5.150   1.790  0.0056 -1.3228 -2.3425
 2355TIP3   OH228699   3.953   5.494   8.081  0.0378  0.1626  0.2140
 2355TIP3    H128700   3.946   5.457   7.993 -0.8177  0.2567  0.2404
 2355TIP3    H228701   3.878   5.553   8.088  0.1324  0.1943  0.9919
 2356TIP3   OH228702   1.280   1.157   0.516  0.5983 -0.5214  0.5103
 2356TIP3    H128703   1.295   1.089   0.581 -0.3945  0.2283  1.5526
 2356TIP3    H228704   1.299   1.115   0.432  0.2507 -1.9989  1.1513
 2357TIP3   OH228705   0.395   6.695   0.877  0.1079 -0.3405  0.0171
 2357TIP3    H128706   0.394   6.709   0.971  0.0617 -0.9851  0.1158
 2357TIP3    H228707   0.304   6.704   0.850  0.2477  0.8087 -0.1210
 2358TIP3   OH228708   6.866   1.581   0.112  0.5301  0.1775  0.2317
 2358TIP3    H128709   6.773   1.571   0.132 -0.2939 -0.7573 -3.2216
 2358TIP3    H228710   6.879   1.675   0.103 -0.1061  0.3078  0.6325
 2359TIP3   OH228711   0.640   4.795   0.673 -0.1542  0.0436 -0.4125
 2359TIP3    H128712   0.650   4.874   0.726 -0.0415  0.6325 -1.2965
 2359TIP3    H228713   0.546   4.782   0.665 -0.2491 -1.4807  1.9835
 2360TIP3   OH228714   1.080   1.604   1.001  0.3560 -0.4572 -0.1776
 2360TIP3    H128715   1.089   1.607   0.906  2.0767 -0.8500 -0.0536
 2360TIP3    H228716   0.986   1.592   1.016 -0.1852  1.2287 -1.7746
 2361TIP3   OH228717   0.281   0.132   8.632  0.4354 -0.2533 -0.0380
 2361TIP3    H128718   0.249   0.063   8.573 -0.1137  0.3909 -0.5088
 2361TIP3    H228719   0.352   0.174   8.584  1.2526 -0.9364  0.5409
 2362TIP3   OH228720   3.989   1.295   1.532  0.3667  0.0576  0.1536
 2362TIP3    H128721   3.919   1.320   1.593  0.1855  0.4714 -0.2152
 2362TIP3    H228722   3.993   1.200   1.538  0.3249  0.0910  0.7834
 2363TIP3   OH228723   0.670   2.103   7.720  0.6216  0.4895 -0.2537
 2363TIP3    H128724   0.695   2.195   7.711  0.1258  0.5082 -1.5604
 2363TIP3    H228725   0.578   2.106   7.746  0.6940  0.3561  0.0266
 2364TIP3   OH228726   2.794   3.088   0.841 -0.3841 -0.6312  0.1518
 2364TIP3    H128727   2.782   3.177   0.873 -1.0618 -0.9129  0.6877
 2364TIP3    H228728   2.760   3.090   0.752  1.8827  0.2617 -0.7756
 2365TIP3   OH228729   5.847   6.107   1.374 -0.0622  0.2219 -0.2788
 2365TIP3    H128730   5.817   6.178   1.431  0.5347  0.7804 -0.6497
 2365TIP3    H228731   5.779   6.040   1.382 -0.8504  1.0074 -0.2501
 2366TIP3   OH228732   5.565   5.820   1.977  0.2290  0.4002  0.2389
 2366TIP3    H128733   5.552   5.748   1.915 -0.5652  0.2770  0.5289
 2366TIP3    H228734   5.559   5.899   1.923  2.2160  0.2527 -0.2682
 2367TIP3   OH228735   5.399   0.462   7.777 -0.1538  0.3516 -0.1369
 2367TIP3    H128736   5.482   0.426   7.810 -0.4860 -0.1882  0.1211
 2367TIP3    H228737   5.335   0.393   7.794 -0.3823  0.1325 -1.7402
 2368TIP3   OH228738   6.283   0.743   1.857  0.4052  0.0259 -0.1331
 2368TIP3    H128739   6.242   0.657   1.861  0.5509  0.0048  1.6331
 2368TIP3    H228740   6.237   0.788   1.786  0.8417 -1.7317 -1.6191
 2369TIP3   OH228741   0.596   6.821   0.271  0.3927 -0.1420 -0.1856
 2369TIP3    H128742   0.569   6.762   0.200 -0.1871 -1.6253  1.2252
 2369TIP3    H228743   0.587   6.908   0.233 -0.4678 -0.8574 -1.7556
 2370TIP3   OH228744   1.680   4.707   0.182  0.2347  0.3006  0.2968
 2370TIP3    H128745   1.667   4.754   0.100 -0.4925 -0.4125 -0.0219
 2370TIP3    H228746   1.759   4.745   0.220  0.6349  0.5827 -0.7777
 2371TIP3   OH228747   4.384   0.158   1.374 -0.4023 -0.4127 -1.2003
 2371TIP3    H128748   4.469   0.187   1.407 -0.3024 -0.6342 -1.2636
 2371TIP3    H228749   4.340   0.239   1.346 -0.4942 -0.2161 -0.5113
 2372TIP3   OH228750   3.129   0.242   8.429  0.7717 -0.1393 -0.7667
 2372TIP3    H128751   3.205   0.292   8.458  0.8393 -0.1717 -0.8887
 2372TIP3    H228752   3.133   0.244   8.334 -0.0351  0.8576 -0.7877
 2373TIP3   OH228753   2.738   1.804   7.218  0.1137 -0.7204 -0.3444
 2373TIP3    H128754   2.737   1.837   7.128 -3.3932 -0.9938 -0.5616
 2373TIP3    H228755   2.700   1.875   7.270 -1.2574 -1.8591  0.2780
 2374TIP3   OH228756   4.294   3.654   7.283  0.5017 -0.0782 -0.0255
 2374TIP3    H128757   4.354   3.592   7.241  0.2009  0.0493 -0.6520
 2374TIP3    H228758   4.310   3.737   7.239 -0.2280 -0.0741 -0.2887
 2375TIP3   OH228759   6.037   5.089   0.854 -0.1337 -0.2617 -0.0975
 2375TIP3    H128760   6.034   5.114   0.762  2.4070 -0.4080 -0.2899
 2375TIP3    H228761   5.947   5.065   0.876 -1.3067  2.0755 -1.8571
 2376TIP3   OH228762   2.943   6.670   2.097 -0.0138  0.0215 -0.2445
 2376TIP3    H128763   2.849   6.670   2.114 -0.0985 -1.2199 -0.5765
 2376TIP3    H228764   2.957   6.592   2.042  0.8849  1.3756 -2.0574
 2377TIP3   OH228765   4.509   5.534   1.572 -0.3580 -0.6821  0.5855
 2377TIP3    H128766   4.478   5.608   1.520  0.6722 -0.9338 -0.4134
 2377TIP3    H228767   4.526   5.572   1.659 -0.2169  0.1668  0.2001
 2378TIP3   OH228768   5.423   1.461   0.078 -0.0674  0.6104  0.2815
 2378TIP3    H128769   5.467   1.489   0.158  2.7896 -1.1853 -0.5129
 2378TIP3    H228770   5.494   1.449   0.015 -1.7897 -1.5921 -1.4008
 2379TIP3   OH228771   0.993   4.369   0.482  0.2026 -0.2922 -0.4612
 2379TIP3    H128772   0.975   4.296   0.541 -1.3855  0.7093  0.3723
 2379TIP3    H228773   1.081   4.398   0.506  0.2467 -0.9667  0.2447
 2380TIP3   OH228774   0.223   1.557   2.466  0.0818 -0.3417  0.3237
 2380TIP3    H128775   0.282   1.624   2.499 -0.7374 -0.5507  2.3627
 2380TIP3    H228776   0.147   1.605   2.434  0.9209 -0.1299 -1.4175
 2381TIP3   OH228777   5.627   6.427   0.587 -0.1263 -0.5785 -0.1781
 2381TIP3    H128778   5.561   6.487   0.550 -1.2960 -0.9106  1.3007
 2381TIP3    H228779   5.624   6.443   0.681  1.1402 -1.4086  0.0228
 2382TIP3   OH228780   4.507   1.299   0.259 -0.0906 -0.0345  0.7727
 2382TIP3    H128781   4.489   1.351   0.181 -2.3373  0.3274  1.4803
 2382TIP3    H228782   4.422   1.269   0.289  0.5547  0.6730  3.6614
 2383TIP3   OH228783   5.279   4.565   6.938  0.0118 -0.4653 -0.1143
 2383TIP3    H128784   5.362   4.604   6.911  0.5144 -1.7674 -0.5312
 2383TIP3    H228785   5.233   4.547   6.856 -1.6331  2.0901  0.1274
 2384TIP3   OH228786   1.799   3.034   8.042 -0.1243  0.5921 -0.0310
 2384TIP3    H128787   1.811   3.080   7.959  0.4249  2.3408  0.9529
 2384TIP3    H228788   1.760   2.950   8.018 -2.0154  1.9028 -1.8610
 2385TIP3   OH228789   5.186   1.462   2.384  0.2874  0.1440  0.0990
 2385TIP3    H128790   5.170   1.386   2.329 -0.4578 -0.5122  1.1811
 2385TIP3    H228791   5.129   1.449   2.461 -0.3847  2.1227  0.0002
 2386TIP3   OH228792   0.167   2.768   8.504  0.2730  0.0745  0.4427
 2386TIP3    H128793   0.230   2.831   8.537  0.8064 -0.8138  1.1737
 2386TIP3    H228794   0.125   2.812   8.430  1.1403  0.9971  0.4831
 2387TIP3   OH228795   1.054   5.818   8.616 -0.0304  0.3567  0.0235
 2387TIP3    H128796   1.043   5.775   8.701 -0.0202 -1.9722 -1.0772
 2387TIP3    H228797   1.149   5.816   8.601 -0.0020  1.0608  0.0813
 2388TIP3   OH228798   2.985   3.039   0.370  0.1867  0.0969  0.3604
 2388TIP3    H128799   3.026   2.955   0.390  1.5023  0.9526  1.3950
 2388TIP3    H228800   2.933   3.060   0.448  1.4604  1.1521  0.9668
 2389TIP3   OH228801   5.844   5.561   0.306 -0.0517 -0.2232  0.2999
 2389TIP3    H128802   5.803   5.475   0.314  0.0657 -0.2900  0.1851
 2389TIP3    H228803   5.936   5.545   0.325  0.4024 -0.5386 -1.9125
 2390TIP3   OH228804   1.880   1.056   6.765 -1.0138 -0.3010  0.1961
 2390TIP3    H128805   1.933   1.005   6.704 -0.1754  1.0909 -0.2696
 2390TIP3    H228806   1.922   1.043   6.850 -0.9768 -0.5870  0.1365
 2391TIP3   OH228807   0.912   0.174   8.146 -0.2710 -0.4100  0.3243
 2391TIP3    H128808   0.885   0.083   8.141 -1.3626 -0.1704  1.4130
 2391TIP3    H228809   0.932   0.189   8.238  1.4304  0.0530 -0.0892
 2392TIP3   OH228810   6.216   1.307   2.111 -0.2632  0.1498 -0.5533
 2392TIP3    H128811   6.138   1.268   2.074  0.4561 -0.2586 -1.7065
 2392TIP3    H228812   6.212   1.287   2.204 -0.0883 -2.4386 -1.0363
 2393TIP3   OH228813   0.186   6.206   0.423  0.1599  0.3310  0.4529
 2393TIP3    H128814   0.252   6.255   0.471  1.2119  0.5615 -1.1589
 2393TIP3    H228815   0.107   6.260   0.429  1.0825  1.8832 -0.6211
 2394TIP3   OH228816   4.102   1.721   7.779 -0.1047  0.1315  0.6728
 2394TIP3    H128817   4.024   1.684   7.739 -0.6107  1.9514 -0.1419
 2394TIP3    H228818   4.093   1.816   7.766  1.1581  0.5581  2.5317
 2395TIP3   OH228819   4.656   4.421   6.803 -0.2637 -0.1118  0.1682
 2395TIP3    H128820   4.720   4.424   6.731 -1.1706 -0.0125 -0.6516
 2395TIP3    H228821   4.571   4.419   6.759 -0.8156 -0.9014  1.2330
 2396TIP3   OH228822   3.523   1.632   1.205 -0.0127 -0.1452 -0.8982
 2396TIP3    H128823   3.521   1.727   1.216  1.3885  0.1577 -2.7701
 2396TIP3    H228824   3.491   1.598   1.288 -0.5404  1.9549 -0.1715
 2397TIP3   OH228825   1.860   3.869   1.469 -0.1163 -1.2531  0.2410
 2397TIP3    H128826   1.930   3.839   1.527 -0.4292 -1.7673  0.3605
 2397TIP3    H228827   1.902   3.933   1.411  0.2667 -0.9565  0.8335
 2398TIP3   OH228828   1.349   4.479   2.425  0.6488  0.3897  0.7522
 2398TIP3    H128829   1.314   4.397   2.458 -0.1715  0.6191  0.4830
 2398TIP3    H228830   1.286   4.545   2.454  0.3152  0.6947 -0.5947
 2399TIP3   OH228831   5.144   1.658   2.031  0.1235  0.0821  0.0423
 2399TIP3    H128832   5.200   1.598   1.982  0.8912  0.1343  0.8192
 2399TIP3    H228833   5.148   1.740   1.983  2.7404  0.8323  1.3348
 2400TIP3   OH228834   6.232   1.536   7.388 -0.2838  0.2580 -0.1231
 2400TIP3    H128835   6.234   1.606   7.453 -1.1829 -0.5219  0.7950
 2400TIP3    H228836   6.187   1.464   7.433 -3.1171  0.4770 -2.3947
 2401TIP3   OH228837   2.329   1.043   1.047 -0.2477  0.0691 -0.2334
 2401TIP3    H128838   2.325   1.011   1.138 -1.2438 -0.6309 -0.5063
 2401TIP3    H228839   2.254   1.002   1.004  0.1145  0.5335 -1.3377
 2402TIP3   OH228840   1.368   1.452   0.885 -0.2473 -0.2312  0.2365
 2402TIP3    H128841   1.450   1.455   0.836 -0.0259  0.5215  0.6384
 2402TIP3    H228842   1.340   1.544   0.891 -1.2514 -0.4955 -0.1077
 2403TIP3   OH228843   0.058   0.201   6.908  0.1721  0.7323 -0.2445
 2403TIP3    H128844   0.090   0.239   6.826  0.9632 -0.6050 -0.5790
 2403TIP3    H228845   0.075   0.270   6.973 -0.6965  1.9053 -1.2124
 2404TIP3   OH228846   4.994   0.548   2.824  0.4000 -0.5149  0.0362
 2404TIP3    H128847   5.016   0.502   2.904 -1.0785 -1.4201 -0.0364
 2404TIP3    H228848   4.898   0.547   2.821  0.4202 -1.0511 -2.0302
 2405TIP3   OH228849   2.855   1.226   1.676  0.2147  0.6769  0.1916
 2405TIP3    H128850   2.834   1.232   1.583  2.3883  0.1373 -0.4099
 2405TIP3    H228851   2.909   1.303   1.693  0.6393  0.2602  0.7482
 2406TIP3   OH228852   2.354   2.679   2.036  0.4121 -0.0981  0.1329
 2406TIP3    H128853   2.284   2.614   2.042 -0.4498  0.6576 -1.2761
 2406TIP3    H228854   2.317   2.757   2.076 -0.2518  0.8198 -2.1345
 2407TIP3   OH228855   3.015   0.554   0.483  0.1955  0.1466 -0.0698
 2407TIP3    H128856   3.060   0.488   0.430 -2.0285 -1.8419  0.3518
 2407TIP3    H228857   3.022   0.522   0.573  0.3656  1.3218  0.3616
 2408TIP3   OH228858   0.318   1.528   0.807  0.4162  0.2678 -0.0246
 2408TIP3    H128859   0.235   1.562   0.839 -1.0522 -3.0076  0.0542
 2408TIP3    H228860   0.313   1.535   0.712 -1.0181 -1.8434 -0.1792
 2409TIP3   OH228861   0.072   0.018   2.887 -0.4141 -0.3169 -0.1469
 2409TIP3    H128862   0.006   0.043   2.952  0.9396  1.6644  0.5607
 2409TIP3    H228863   0.070  -0.078   2.887 -0.9429 -0.3933  2.3546
 2410TIP3   OH228864   1.879   1.829   8.217 -0.7540  0.2691  0.5339
 2410TIP3    H128865   1.867   1.922   8.197  1.5555  0.4363 -0.3361
 2410TIP3    H228866   1.791   1.797   8.236 -1.9904  2.0486 -1.7406
 2411TIP3   OH228867   6.809   6.143   0.175  0.9995  0.2811 -0.4866
 2411TIP3    H128868   6.758   6.153   0.255  2.2449 -0.4078  0.4224
 2411TIP3    H228869   6.753   6.178   0.106 -0.2428  0.5469  0.6304
 2412TIP3   OH228870   5.891   0.680   1.445 -0.4542 -0.4007  0.1568
 2412TIP3    H128871   5.844   0.600   1.466 -2.1414  0.9879  2.0733
 2412TIP3    H228872   5.967   0.679   1.503 -2.2779  0.8740  2.7852
 2413TIP3   OH228873   6.696   5.762   2.730 -0.8005 -0.6689  0.1643
 2413TIP3    H128874   6.627   5.805   2.679  0.7575  1.5455 -0.2513
 2413TIP3    H228875   6.689   5.801   2.817  0.4654  0.3315 -0.1427
 2414TIP3   OH228876   6.748   3.073   1.871  0.6592  0.1997 -0.0651
 2414TIP3    H128877   6.731   2.998   1.813 -2.9007  1.0029 -0.3000
 2414TIP3    H228878   6.803   3.131   1.819 -0.7783 -0.0183 -1.9470
 2415TIP3   OH228879   3.813   5.284   7.322 -0.4406  0.3362  0.4596
 2415TIP3    H128880   3.852   5.202   7.353 -2.0385 -0.3169  0.8333
 2415TIP3    H228881   3.887   5.345   7.316  0.5264 -0.6274  1.8533
 2416TIP3   OH228882   2.772   2.472   8.356  0.6159 -0.4355 -0.3314
 2416TIP3    H128883   2.731   2.396   8.396 -0.2225  0.3900  0.4305
 2416TIP3    H228884   2.749   2.467   8.264  1.0947 -1.4271 -0.4096
 2417TIP3   OH228885   6.890   3.235   2.535  0.3324  0.1524  0.0405
 2417TIP3    H128886   6.967   3.180   2.521  0.0462 -0.6625  1.4355
 2417TIP3    H228887   6.815   3.177   2.521 -0.1164  1.2413 -2.5307
 2418TIP3   OH228888   3.894   0.430   1.554  0.2233 -0.0720  0.1671
 2418TIP3    H128889   3.976   0.474   1.529  0.2897 -0.2522  0.0628
 2418TIP3    H228890   3.850   0.491   1.612  0.4376  0.0224  0.2289
 2419TIP3   OH228891   5.887   1.286   1.720 -0.0059 -0.2546 -0.0488
 2419TIP3    H128892   5.959   1.298   1.782  0.5362  1.7278 -1.0036
 2419TIP3    H228893   5.930   1.261   1.638 -0.3353  1.3932 -0.7493
 2420TIP3   OH228894   6.128   2.646   0.332 -0.1801 -0.0709  0.0402
 2420TIP3    H128895   6.069   2.589   0.382 -1.0731  0.4657 -0.3910
 2420TIP3    H228896   6.133   2.605   0.246 -1.9359  1.2034 -0.7250
 2421TIP3   OH228897   4.619   2.693   1.017 -0.4620  0.0661  0.0044
 2421TIP3    H128898   4.687   2.635   0.982 -1.2015 -0.5160 -0.5211
 2421TIP3    H228899   4.649   2.781   0.997  0.6143 -0.1271  0.6776
 2422TIP3   OH228900   2.933   2.638   7.392  0.1974  0.4767  0.3961
 2422TIP3    H128901   2.889   2.654   7.309 -0.6953  1.0861  0.9699
 2422TIP3    H228902   2.939   2.724   7.433 -0.0170  0.0894  1.2663
 2423TIP3   OH228903   6.470   2.465   7.208  0.0724  0.4495  0.0522
 2423TIP3    H128904   6.433   2.539   7.257 -0.0460  0.4721 -0.0721
 2423TIP3    H228905   6.468   2.493   7.117 -1.8359 -0.4544 -0.2480
 2424TIP3   OH228906   5.975   2.171   2.172  0.1080 -0.7153  0.2568
 2424TIP3    H128907   6.070   2.166   2.164  0.1164 -0.5612  0.2600
 2424TIP3    H228908   5.960   2.199   2.262  0.0186 -2.4776  0.8436
 2425TIP3   OH228909   6.105   2.138   2.834  0.7200  0.0253  0.1546
 2425TIP3    H128910   6.158   2.199   2.885  1.2981  0.2809 -0.7352
 2425TIP3    H228911   6.147   2.053   2.847 -0.6811 -0.4209  2.2312
 2426TIP3   OH228912   0.001   4.025   7.711  0.5785  0.3884  0.0538
 2426TIP3    H128913  -0.003   4.108   7.662  2.7906  0.0953 -0.7837
 2426TIP3    H228914   0.026   4.051   7.800 -0.8976  0.7474  0.3829
 2427TIP3   OH228915   1.253   1.095   0.063 -0.0315  0.4440 -0.4856
 2427TIP3    H128916   1.327   1.039   0.088 -1.2566 -1.6228 -1.2940
 2427TIP3    H228917   1.270   1.117  -0.028 -0.7349 -0.6366 -0.8952
 2428TIP3   OH228918   5.223   2.155   8.041  0.3189  0.3394  0.7209
 2428TIP3    H128919   5.193   2.155   8.132  0.0653  0.4038  0.6381
 2428TIP3    H228920   5.233   2.248   8.019  0.2581  0.3281  0.6444
 2429TIP3   OH228921   0.624   1.396   0.086 -0.1016  0.1163  0.7193
 2429TIP3    H128922   0.590   1.484   0.075  0.2790  0.2809  0.8283
 2429TIP3    H228923   0.719   1.406   0.079 -0.1037 -0.4442 -0.3384
 2430TIP3   OH228924   4.756   4.247   6.973  0.0040 -0.8549  0.1338
 2430TIP3    H128925   4.709   4.309   6.917  0.9630  1.4173  1.6790
 2430TIP3    H228926   4.828   4.299   7.011  1.7240 -3.3041  0.4532
 2431TIP3   OH228927   2.714   3.293   7.518  0.2223 -0.0356  0.0034
 2431TIP3    H128928   2.762   3.334   7.590 -0.9746 -0.3631  1.0074
 2431TIP3    H228929   2.671   3.366   7.473 -1.8382 -0.1249  1.7368
 2432TIP3   OH228930   5.688   6.404   0.007 -0.1247  0.0986 -0.3210
 2432TIP3    H128931   5.738   6.433   0.083 -0.0068  2.5343 -1.2353
 2432TIP3    H228932   5.720   6.315  -0.010  1.6900  0.4521  0.9377
 2433TIP3   OH228933   5.296   0.604   0.627  0.0713  0.2138  0.0020
 2433TIP3    H128934   5.231   0.619   0.695 -1.1838  0.4645 -1.1865
 2433TIP3    H228935   5.271   0.664   0.557 -0.8439 -2.3501 -2.0784
 2434TIP3   OH228936   5.709   0.937   0.266  0.2021  0.6861 -0.1703
 2434TIP3    H128937   5.774   0.952   0.197 -0.6136 -0.1795 -1.1683
 2434TIP3    H228938   5.715   0.843   0.285 -0.2267  0.7427  0.2582
 2435TIP3   OH228939   2.645   5.071   0.725  0.1052  0.0092  0.1263
 2435TIP3    H128940   2.688   5.119   0.795  1.7060 -2.7859  1.2227
 2435TIP3    H228941   2.641   5.133   0.652  0.9084  2.1267  1.7741
 2436TIP3   OH228942   2.133   2.475   2.066 -1.0825  0.2061  0.2196
 2436TIP3    H128943   2.098   2.417   2.133 -1.3587  1.8972  1.6166
 2436TIP3    H228944   2.100   2.440   1.983  0.3067 -2.6893  0.7599
 2437TIP3   OH228945   1.098   2.337   1.122 -0.0635  0.6136 -0.1094
 2437TIP3    H128946   1.093   2.241   1.123  0.1774  0.5981 -0.4440
 2437TIP3    H228947   1.173   2.357   1.178  0.5307  0.5636 -0.8792
 2438TIP3   OH228948   0.992   4.845   0.116  0.0296 -0.0922 -0.8861
 2438TIP3    H128949   0.925   4.839   0.048  0.3717  2.0646 -1.4911
 2438TIP3    H228950   0.977   4.930   0.157 -0.4405 -1.4892  2.1221
 2439TIP3   OH228951   1.173   0.160   2.172  0.6363 -0.1502  0.0126
 2439TIP3    H128952   1.124   0.127   2.248  0.5568  1.5623  0.7497
 2439TIP3    H228953   1.143   0.250   2.161  2.0499  0.2488 -0.8796
 2440TIP3   OH228954   6.855   1.161   1.190 -0.0090  0.2885 -0.7978
 2440TIP3    H128955   6.816   1.198   1.270  0.0431  0.1746 -0.7199
 2440TIP3    H228956   6.949   1.168   1.204  0.1876 -3.6210  1.0533
 2441TIP3   OH228957   5.040   4.724   0.915  0.4643  0.2177  0.2325
 2441TIP3    H128958   5.033   4.819   0.918 -1.7848  0.0963  0.8452
 2441TIP3    H228959   5.084   4.701   0.996 -0.8286  0.6722  1.1076
 2442TIP3   OH228960   6.657   4.226   8.426  0.2218 -0.1553 -0.3566
 2442TIP3    H128961   6.599   4.290   8.466  0.0554 -1.0153  0.8401
 2442TIP3    H228962   6.661   4.251   8.334 -0.7808  0.8555 -0.1436
 2443TIP3   OH228963   4.526   3.529   1.056  0.3749 -0.5819  0.4171
 2443TIP3    H128964   4.547   3.570   1.139 -0.1936  0.4508  0.0754
 2443TIP3    H228965   4.514   3.603   0.996 -1.1653 -1.2291 -0.1035
 2444TIP3   OH228966   3.006   6.390   0.080 -0.0390  0.0756 -0.2700
 2444TIP3    H128967   2.997   6.309   0.029  1.0379  0.1145 -0.5642
 2444TIP3    H228968   3.098   6.416   0.067 -0.2798  1.1668  0.0881
 2445TIP3   OH228969   4.120   2.225   2.533 -0.2399 -0.3840  0.1977
 2445TIP3    H128970   4.206   2.191   2.510  0.1120 -0.4719  1.5240
 2445TIP3    H228971   4.120   2.226   2.629 -2.0674 -1.3117  0.2583
 2446TIP3   OH228972   4.673   2.856   7.221  0.0386  0.2203  0.0902
 2446TIP3    H128973   4.628   2.867   7.137 -0.1077 -1.4485 -0.0658
 2446TIP3    H228974   4.648   2.934   7.271 -2.0189 -0.0213 -0.4701
 2447TIP3   OH228975   5.903   0.975   0.082  0.9536 -0.5846 -0.0435
 2447TIP3    H128976   5.894   1.067   0.056 -0.1805 -0.6091  0.2062
 2447TIP3    H228977   5.912   0.928  -0.001  1.0291 -0.3024 -0.1958
 2448TIP3   OH228978   1.749   6.656   7.851  0.0406  0.2079  0.4898
 2448TIP3    H128979   1.775   6.571   7.886 -0.3724 -0.4293 -0.7107
 2448TIP3    H228980   1.824   6.684   7.799  1.0641  1.6177  2.5670
 2449TIP3   OH228981   2.634   5.622   1.912 -0.4373  0.3689  0.3987
 2449TIP3    H128982   2.579   5.553   1.949 -0.8397  0.3535 -0.2218
 2449TIP3    H228983   2.617   5.619   1.818  0.7516  0.2515  0.1695
 2450TIP3   OH228984   2.916   0.039   2.206 -0.2414  0.0145  0.6899
 2450TIP3    H128985   2.914  -0.051   2.172  1.2171  1.0268 -2.4424
 2450TIP3    H228986   2.823   0.064   2.208 -0.7352 -1.7006  2.2346
 2451TIP3   OH228987   4.560   5.655   7.969 -0.5791  0.6475 -0.3763
 2451TIP3    H128988   4.533   5.719   7.902 -1.2905  0.0329 -0.6950
 2451TIP3    H228989   4.477   5.619   8.002 -0.2368  0.9474  0.8492
 2452TIP3   OH228990   6.873   1.120   8.087  0.1457  0.3751  0.2205
 2452TIP3    H128991   6.880   1.211   8.057 -1.6368  0.0173 -1.4997
 2452TIP3    H228992   6.963   1.093   8.102  0.7528  2.2640  0.2469
 2453TIP3   OH228993   2.009   3.818   8.350 -0.4073 -0.1044 -0.1299
 2453TIP3    H128994   1.981   3.753   8.286  0.3898 -0.1182 -0.4826
 2453TIP3    H228995   1.928   3.858   8.381 -0.9345 -1.4230  0.2680
 2454TIP3   OH228996   3.516   3.966   0.714  0.1737  0.0695  0.0988
 2454TIP3    H128997   3.540   4.058   0.724  0.5907  0.1812 -1.7051
 2454TIP3    H228998   3.422   3.963   0.733  0.3177  0.6976  0.9804
 2455TIP3   OH228999   4.790   2.186   0.540 -0.2716 -0.5039  0.4971
 2455TIP3    H129000   4.802   2.092   0.524  2.9226 -0.1653  0.1943
 2455TIP3    H229001   4.783   2.194   0.635 -1.7388 -1.0941  0.4643
 2456TIP3   OH229002   1.168   1.864   0.784 -0.2075 -0.2239  0.2125
 2456TIP3    H129003   1.105   1.885   0.716  0.2751 -0.3128 -0.2691
 2456TIP3    H229004   1.167   1.769   0.789  0.5138 -0.2809 -0.4174
 2457TIP3   OH229005   5.938   4.008   1.026 -0.0631  0.5840  0.2220
 2457TIP3    H129006   6.033   3.994   1.018  0.1461  1.5457  0.9090
 2457TIP3    H229007   5.911   3.942   1.091  0.3026  0.9337  0.7392
 2458TIP3   OH229008   2.158   3.892   7.627  0.2815 -0.2342 -0.0453
 2458TIP3    H129009   2.104   3.970   7.620  2.5163  1.4696  0.3942
 2458TIP3    H229010   2.184   3.872   7.537  0.2693 -0.0180 -0.0968
 2459TIP3   OH229011   0.217   1.594   7.780 -0.2026 -0.0734 -0.2301
 2459TIP3    H129012   0.244   1.502   7.777 -1.7942 -0.6592  1.4794
 2459TIP3    H229013   0.123   1.593   7.760 -0.6404  0.9263  1.5114
 2460TIP3   OH229014   3.075   4.393   2.557 -0.2631 -0.1860  0.1630
 2460TIP3    H129015   2.982   4.380   2.577 -0.1430 -0.5149  0.5062
 2460TIP3    H229016   3.098   4.319   2.500  0.0164 -0.6085  0.8164
 2461TIP3   OH229017   0.607   0.488   1.330 -0.0821  0.0149  0.3197
 2461TIP3    H129018   0.558   0.570   1.339  0.3066  0.5843 -2.0025
 2461TIP3    H229019   0.541   0.422   1.312 -0.1987  0.3268 -0.4182
 2462TIP3   OH229020   3.541   6.578   1.357 -0.0965 -0.1244 -0.8750
 2462TIP3    H129021   3.487   6.500   1.369 -2.0161  1.3921  1.0644
 2462TIP3    H229022   3.581   6.593   1.442  0.7607  0.6669 -1.3949
 2463TIP3   OH229023   2.922   5.752   2.645 -0.2703 -0.7642  0.6237
 2463TIP3    H129024   2.939   5.837   2.685 -0.2976 -1.5143  2.3417
 2463TIP3    H229025   2.852   5.768   2.582 -0.4384  0.4375  1.1030
 2464TIP3   OH229026   5.422   5.910   1.237  0.1418 -0.5680  0.4007
 2464TIP3    H129027   5.368   5.835   1.210  1.3042 -1.6468  0.9495
 2464TIP3    H229028   5.511   5.884   1.214  0.5193  0.8878  0.1365
 2465TIP3   OH229029   3.640   6.065   2.868  0.0008 -0.0688  0.2835
 2465TIP3    H129030   3.641   6.011   2.947 -0.2387  0.1082  0.4091
 2465TIP3    H229031   3.720   6.041   2.822  0.8189  0.7987  1.2263
 2466TIP3   OH229032   2.810   5.106   1.114 -0.1157  0.2574 -0.0391
 2466TIP3    H129033   2.888   5.156   1.137 -1.2918  1.0724  2.6946
 2466TIP3    H229034   2.768   5.158   1.045  0.2984  1.3756  0.5263
 2467TIP3   OH229035   5.941   4.615   2.501 -0.8778 -0.1257  0.6172
 2467TIP3    H129036   6.026   4.570   2.509 -0.8902 -0.1868  0.4022
 2467TIP3    H229037   5.885   4.568   2.563 -1.4781 -1.7980 -1.0852
 2468TIP3   OH229038   3.584   4.164   7.582 -0.4438  0.7920 -0.2257
 2468TIP3    H129039   3.678   4.156   7.599 -0.3830  0.8275 -0.5404
 2468TIP3    H229040   3.550   4.075   7.592 -0.5763  0.9783  1.0551
 2469TIP3   OH229041   3.214   4.061   7.568  0.4482  0.0932 -0.5733
 2469TIP3    H129042   3.288   4.023   7.520  1.7827  1.5749  0.2378
 2469TIP3    H229043   3.186   4.135   7.514  0.2233  0.1678 -0.3563
 2470TIP3   OH229044   2.518   2.546   8.206  0.5270 -0.2065  0.5513
 2470TIP3    H129045   2.564   2.609   8.149  0.8006 -0.1420  0.8387
 2470TIP3    H229046   2.482   2.481   8.146 -1.2090  1.1149  0.0807
 2471TIP3   OH229047   6.405   5.560   2.166  0.3933 -0.1613  0.2753
 2471TIP3    H129048   6.488   5.513   2.164  0.9462  0.7912 -0.9755
 2471TIP3    H229049   6.422   5.640   2.116 -1.3266 -0.0282 -0.1588
 2472TIP3   OH229050   2.623   5.357   2.446 -0.0840  0.0852  0.1924
 2472TIP3    H129051   2.600   5.447   2.424  0.0965  0.1090  0.0929
 2472TIP3    H229052   2.638   5.358   2.541  0.9434  0.4005  0.0453
 2473TIP3   OH229053   0.677   5.617   7.613 -0.0444  0.3107  0.2735
 2473TIP3    H129054   0.651   5.553   7.679 -2.6401 -0.2136 -1.1096
 2473TIP3    H229055   0.622   5.693   7.632  0.5959  0.8875 -0.1458
 2474TIP3   OH229056   2.071   5.582   2.067  0.0641  0.0467  0.1713
 2474TIP3    H129057   2.081   5.676   2.084  0.2869  0.0639 -0.0389
 2474TIP3    H229058   1.982   5.574   2.031  1.2535  0.7253 -3.3082
 2475TIP3   OH229059   1.111   3.910   7.882 -0.2146  0.2727 -0.6171
 2475TIP3    H129060   1.156   3.855   7.818  0.7426 -0.2361  0.4511
 2475TIP3    H229061   1.177   3.926   7.950 -1.3522  0.3469  0.5157
 2476TIP3   OH229062   4.319   5.360   2.702  0.3988 -0.4994  0.1976
 2476TIP3    H129063   4.402   5.391   2.664 -1.4868  1.1567 -2.9710
 2476TIP3    H229064   4.311   5.409   2.784  2.8504 -1.3156  1.0311
 2477TIP3   OH229065   2.487   6.062   2.528 -0.3097  0.4780  0.0661
 2477TIP3    H129066   2.495   5.988   2.589  1.6271  0.1951 -0.4523
 2477TIP3    H229067   2.571   6.107   2.534  0.1357  0.1690 -2.6990
 2478TIP3   OH229068   2.071   3.234   0.972 -0.2209 -0.0641  0.1444
 2478TIP3    H129069   2.135   3.304   0.960  1.5865 -1.3513  1.5946
 2478TIP3    H229070   2.062   3.194   0.886 -0.3598  1.1642 -0.4292
 2479TIP3   OH229071   6.322   1.244   8.429  0.5845  0.2508 -0.1194
 2479TIP3    H129072   6.343   1.282   8.514  0.1887 -1.3962  0.7672
 2479TIP3    H229073   6.285   1.158   8.450  0.7824 -0.3358 -1.9723
 2480TIP3   OH229074   1.987   1.321   1.748  0.0568  0.1749 -0.0011
 2480TIP3    H129075   2.051   1.385   1.716  0.4323 -0.0242  0.3330
 2480TIP3    H229076   1.943   1.289   1.670  2.7408 -2.2288 -0.7184
 2481TIP3   OH229077   2.514   3.922   8.283 -0.6184 -0.3953 -0.2272
 2481TIP3    H129078   2.549   3.947   8.369 -0.5273 -1.5107  0.0785
 2481TIP3    H229079   2.545   3.832   8.270 -0.3069 -0.1111 -1.6107
 2482TIP3   OH229080   6.661   5.596   7.051  0.1371 -0.6462  0.0614
 2482TIP3    H129081   6.589   5.659   7.048 -0.2622 -1.1366 -0.9869
 2482TIP3    H229082   6.698   5.598   6.963 -0.1454 -2.1839 -0.1051
 2483TIP3   OH229083   1.603   2.810   6.781 -0.4028 -0.2030  0.0115
 2483TIP3    H129084   1.651   2.891   6.798 -2.2077  0.9538 -0.0567
 2483TIP3    H229085   1.663   2.756   6.730  0.3866  1.6744 -1.1610
 2484TIP3   OH229086   4.742   3.730   1.176  1.1659 -0.1974  0.0612
 2484TIP3    H129087   4.762   3.782   1.098  1.0506 -0.1366  0.0721
 2484TIP3    H229088   4.763   3.641   1.151 -0.9760 -0.5245 -0.8188
 2485TIP3   OH229089   4.272   0.003   1.665  0.4166  0.5971 -0.2650
 2485TIP3    H129090   4.203   0.065   1.643 -0.2248  0.1525  0.4265
 2485TIP3    H229091   4.280   0.009   1.760  0.4346 -0.2729 -0.1985
 2486TIP3   OH229092   2.400   3.151   0.083 -0.0519  0.0194 -0.2825
 2486TIP3    H129093   2.394   3.119  -0.007  1.2628 -0.1607 -0.3164
 2486TIP3    H229094   2.467   3.097   0.124  1.6876  2.1409 -0.1113
 2487TIP3   OH229095   3.796   3.317   7.442  0.0058  0.4215  0.2025
 2487TIP3    H129096   3.856   3.262   7.492  0.5176  1.3144  0.6105
 2487TIP3    H229097   3.810   3.405   7.477 -1.2619  0.7128  0.0205
 2488TIP3   OH229098   2.888   4.467   0.147 -0.3277 -0.1980 -0.3914
 2488TIP3    H129099   2.940   4.455   0.067 -0.2819  0.5662 -0.4788
 2488TIP3    H229100   2.946   4.436   0.217  0.1596  0.4120 -0.5142
 2489TIP3   OH229101   6.804   0.911   6.982 -0.2357  0.4857  0.1031
 2489TIP3    H129102   6.751   0.988   7.002 -1.6912  0.4192 -2.9749
 2489TIP3    H229103   6.744   0.850   6.940  1.6068 -0.9549 -0.6019
 2490TIP3   OH229104   5.021   2.640   8.037  0.7603  0.5175  0.6843
 2490TIP3    H129105   5.061   2.713   7.991  1.1388  0.0086  0.1844
 2490TIP3    H229106   4.940   2.622   7.989  1.9197 -1.0333 -0.8265
 2491TIP3   OH229107   3.680   4.701   1.621  0.5102 -0.4103 -0.1835
 2491TIP3    H129108   3.691   4.612   1.590 -1.8182  0.0562 -2.6824
 2491TIP3    H229109   3.663   4.753   1.543 -0.5681  1.8102  1.3938
 2492TIP3   OH229110   1.240   2.123   1.655 -0.0134 -0.1989  0.0667
 2492TIP3    H129111   1.180   2.171   1.712  0.4811  1.4799 -0.7759
 2492TIP3    H229112   1.293   2.070   1.716 -0.5346  0.3552  1.0260
 2493TIP3   OH229113   2.351   0.436   2.448  0.1573  0.4416  0.2985
 2493TIP3    H129114   2.384   0.526   2.443 -0.2956  0.5785 -0.4329
 2493TIP3    H229115   2.256   0.447   2.460  0.1124  0.0583  0.2916
 2494TIP3   OH229116   3.475   0.840   2.483 -0.2031 -0.2101 -1.2580
 2494TIP3    H129117   3.455   0.870   2.394 -1.5792  1.2097 -0.5208
 2494TIP3    H229118   3.485   0.745   2.475 -0.8143 -0.1716 -2.8428
 2495TIP3   OH229119   2.700   4.000   0.164  0.1598  1.0468 -0.3416
 2495TIP3    H129120   2.633   3.934   0.145  0.8458  0.6389 -1.4123
 2495TIP3    H229121   2.705   4.001   0.260  1.1418 -1.5390 -0.2837
 2496TIP3   OH229122   0.809   6.051   2.554 -0.0599 -0.3350  0.1626
 2496TIP3    H129123   0.903   6.050   2.539 -0.3581 -1.2333 -1.9137
 2496TIP3    H229124   0.799   6.086   2.643  2.2051 -0.1744  0.3954
 2497TIP3   OH229125   2.371   5.750   1.907  0.2028 -0.1925 -0.2716
 2497TIP3    H129126   2.448   5.798   1.877 -0.7074  1.1505 -0.5610
 2497TIP3    H229127   2.310   5.818   1.935  0.5006 -1.2973  3.6598
 2498TIP3   OH229128   6.203   2.859   0.929  0.2533  0.6856  0.0205
 2498TIP3    H129129   6.228   2.771   0.903  0.7422  1.1720 -1.2505
 2498TIP3    H229130   6.247   2.872   1.013 -0.1177 -0.3951  0.3932
 2499TIP3   OH229131   2.053   0.207   8.236  0.1070 -0.2623  0.5403
 2499TIP3    H129132   2.118   0.239   8.299  3.3923  0.4489 -2.8662
 2499TIP3    H229133   2.087   0.123   8.207 -1.0489 -0.3455 -0.6621
 2500TIP3   OH229134   4.746   1.965   7.680  0.1149  0.2733  0.2427
 2500TIP3    H129135   4.791   1.889   7.717  1.3636  0.1808 -1.3629
 2500TIP3    H229136   4.815   2.014   7.634 -1.1979  0.8008 -1.2492
 2501TIP3   OH229137   4.889   2.685   6.888 -0.2106 -0.3575 -0.7120
 2501TIP3    H129138   4.982   2.694   6.912  0.0333 -0.9714 -1.3949
 2501TIP3    H229139   4.858   2.775   6.883  0.3773 -0.1383 -0.5853
 2502TIP3   OH229140   4.455   6.725   1.006 -0.2798  0.1653 -0.0796
 2502TIP3    H129141   4.529   6.759   0.957 -1.2903  2.2155 -0.2799
 2502TIP3    H229142   4.495   6.679   1.081  1.1825  0.5559 -0.5923
 2503TIP3   OH229143   1.930   6.676   8.264 -0.1229  0.1915 -0.2720
 2503TIP3    H129144   1.997   6.693   8.197 -0.1439  0.8832 -0.1248
 2503TIP3    H229145   1.884   6.760   8.274 -0.6568 -0.1321  0.0176
 2504TIP3   OH229146   3.304   1.947   6.837  0.5453  0.0643  0.0998
 2504TIP3    H129147   3.238   1.947   6.768 -0.7479 -1.5803  1.2720
 2504TIP3    H229148   3.384   1.917   6.793 -0.1936 -0.7289 -0.7546
 2505TIP3   OH229149   1.383   2.432   1.524  0.4416  0.4398 -0.5297
 2505TIP3    H129150   1.299   2.442   1.567  1.4018  0.7946  1.3703
 2505TIP3    H229151   1.364   2.383   1.444 -1.4984  0.2679 -0.0009
 2506TIP3   OH229152   5.100   1.394   8.091  0.2001 -0.5561 -0.2030
 2506TIP3    H129153   5.139   1.471   8.048 -0.4495  0.5839  1.1542
 2506TIP3    H229154   5.037   1.431   8.153  1.0072 -2.1190  1.6382
 2507TIP3   OH229155   3.839   2.240   1.711  0.1587  0.1412 -0.5740
 2507TIP3    H129156   3.870   2.191   1.635  2.4421  0.4076  0.1263
 2507TIP3    H229157   3.914   2.244   1.770 -1.2559  0.8087  1.2746
 2508TIP3   OH229158   6.797   5.192   1.485  0.6710  0.6270 -0.1811
 2508TIP3    H129159   6.772   5.284   1.475  0.6150  0.4477 -1.9425
 2508TIP3    H229160   6.885   5.187   1.448 -0.7169 -0.6799 -3.6821
 2509TIP3   OH229161   5.940   6.875   1.779 -0.2144  0.0526 -0.2355
 2509TIP3    H129162   6.031   6.893   1.803 -0.2380  0.2525 -0.2979
 2509TIP3    H229163   5.899   6.961   1.774 -0.4712 -0.0555  0.0494
 2510TIP3   OH229164   1.777   6.007   1.347 -0.2721  0.1361 -0.8360
 2510TIP3    H129165   1.833   5.930   1.337  1.1769  1.1693 -0.8985
 2510TIP3    H229166   1.819   6.058   1.416 -1.1916  0.8903 -0.8226
 2511TIP3   OH229167   6.511   0.102   8.257  0.2579  0.1025 -0.1365
 2511TIP3    H129168   6.439   0.136   8.204  0.0395 -0.2181 -0.0505
 2511TIP3    H229169   6.528   0.014   8.221  1.0980  0.4499 -0.6350
 2512TIP3   OH229170   6.595   5.146   7.314 -0.0876  0.2971 -0.5585
 2512TIP3    H129171   6.678   5.145   7.362  0.5783  1.3137 -1.6368
 2512TIP3    H229172   6.612   5.097   7.234 -0.7379 -0.0809 -0.4716
 2513TIP3   OH229173   0.198   3.670   1.805  0.4148 -0.3234 -0.1667
 2513TIP3    H129174   0.231   3.581   1.797 -1.3333 -0.9050 -1.8519
 2513TIP3    H229175   0.183   3.698   1.715  0.0184  1.3248  0.3716
 2514TIP3   OH229176   0.533   4.858   2.158  0.1894  0.0117 -0.1709
 2514TIP3    H129177   0.586   4.938   2.163 -1.0775  0.8717 -0.2119
 2514TIP3    H229178   0.447   4.888   2.128 -0.3800 -1.3314  0.0732
 2515TIP3   OH229179   3.071   3.983   7.776 -0.5601  0.7548  0.2764
 2515TIP3    H129180   3.117   3.992   7.693  0.3449 -0.6818  0.5893
 2515TIP3    H229181   2.995   4.040   7.767 -0.2058  1.0303 -1.3301
 2516TIP3   OH229182   4.470   4.320   0.309  0.6916  0.0064  0.0029
 2516TIP3    H129183   4.411   4.286   0.242  1.9968  2.4812 -2.6143
 2516TIP3    H229184   4.554   4.278   0.293  1.1009  0.8612 -0.1559
 2517TIP3   OH229185   3.414   3.711   2.293  0.2520  0.3149  0.1302
 2517TIP3    H129186   3.466   3.742   2.367  0.3662  0.9686 -0.2141
 2517TIP3    H229187   3.402   3.789   2.238  1.2596 -0.4087 -1.1857
 2518TIP3   OH229188   2.234   3.640   8.162  0.5905  0.1288 -0.0348
 2518TIP3    H129189   2.244   3.686   8.245  0.9660 -0.3293  0.1822
 2518TIP3    H229190   2.141   3.648   8.140  0.4155 -0.0492  0.6141
 2519TIP3   OH229191   2.600   4.099   2.185 -0.3689  0.4559  0.7064
 2519TIP3    H129192   2.578   4.180   2.140 -0.7543 -1.5685 -3.1408
 2519TIP3    H229193   2.516   4.054   2.198 -0.0747  0.2104  1.9248
 2520TIP3   OH229194   5.283   5.964   7.729 -0.1913 -0.3434 -0.1117
 2520TIP3    H129195   5.190   5.976   7.711  0.1421  1.3087 -0.8637
 2520TIP3    H229196   5.286   5.934   7.820 -1.4167  0.2441  0.1372
 2521TIP3   OH229197   6.774   2.278   0.294  0.9449 -0.2260  0.1711
 2521TIP3    H129198   6.848   2.296   0.237  0.9137 -1.2809 -0.2226
 2521TIP3    H229199   6.701   2.261   0.235 -0.1841  2.7783  0.5301
 2522TIP3   OH229200   3.943   4.897   1.154  0.3966  0.1885 -0.0092
 2522TIP3    H129201   3.914   4.897   1.063 -1.0569 -0.4873  0.4227
 2522TIP3    H229202   3.879   4.951   1.200 -1.6092 -3.0762  1.3515
 2523TIP3   OH229203   5.553   1.243   1.641  0.5173 -0.8138 -0.0489
 2523TIP3    H129204   5.472   1.286   1.613  0.1140 -1.3141  0.3295
 2523TIP3    H229205   5.584   1.296   1.715  1.4060  0.3156 -1.1774
 2524TIP3   OH229206   2.248   0.810   8.106  0.3423 -0.2047 -0.6587
 2524TIP3    H129207   2.252   0.734   8.165 -1.2167  0.0543 -0.1684
 2524TIP3    H229208   2.169   0.857   8.134  2.0005  2.4006 -0.0057
 2525TIP3   OH229209   2.843   0.124   7.104  0.0395 -0.4798  0.3608
 2525TIP3    H129210   2.903   0.164   7.168 -0.6599  0.8370  0.2344
 2525TIP3    H229211   2.814   0.043   7.145 -0.2042  0.2241  1.6208
 2526TIP3   OH229212   6.728   4.951   1.175 -0.1683 -0.0178  0.6582
 2526TIP3    H129213   6.640   4.989   1.167 -0.6410 -1.2361 -0.4224
 2526TIP3    H229214   6.780   4.998   1.109 -0.8514 -1.4061 -0.9618
 2527TIP3   OH229215   1.176   4.677   8.565 -1.0296  0.0063 -0.6566
 2527TIP3    H129216   1.099   4.679   8.622 -1.7314 -0.4256 -1.5638
 2527TIP3    H229217   1.218   4.593   8.585 -0.9040  0.1493 -0.3096
 2528TIP3   OH229218   2.933   2.457   6.991 -0.3102  0.0245 -0.0909
 2528TIP3    H129219   3.003   2.521   7.002  0.3198 -0.5258 -0.7980
 2528TIP3    H229220   2.960   2.404   6.916 -2.0642  0.5824 -1.1865
 2529TIP3   OH229221   3.859   4.367   7.982  0.3693 -0.3071  0.0545
 2529TIP3    H129222   3.832   4.457   7.963 -1.6724 -1.0257 -0.8418
 2529TIP3    H229223   3.873   4.365   8.076 -1.0704  0.6320  0.3281
 2530TIP3   OH229224   6.174   2.547   0.075 -0.4844  0.3732 -0.0452
 2530TIP3    H129225   6.210   2.474   0.025 -2.8884 -0.4696 -0.6955
 2530TIP3    H229226   6.113   2.590   0.014 -3.2113 -0.4376  1.9356
 2531TIP3   OH229227   4.502   5.614   1.829 -0.2813  0.1027  0.4990
 2531TIP3    H129228   4.425   5.670   1.844  1.1351  2.0042  1.0719
 2531TIP3    H229229   4.506   5.558   1.906 -0.5187  0.7176  0.9700
 2532TIP3   OH229230   1.841   4.870   1.576  0.0253 -0.1433  0.3748
 2532TIP3    H129231   1.829   4.915   1.493  0.2513  0.0856  0.4654
 2532TIP3    H229232   1.803   4.783   1.562  0.5710 -0.3046 -0.1453
 2533TIP3   OH229233   1.437   4.364   7.581  0.2329 -0.4937  0.2838
 2533TIP3    H129234   1.400   4.400   7.501  2.0430  1.7537  0.3490
 2533TIP3    H229235   1.529   4.390   7.579  0.5798 -1.2811  2.5886
 2534TIP3   OH229236   6.714   3.553   0.000 -0.1614  0.0667  0.9015
 2534TIP3    H129237   6.649   3.598  -0.055  0.8069  0.3141 -0.0806
 2534TIP3    H229238   6.798   3.583  -0.034  0.4922 -1.3818  1.1899
 2535TIP3   OH229239   4.577   5.567   0.901 -0.3500  0.4513 -0.1321
 2535TIP3    H129240   4.502   5.516   0.872  0.4281 -0.4185 -0.6474
 2535TIP3    H229241   4.544   5.657   0.904 -1.9160 -0.1018  1.3753
 2536TIP3   OH229242   6.437   1.624   0.173 -0.6639  0.0009 -0.0844
 2536TIP3    H129243   6.364   1.595   0.118 -0.8619  1.3657 -0.5878
 2536TIP3    H229244   6.411   1.712   0.201 -0.2228 -0.3792  1.5997
 2537TIP3   OH229245   4.917   5.399   7.997 -0.1714 -0.3218  0.2768
 2537TIP3    H129246   5.004   5.361   7.987 -0.4782 -1.8386  2.5966
 2537TIP3    H229247   4.929   5.492   7.977  1.1151 -1.0868 -3.1934
 2538TIP3   OH229248   5.909   0.805   7.386  0.3133  0.6793 -0.2454
 2538TIP3    H129249   5.856   0.771   7.314  0.6092  0.5559 -0.4108
 2538TIP3    H229250   5.913   0.899   7.370 -0.5109  0.7942  0.2149
 2539TIP3   OH229251   4.217   0.341   0.160 -0.4847 -0.1439  0.0639
 2539TIP3    H129252   4.262   0.424   0.144  1.4073 -0.8977  1.0771
 2539TIP3    H229253   4.172   0.354   0.243 -0.3982 -0.0531  0.0967
 2540TIP3   OH229254   5.330   3.728   0.292  0.1684 -0.3924  0.1043
 2540TIP3    H129255   5.375   3.781   0.357 -0.3069 -2.8302  2.5906
 2540TIP3    H229256   5.241   3.763   0.291  0.1795 -0.3284  0.7770
 2541TIP3   OH229257   3.127   5.792   7.574  0.1927  0.0131 -0.6564
 2541TIP3    H129258   3.151   5.716   7.520  0.2798  0.0345 -0.6465
 2541TIP3    H229259   3.034   5.778   7.593 -0.2626  0.8038 -2.1376
 2542TIP3   OH229260   1.618   6.790   1.362  0.4341  0.5722  0.3944
 2542TIP3    H129261   1.604   6.700   1.392 -0.5799  0.8953  0.9379
 2542TIP3    H229262   1.697   6.818   1.409  1.0089 -0.1614 -0.1037
 2543TIP3   OH229263   3.073   2.009   7.030 -0.0504 -0.3902 -0.1519
 2543TIP3    H129264   3.019   2.055   6.966 -0.3620  1.3557  1.2576
 2543TIP3    H229265   3.158   2.000   6.988 -0.6052 -0.4751 -1.2904
 2544TIP3   OH229266   4.217   3.812   7.899 -0.4791  0.4050  0.2688
 2544TIP3    H129267   4.283   3.842   7.962  0.3294  0.4924 -0.6111
 2544TIP3    H229268   4.266   3.761   7.835 -1.0655  1.5775 -1.1528
 2545TIP3   OH229269   5.839   1.810   1.676 -0.1832  0.6234  0.3423
 2545TIP3    H129270   5.850   1.795   1.583  0.5657 -0.9142  0.6469
 2545TIP3    H229271   5.924   1.840   1.706  1.0415 -3.2377  1.2507
 2546TIP3   OH229272   2.531   1.454   6.327  0.3850  0.9780 -0.6541
 2546TIP3    H129273   2.444   1.491   6.323  0.1581  0.6235  0.6471
 2546TIP3    H229274   2.589   1.525   6.300 -0.3048  1.1177 -1.8531
 2547TIP3   OH229275   1.621   2.493   6.995  0.3328  0.3140 -0.5712
 2547TIP3    H129276   1.705   2.539   6.994 -0.8572  2.6857  0.7235
 2547TIP3    H229277   1.588   2.501   6.906 -0.1942  2.7930 -0.2244
 2548TIP3   OH229278   0.732   6.206   2.243 -0.1772 -0.4457  0.5173
 2548TIP3    H129279   0.709   6.203   2.150  0.5956  1.1861  0.2340
 2548TIP3    H229280   0.665   6.153   2.286 -2.4819  1.3874 -0.5954
 2549TIP3   OH229281   6.027   4.958   7.282  0.1323  0.4717  0.1608
 2549TIP3    H129282   6.034   5.041   7.329  1.4277  1.0707 -1.0154
 2549TIP3    H229283   5.946   4.967   7.231 -0.1175  0.7077  0.5919
 2550TIP3   OH229284   3.066   1.645   0.886  0.0860 -0.3107 -0.4328
 2550TIP3    H129285   2.992   1.699   0.856 -0.5294 -1.4534 -1.0643
 2550TIP3    H229286   3.135   1.708   0.908 -0.7878  0.7446 -0.6305
 2551TIP3   OH229287   4.310   4.551   0.128  0.3908  0.3842 -0.3644
 2551TIP3    H129288   4.382   4.614   0.139  1.3898 -0.7594 -0.0425
 2551TIP3    H229289   4.257   4.562   0.206  0.8737  0.4566 -0.0385
 2552TIP3   OH229290   1.193   5.023   2.112  0.1921 -0.2692 -0.1511
 2552TIP3    H129291   1.185   4.929   2.122  1.8326 -0.5376 -1.0190
 2552TIP3    H229292   1.154   5.059   2.192 -3.7275 -1.4489 -1.3224
 2553TIP3   OH229293   3.400   1.197   2.523  0.4733  0.8493  0.3218
 2553TIP3    H129294   3.428   1.116   2.565 -1.7709 -0.6195 -0.8157
 2553TIP3    H229295   3.445   1.198   2.438 -2.5721 -1.5727 -1.5604
 2554TIP3   OH229296   1.891   4.460   8.646  0.0985 -0.1651  0.2836
 2554TIP3    H129297   1.937   4.426   8.569  0.5904  0.0343  0.4812
 2554TIP3    H229298   1.799   4.464   8.620  0.4043  1.0393 -0.7115
 2555TIP3   OH229299   0.016   2.088   1.321 -0.6580 -0.3734 -0.1057
 2555TIP3    H129300   0.108   2.093   1.346 -0.7413  2.2828 -0.1037
 2555TIP3    H229301  -0.032   2.115   1.399 -1.3419 -0.1203 -0.6003
 2556TIP3   OH229302   0.868   6.149   1.341 -0.4889 -0.7606  0.6968
 2556TIP3    H129303   0.873   6.061   1.377 -0.0455 -0.1626  2.1807
 2556TIP3    H229304   0.959   6.180   1.338 -0.8143  1.1561  4.3356
 2557TIP3   OH229305   1.597   2.277   0.683 -0.3005  0.3302 -0.0824
 2557TIP3    H129306   1.632   2.246   0.767 -0.0600 -0.1809 -0.3614
 2557TIP3    H229307   1.653   2.350   0.659  0.3225 -0.2132 -0.3177
 2558TIP3   OH229308   4.287   0.315   7.647 -0.0997 -0.3056 -0.0262
 2558TIP3    H129309   4.359   0.332   7.586 -1.2090  1.8643 -0.8412
 2558TIP3    H229310   4.281   0.219   7.650  1.7620 -0.5186 -1.1622
 2559TIP3   OH229311   5.175   6.727   2.351 -0.6281 -0.0244 -0.1036
 2559TIP3    H129312   5.224   6.722   2.433 -1.9408 -0.2143  0.6905
 2559TIP3    H229313   5.131   6.642   2.344  2.8296 -1.8562 -3.2442
 2560TIP3   OH229314   4.206   0.474   6.987  0.1823 -0.3279  0.0091
 2560TIP3    H129315   4.295   0.481   6.951 -0.1037 -1.1770 -0.8954
 2560TIP3    H229316   4.167   0.400   6.941 -0.8416 -0.2673  0.7486
 2561TIP3   OH229317   6.512   5.852   0.333 -0.2960  0.3105 -0.3419
 2561TIP3    H129318   6.462   5.867   0.414 -1.0871  0.8756 -0.9178
 2561TIP3    H229319   6.526   5.758   0.330  0.3488  0.3524  0.8055
 2562TIP3   OH229320   6.751   0.055   0.060  0.7417 -0.5567  0.2881
 2562TIP3    H129321   6.785  -0.016   0.005  1.2051  1.3002 -2.0059
 2562TIP3    H229322   6.677   0.016   0.107  1.4909 -2.7504 -0.2432
 2563TIP3   OH229323   5.181   3.205   2.991 -0.4430  0.2262 -0.3619
 2563TIP3    H129324   5.273   3.185   2.972 -0.5460 -0.5498 -0.1015
 2563TIP3    H229325   5.182   3.294   3.025  0.3449 -0.1391  0.6045
 2564TIP3   OH229326   3.483   5.090   1.361 -0.0671 -0.1240 -0.0443
 2564TIP3    H129327   3.559   5.121   1.410 -0.3825  0.9085 -0.2007
 2564TIP3    H229328   3.490   5.132   1.275 -2.4133  2.4875  0.9147
 2565TIP3   OH229329   6.043   6.349   1.846  0.1463  0.1636 -0.1798
 2565TIP3    H129330   6.133   6.372   1.822  0.4944 -1.1289 -0.1815
 2565TIP3    H229331   6.019   6.414   1.913  1.6390 -0.3979  0.9520
 2566TIP3   OH229332   5.302   2.126   2.028  0.3914 -0.1909 -0.1407
 2566TIP3    H129333   5.386   2.115   2.073  0.5098  1.4267  0.0992
 2566TIP3    H229334   5.252   2.184   2.085 -0.1022  0.5194 -1.2600
 2567TIP3   OH229335   6.621   4.984   7.050 -0.0884 -0.0936 -0.3403
 2567TIP3    H129336   6.657   4.948   6.969  2.4841  0.3392  0.5227
 2567TIP3    H229337   6.567   5.058   7.022  1.4654  0.5995 -1.6149
 2568TIP3   OH229338   2.094   3.596   0.130 -0.5628 -0.0364  0.4579
 2568TIP3    H129339   2.018   3.546   0.101  0.0394 -1.1312  0.7431
 2568TIP3    H229340   2.162   3.531   0.144  1.0146  1.0827 -1.5356
 2569TIP3   OH229341   5.919   0.398   0.043 -0.3260 -0.3775 -0.2400
 2569TIP3    H129342   5.866   0.375   0.119 -1.9211  0.8959 -0.8949
 2569TIP3    H229343   5.959   0.482   0.066 -1.2812  0.3058 -0.9884
 2570TIP3   OH229344   4.694   2.328   3.358  0.5334  0.3935  0.4589
 2570TIP3    H129345   4.732   2.341   3.271 -0.2010 -2.0298 -0.2886
 2570TIP3    H229346   4.650   2.411   3.377  1.4006  1.2582 -1.0969
 2571TIP3   OH229347   3.549   2.709   1.946  0.3798  0.1976  0.3319
 2571TIP3    H129348   3.461   2.680   1.922  0.9803 -2.7847  1.2751
 2571TIP3    H229349   3.535   2.771   2.018 -0.9766  1.6602 -1.1065
 2572TIP3   OH229350   4.452   2.136   8.198  0.7893  0.4763  0.4012
 2572TIP3    H129351   4.434   2.108   8.108  0.3129  0.1394  0.5974
 2572TIP3    H229352   4.522   2.077   8.227 -0.4224 -0.7656  0.9177
 2573TIP3   OH229353   3.767   4.586   0.242 -0.1088  0.0599  0.5581
 2573TIP3    H129354   3.770   4.614   0.333 -0.5600  0.5969  0.4136
 2573TIP3    H229355   3.778   4.666   0.191 -1.0341 -0.0621  0.1380
 2574TIP3   OH229356   4.043   1.321   2.514 -0.4344  0.1017 -0.1754
 2574TIP3    H129357   3.959   1.335   2.557  0.0591 -0.5825  1.0465
 2574TIP3    H229358   4.105   1.375   2.564  0.1386 -0.6564 -0.0540
 2575TIP3   OH229359   6.522   2.317   0.165 -0.4469 -0.4076  0.2040
 2575TIP3    H129360   6.523   2.337   0.071 -2.0658 -0.0393  0.2203
 2575TIP3    H229361   6.470   2.388   0.203 -0.1307 -0.7636  1.3324
 2576TIP3   OH229362   1.884   0.102   7.544 -0.0089  0.3222 -0.4157
 2576TIP3    H129363   1.814   0.076   7.483  0.0653 -3.0579  0.7362
 2576TIP3    H229364   1.843   0.169   7.598 -2.4281 -1.4200  0.1183
 2577TIP3   OH229365   1.351   2.310   1.272 -0.3771  0.4213 -0.1907
 2577TIP3    H129366   1.445   2.326   1.264 -0.5201  0.6998 -1.4973
 2577TIP3    H229367   1.338   2.223   1.235 -0.7013  0.5626 -0.4103
 2578TIP3   OH229368   4.890   0.556   8.594 -0.2399 -0.2304 -0.3077
 2578TIP3    H129369   4.937   0.554   8.678  1.5661 -0.8922 -1.2754
 2578TIP3    H229370   4.798   0.564   8.618  0.3971  3.5707  1.6821
 2579TIP3   OH229371   6.501   4.440   8.488 -0.4345 -0.0916  0.2765
 2579TIP3    H129372   6.520   4.530   8.516 -1.9513 -0.0178  1.1975
 2579TIP3    H229373   6.440   4.451   8.415  0.4063 -0.3638 -0.4765
 2580TIP3   OH229374   6.526   4.737   3.131  0.5421  0.3965 -0.3241
 2580TIP3    H129375   6.453   4.761   3.188  0.5740 -0.1063 -0.0694
 2580TIP3    H229376   6.583   4.814   3.131  0.9637  0.1103  0.9984
 2581TIP3   OH229377   0.418   2.566   2.712 -0.5656 -0.7948  0.0490
 2581TIP3    H129378   0.498   2.532   2.672  0.2503 -2.1917  2.6121
 2581TIP3    H229379   0.445   2.650   2.749 -0.8031 -0.4081 -0.6386
 2582TIP3   OH229380   6.088   2.305   7.591  0.0340  0.2657 -0.1862
 2582TIP3    H129381   6.093   2.370   7.521  1.3310 -0.5339 -0.8685
 2582TIP3    H229382   6.052   2.353   7.666 -1.2902  1.1598 -1.3510
 2583TIP3   OH229383   1.774   1.463   6.813  0.1612 -0.6705  0.0899
 2583TIP3    H129384   1.860   1.470   6.856  0.3001  0.3117 -0.3266
 2583TIP3    H229385   1.722   1.534   6.850  0.2994  0.2303 -1.3673
 2584TIP3   OH229386   6.191   4.249   0.347  0.1485  0.0836  0.7918
 2584TIP3    H129387   6.202   4.290   0.261 -0.1195  0.3197  0.8705
 2584TIP3    H229388   6.108   4.284   0.380 -0.4885 -1.1065  0.5263
 2585TIP3   OH229389   1.860   2.348   0.055  0.3950 -0.0887  0.2929
 2585TIP3    H129390   1.792   2.404   0.092  0.3897 -0.2132  0.4708
 2585TIP3    H229391   1.877   2.283   0.123  0.3018 -0.3896  0.0272
 2586TIP3   OH229392   2.432   1.476   8.001 -0.2725 -0.0809  0.2802
 2586TIP3    H129393   2.370   1.477   7.928  0.6526 -0.6840 -0.5424
 2586TIP3    H229394   2.509   1.523   7.968  0.7890 -1.7362  0.2441
 2587TIP3   OH229395   5.995   3.135   2.059  0.2939  0.8285 -0.3677
 2587TIP3    H129396   5.970   3.219   2.021 -2.0234  0.1065 -0.6155
 2587TIP3    H229397   6.004   3.077   1.984 -1.7798  0.0118 -0.0513
 2588TIP3   OH229398   4.921   3.903   8.237 -0.3182  0.4777 -0.0011
 2588TIP3    H129399   4.877   3.853   8.306  1.8478  1.7253  2.4728
 2588TIP3    H229400   4.989   3.844   8.204  0.2956  0.7190  0.7940
 2589TIP3   OH229401   4.650   1.321   3.374  0.0862  1.0548  0.9135
 2589TIP3    H129402   4.682   1.408   3.397  0.8031  0.8151  0.8680
 2589TIP3    H229403   4.704   1.295   3.299 -1.3649  1.3129 -0.2622
 2590TIP3   OH229404   4.822   2.518   7.483 -0.4122  0.2365  0.0738
 2590TIP3    H129405   4.839   2.573   7.560 -0.4939  0.8278 -0.3273
 2590TIP3    H229406   4.792   2.579   7.416  0.3304 -0.1866 -0.6510
 2591TIP3   OH229407   1.493   6.189   0.349 -0.5838  0.2522  0.3278
 2591TIP3    H129408   1.572   6.177   0.402 -1.2586 -0.6281  1.1871
 2591TIP3    H229409   1.504   6.130   0.275 -0.1845  0.5621  0.1373
 2592TIP3   OH229410   1.259   2.867   8.376  0.2336 -0.2133 -0.4201
 2592TIP3    H129411   1.237   2.810   8.302  0.7474  1.3946 -1.8772
 2592TIP3    H229412   1.226   2.820   8.453 -2.0115 -1.1074 -1.8144
 2593TIP3   OH229413   5.054   4.092   0.461  0.1109 -0.1398  0.5640
 2593TIP3    H129414   5.080   4.165   0.404 -1.4718  0.1413  0.1623
 2593TIP3    H229415   5.065   4.126   0.550 -1.1487  0.8191  0.3811
 2594TIP3   OH229416   6.669   5.691   8.425 -0.0028 -0.4050 -0.5277
 2594TIP3    H129417   6.594   5.654   8.378 -0.0937 -0.9798  0.0521
 2594TIP3    H229418   6.635   5.771   8.465 -0.3326 -0.7195 -0.1798
 2595TIP3   OH229419   3.384   1.718   7.373 -0.5261  0.1084  0.2084
 2595TIP3    H129420   3.308   1.688   7.422 -0.2818 -0.5422  0.1917
 2595TIP3    H229421   3.449   1.742   7.439 -0.6112  0.3128  0.2180
 2596TIP3   OH229422   4.849   0.613   3.088 -0.1185 -1.0557  0.3509
 2596TIP3    H129423   4.802   0.644   3.011 -1.1248  0.6028  1.5638
 2596TIP3    H229424   4.841   0.518   3.084 -2.7585 -0.8910 -0.0386
 2597TIP3   OH229425   1.351   5.607   8.349 -0.4390 -0.0823 -0.3359
 2597TIP3    H129426   1.347   5.561   8.433  1.6410  0.7053  0.2550
 2597TIP3    H229427   1.342   5.700   8.372 -0.5917  0.0947 -1.0767
 2598TIP3   OH229428   4.337   1.367   1.209  0.0892 -0.5262 -0.0631
 2598TIP3    H129429   4.410   1.398   1.155  1.5476 -2.3199  0.7705
 2598TIP3    H229430   4.360   1.277   1.231 -1.3890 -0.4718  1.9636
 2599TIP3   OH229431   2.498   0.221   7.241  0.6972 -0.4354 -0.1585
 2599TIP3    H129432   2.451   0.184   7.166 -0.6837  0.9261 -0.0218
 2599TIP3    H229433   2.564   0.278   7.203  1.2376 -1.1553 -0.3329
 2600TIP3   OH229434   4.705   2.240   8.643  0.0624  0.1693  0.8253
 2600TIP3    H129435   4.619   2.229   8.603  0.0204 -1.0648  1.1894
 2600TIP3    H229436   4.698   2.193   8.726  1.6382 -1.6393  0.0198
 2601TIP3   OH229437   3.033   1.584   7.640  0.2621  0.1871 -0.0360
 2601TIP3    H129438   3.045   1.504   7.690  0.3961  0.9168  1.1362
 2601TIP3    H229439   2.947   1.573   7.599  0.5610 -0.8229 -0.4255
 2602TIP3   OH229440   4.694   6.254   0.176  0.2070  0.0627 -0.4330
 2602TIP3    H129441   4.753   6.259   0.101 -0.0313 -0.7208 -0.6812
 2602TIP3    H229442   4.639   6.177   0.159 -0.5018  0.4396  0.0698
 2603TIP3   OH229443   4.793   0.813   8.198  0.2960 -0.2522 -0.3091
 2603TIP3    H129444   4.831   0.823   8.111  1.1747  2.7760  0.3242
 2603TIP3    H229445   4.741   0.893   8.211 -0.6345 -1.0914  1.5802
 2604TIP3   OH229446   1.262   3.721   7.720 -0.1549  0.1974 -0.1212
 2604TIP3    H129447   1.202   3.715   7.645  0.3234  0.9239 -0.5655
 2604TIP3    H229448   1.250   3.638   7.766 -0.4283 -0.2740 -1.0195
 2605TIP3   OH229449   6.800   5.682   0.684 -0.6988  0.3387 -0.1788
 2605TIP3    H129450   6.719   5.702   0.638 -2.4507  0.6789  2.7558
 2605TIP3    H229451   6.785   5.596   0.723  0.2502  0.4986  0.5956
 2606TIP3   OH229452   0.217   2.457   1.179  0.4154  0.6886 -0.0394
 2606TIP3    H129453   0.160   2.412   1.117 -0.5770  1.4081  0.3363
 2606TIP3    H229454   0.180   2.437   1.265 -0.7055  3.0650  0.0934
 2607TIP3   OH229455   0.254   1.956   8.002  0.1702 -0.5665 -0.1294
 2607TIP3    H129456   0.190   1.939   8.072 -0.6982 -0.2765 -0.8267
 2607TIP3    H229457   0.200   1.978   7.926  1.1305  2.2995 -0.0995
 2608TIP3   OH229458   4.848   6.156   1.060  0.2043  0.2454 -0.6279
 2608TIP3    H129459   4.767   6.151   1.110 -0.0082 -0.6635 -1.0375
 2608TIP3    H229460   4.894   6.231   1.096  0.0577 -0.3802  0.9449
 2609TIP3   OH229461   3.035   2.324   8.372  0.0693  0.5850 -0.0824
 2609TIP3    H129462   2.952   2.373   8.376 -0.1808  0.1256  0.7759
 2609TIP3    H229463   3.089   2.373   8.311 -0.8862  0.8203 -0.7610
 2610TIP3   OH229464   2.756   6.289   2.148  0.2539  0.2876  0.2170
 2610TIP3    H129465   2.804   6.331   2.077 -2.1696 -2.0911 -3.1711
 2610TIP3    H229466   2.677   6.343   2.159  0.2481  0.2117  0.5663
 2611TIP3   OH229467   6.839   5.223   8.387 -0.8543  0.3959 -0.0274
 2611TIP3    H129468   6.885   5.305   8.367  0.2722  0.6457  2.9086
 2611TIP3    H229469   6.879   5.158   8.329  0.7281  1.3175 -0.0392
 2612TIP3   OH229470   5.762   5.062   8.629  0.3477 -0.3106 -0.0383
 2612TIP3    H129471   5.710   5.123   8.576 -4.2001 -1.3317  2.6923
 2612TIP3    H229472   5.787   5.112   8.706  2.4239 -0.2148 -0.7294
 2613TIP3   OH229473   6.178   5.761   0.463  0.3685  0.4235  0.0297
 2613TIP3    H129474   6.139   5.820   0.399  2.1828  0.8864 -0.7099
 2613TIP3    H229475   6.251   5.811   0.500  1.1823 -0.9051  0.2858
 2614TIP3   OH229476   3.443   6.336   8.282 -0.0804  0.1838  0.7391
 2614TIP3    H129477   3.402   6.420   8.303 -2.2974 -0.0175 -2.1355
 2614TIP3    H229478   3.502   6.355   8.209  2.0013 -0.2614  2.2328
 2615TIP3   OH229479   4.186   5.823   1.568 -0.5200 -0.0458 -0.2413
 2615TIP3    H129480   4.180   5.768   1.647  1.3816  0.0600  0.0178
 2615TIP3    H229481   4.114   5.792   1.512 -0.3645 -1.8466  0.4877
 2616TIP3   OH229482   4.506   1.144   2.631 -0.3984  0.2381 -0.0026
 2616TIP3    H129483   4.543   1.177   2.714 -0.4936  0.4087 -0.0273
 2616TIP3    H229484   4.431   1.201   2.614 -0.5676  0.0005 -0.0445
 2617TIP3   OH229485   3.336   1.688   0.145  0.1011  0.3295  0.3912
 2617TIP3    H129486   3.274   1.728   0.084  0.3269  1.9915  1.1938
 2617TIP3    H229487   3.308   1.596   0.151 -0.4536  0.3201 -1.5095
 2618TIP3   OH229488   3.763   1.837   0.012 -0.2188 -0.4622 -0.3031
 2618TIP3    H129489   3.803   1.762  -0.032 -0.6664 -0.1723 -1.2253
 2618TIP3    H229490   3.700   1.799   0.072  0.2604 -0.8605 -0.0472
 2619TIP3   OH229491   5.331   2.424   8.339  0.2318 -0.1606 -0.2389
 2619TIP3    H129492   5.382   2.343   8.334  0.8960  0.0478  2.0839
 2619TIP3    H229493   5.395   2.491   8.365 -0.8154  0.5515  0.5500
 2620TIP3   OH229494   3.139   1.725   2.414  0.3191  0.8135  0.4169
 2620TIP3    H129495   3.101   1.637   2.418 -0.2015  1.0458  0.5887
 2620TIP3    H229496   3.103   1.770   2.490 -1.9587  2.2001 -1.3602
 2621TIP3   OH229497   4.101   2.858   1.679 -0.0128 -0.6556 -0.0365
 2621TIP3    H129498   4.049   2.871   1.758 -0.8764 -0.9768 -0.5287
 2621TIP3    H229499   4.165   2.791   1.702 -0.1124 -0.5822  0.4531
 2622TIP3   OH229500   6.286   0.960   1.293  0.0264  0.0998  0.4738
 2622TIP3    H129501   6.220   0.911   1.243  0.3321  1.3517 -1.2330
 2622TIP3    H229502   6.370   0.927   1.261  0.2416 -0.2341  1.3601
 2623TIP3   OH229503   6.031   1.922   8.004 -0.0429  0.0343  0.3514
 2623TIP3    H129504   6.094   1.990   7.978 -1.2179  1.1133  0.1932
 2623TIP3    H229505   5.990   1.896   7.921 -1.8118  1.4468  0.7204
 2624TIP3   OH229506   5.008   3.781   2.944  0.1828 -0.7724 -0.0519
 2624TIP3    H129507   5.028   3.835   2.867 -0.1666 -0.7402 -0.1233
 2624TIP3    H229508   4.933   3.825   2.985  1.3411  0.0954  1.1959
 2625TIP3   OH229509   5.956   1.195   8.511 -0.5841  0.0313  0.3282
 2625TIP3    H129510   6.051   1.188   8.513 -0.3191  2.4958 -0.4690
 2625TIP3    H229511   5.930   1.149   8.432 -0.0282 -0.3940  0.3919
 2626TIP3   OH229512   2.302   4.474   8.418 -0.6382  0.2949 -0.3512
 2626TIP3    H129513   2.262   4.548   8.464  2.2597  2.8729 -1.6732
 2626TIP3    H229514   2.338   4.511   8.338  2.1945 -2.2385 -0.4273
 2627TIP3   OH229515   4.899   1.252   1.109 -0.1973 -0.4658  0.3430
 2627TIP3    H129516   4.878   1.195   1.036 -1.7240 -0.0680  0.4302
 2627TIP3    H229517   4.873   1.203   1.187 -0.1102 -0.2388  0.5185
 2628TIP3   OH229518   2.605   1.552   0.264 -0.2878  0.0862  0.0516
 2628TIP3    H129519   2.607   1.458   0.246 -0.8571  0.0060  0.3918
 2628TIP3    H229520   2.668   1.590   0.202 -1.4459 -0.3052 -1.4253
 2629TIP3   OH229521   6.539   6.308   1.248 -0.7007 -0.2929  0.2083
 2629TIP3    H129522   6.455   6.352   1.261 -1.5472 -1.9495  0.7669
 2629TIP3    H229523   6.552   6.309   1.153 -1.4312 -0.1415  0.1038
 2630TIP3   OH229524   1.048   3.043   1.089 -0.4992 -0.5656  0.0869
 2630TIP3    H129525   1.039   3.015   0.998  1.7124 -0.5639 -0.1859
 2630TIP3    H229526   1.003   3.127   1.094 -0.5085 -0.4963 -1.0480
 2631TIP3   OH229527   1.564   3.465   0.934 -0.0835 -0.0215  0.1421
 2631TIP3    H129528   1.489   3.485   0.991 -1.1354  2.3164 -1.8906
 2631TIP3    H229529   1.639   3.460   0.994 -1.5978 -1.0467  2.0782
 2632TIP3   OH229530   1.471   0.031   7.682 -0.4309  0.6580 -0.2356
 2632TIP3    H129531   1.399  -0.013   7.726 -2.3456  1.7576 -2.0713
 2632TIP3    H229532   1.461   0.008   7.590  1.6391  0.7807 -0.5491
 2633TIP3   OH229533   6.564   6.441   8.264  0.6463  0.7119 -0.4193
 2633TIP3    H129534   6.537   6.517   8.315 -0.2677  0.6119 -0.7390
 2633TIP3    H229535   6.602   6.478   8.184 -1.5265  0.8544 -1.4511
 2634TIP3   OH229536   5.684   4.365   8.459 -0.6762  0.2479  0.0648
 2634TIP3    H129537   5.708   4.446   8.414 -0.3706 -0.9174 -2.0098
 2634TIP3    H229538   5.603   4.385   8.504  0.4820  2.2934  1.3912
 2635TIP3   OH229539   1.218   3.145   6.967  0.1509 -0.0039  0.1478
 2635TIP3    H129540   1.272   3.146   6.888  0.6283  1.4512  0.4490
 2635TIP3    H229541   1.134   3.109   6.939  0.6485 -0.4624 -0.7844
 2636TIP3   OH229542   5.131   0.001   1.643  0.5882  0.2368 -0.5585
 2636TIP3    H129543   5.212  -0.042   1.672  0.1667 -1.7974 -2.1393
 2636TIP3    H229544   5.063  -0.037   1.699  0.4344  0.1475 -0.8039
 2637TIP3   OH229545   1.347   4.428   1.714  0.3298 -0.5139  0.2839
 2637TIP3    H129546   1.255   4.440   1.692  0.6112  0.0145 -0.6461
 2637TIP3    H229547   1.384   4.378   1.641  1.0256  0.2749  0.0817
 2638TIP3   OH229548   2.464   6.631   0.700 -0.0897  0.2359  0.0609
 2638TIP3    H129549   2.534   6.687   0.667  1.6640 -2.1702 -0.5578
 2638TIP3    H229550   2.461   6.558   0.639 -0.8569 -1.3670  1.9291
 2639TIP3   OH229551   3.302   4.643   1.457 -0.3521 -0.5941  0.0275
 2639TIP3    H129552   3.395   4.650   1.439 -0.6186  2.8317 -0.5851
 2639TIP3    H229553   3.260   4.639   1.371 -0.8756  1.1459  0.1620
 2640TIP3   OH229554   1.633   5.071   2.345  0.1414 -0.1823  0.0499
 2640TIP3    H129555   1.595   5.067   2.257 -0.1517  0.2694  0.1522
 2640TIP3    H229556   1.698   5.001   2.346  1.3927  0.8916 -1.1152
 2641TIP3   OH229557   2.780   2.360   7.592 -0.1057 -0.8706  0.6948
 2641TIP3    H129558   2.770   2.439   7.540  0.0760 -2.1044 -1.3372
 2641TIP3    H229559   2.691   2.334   7.614 -0.3046 -1.1830 -0.4137
 2642TIP3   OH229560   0.809   2.562   7.428 -0.5973 -0.6344 -0.4555
 2642TIP3    H129561   0.878   2.592   7.369 -0.1447  0.6766  0.6939
 2642TIP3    H229562   0.797   2.470   7.405  0.0223 -0.3333 -2.1250
 2643TIP3   OH229563   1.515   5.614   7.183  0.1154 -0.1544  0.4639
 2643TIP3    H129564   1.504   5.707   7.167  1.0968 -0.1542 -0.2595
 2643TIP3    H229565   1.608   5.603   7.203  0.4224 -1.2089 -1.2711
 2644TIP3   OH229566   1.858   2.788   0.769 -0.5445 -0.1470 -1.3470
 2644TIP3    H129567   1.929   2.791   0.705  1.3702 -0.1547  0.6558
 2644TIP3    H229568   1.843   2.695   0.785 -1.8379 -0.1877 -2.5487
 2645TIP3   OH229569   3.191   5.543   1.018 -0.0038  0.6964 -0.4322
 2645TIP3    H129570   3.203   5.458   0.975 -3.6652  0.0829 -0.5506
 2645TIP3    H229571   3.139   5.593   0.956  0.3418  2.2986  0.5314
 2646TIP3   OH229572   6.497   2.992   6.545  0.3101  0.8236  0.0465
 2646TIP3    H129573   6.430   2.966   6.609  0.0197  2.5698  0.4985
 2646TIP3    H229574   6.569   3.026   6.598  1.3321 -0.4435 -0.4666
 2647TIP3   OH229575   5.966   6.796   7.797 -0.0442  0.4624  0.5681
 2647TIP3    H129576   6.056   6.829   7.803 -0.1812  0.7906  0.8114
 2647TIP3    H229577   5.930   6.807   7.885  0.2030 -1.1811  0.9203
 2648TIP3   OH229578   2.589   4.022   0.686  0.1707 -0.0102 -0.1373
 2648TIP3    H129579   2.513   3.964   0.682 -0.7407  1.2197 -1.6697
 2648TIP3    H229580   2.561   4.095   0.742  1.0319 -0.6129  1.1243
 2649TIP3   OH229581   2.594   0.880   1.089 -0.4407  0.5021 -0.1402
 2649TIP3    H129582   2.645   0.876   1.170 -1.1467 -0.3327  0.2881
 2649TIP3    H229583   2.603   0.970   1.059  1.7732  0.2350 -0.4152
 2650TIP3   OH229584   4.170   4.607   2.258  0.1535  0.0777 -0.2007
 2650TIP3    H129585   4.259   4.631   2.231 -0.0561 -0.6129 -1.5606
 2650TIP3    H229586   4.116   4.681   2.232  0.3328  0.6041  0.8416
 2651TIP3   OH229587   4.876   6.210   0.764 -0.4967  0.1833  0.2548
 2651TIP3    H129588   4.902   6.151   0.693  0.4702  1.3546 -0.4063
 2651TIP3    H229589   4.809   6.162   0.813  0.1403 -1.3790 -0.3613
 2652TIP3   OH229590   1.714   6.143   0.533 -0.1874 -0.1944 -0.1841
 2652TIP3    H129591   1.767   6.220   0.517 -0.4507  0.4649  1.8547
 2652TIP3    H229592   1.754   6.101   0.610 -0.8504 -1.3358 -0.4309
 2653TIP3   OH229593   5.932   3.545   8.220 -0.0463 -0.0916 -0.0743
 2653TIP3    H129594   5.941   3.585   8.134  0.2180 -0.9624 -0.4647
 2653TIP3    H229595   5.876   3.605   8.269  0.1164  0.5995 -0.7310
 2654TIP3   OH229596   2.220   5.168   0.833  0.5803 -0.5326 -0.5678
 2654TIP3    H129597   2.265   5.244   0.797  0.4457  0.2660  0.8552
 2654TIP3    H229598   2.284   5.127   0.891 -0.4378  0.6306  1.4965
 2655TIP3   OH229599   6.450   6.100   7.911 -0.1352 -1.2846 -0.2780
 2655TIP3    H129600   6.396   6.057   7.843  0.2300 -0.6653 -0.9768
 2655TIP3    H229601   6.466   6.188   7.876 -0.9522 -0.5305  1.1682
 2656TIP3   OH229602   0.382   0.520   0.778  0.3916  0.4550  0.1980
 2656TIP3    H129603   0.381   0.615   0.790 -1.0679  0.6367 -1.1427
 2656TIP3    H229604   0.438   0.507   0.701  0.5785  0.2097  0.3736
 2657TIP3   OH229605   2.113   1.000   0.094  0.1061 -0.0001  0.2386
 2657TIP3    H129606   2.139   0.989   0.003 -0.5710 -0.2024  0.0632
 2657TIP3    H229607   2.031   1.051   0.090 -1.8581 -2.8924  0.4899
 2658TIP3   OH229608   5.897   1.225   6.900  0.2004 -0.0760 -0.1075
 2658TIP3    H129609   5.865   1.136   6.915  1.5018 -0.4930  0.2710
 2658TIP3    H229610   5.869   1.246   6.811 -2.7227  0.3115  0.7774
 2659TIP3   OH229611   0.088   6.209   8.029 -0.6176 -0.5522 -0.1734
 2659TIP3    H129612   0.158   6.161   7.984  1.7159  1.6958  0.7712
 2659TIP3    H229613   0.102   6.190   8.122  0.8010  2.2270  0.2950
 2660TIP3   OH229614   1.338   2.802   6.639 -0.1281 -0.1327  0.1801
 2660TIP3    H129615   1.286   2.757   6.706  1.7403 -1.1489  1.0354
 2660TIP3    H229616   1.426   2.807   6.677  0.5258  1.1087 -1.3887
 2661TIP3   OH229617   3.874   5.145   1.337 -0.1979  0.1422  0.1971
 2661TIP3    H129618   3.946   5.194   1.297  1.8775 -2.5810  0.2705
 2661TIP3    H229619   3.901   5.132   1.428 -1.0513 -0.4458  0.3822
 2662TIP3   OH229620   2.074   5.499   1.005 -0.1141  0.1611  0.5449
 2662TIP3    H129621   2.105   5.441   1.075  0.5979  0.6313  0.6278
 2662TIP3    H229622   2.089   5.449   0.925  0.6745  0.2946  0.6024
 2663TIP3   OH229623   5.064   4.395   2.579  0.0162  0.0875 -0.8769
 2663TIP3    H129624   5.137   4.343   2.609 -1.1499 -1.3964 -0.4997
 2663TIP3    H229625   5.098   4.444   2.504  1.7787  0.5987  0.2013
 2664TIP3   OH229626   2.239   3.731   8.476  0.2197  0.5388  0.1841
 2664TIP3    H129627   2.172   3.779   8.429  0.9325  0.0997 -1.3524
 2664TIP3    H229628   2.284   3.797   8.528 -1.2564  0.8602  1.1099
 2665TIP3   OH229629   4.346   2.078   1.157  0.2351 -1.2865 -0.1892
 2665TIP3    H129630   4.415   2.145   1.160 -0.5396 -0.4869  0.3501
 2665TIP3    H229631   4.390   1.996   1.180  0.8751 -0.6606  0.9000
 2666TIP3   OH229632   6.307   5.097   1.386  0.3049 -0.1471 -0.4641
 2666TIP3    H129633   6.370   5.156   1.428  0.9505  0.2011 -1.8847
 2666TIP3    H229634   6.292   5.028   1.451  1.5257  0.1958  0.2082
 2667TIP3   OH229635   4.179   2.844   0.326 -0.1830 -0.0113  0.3635
 2667TIP3    H129636   4.223   2.829   0.410 -0.7935 -1.2096  0.4816
 2667TIP3    H229637   4.095   2.884   0.350 -0.8888 -1.4902  0.4271
 2668TIP3   OH229638   3.015   3.691   0.113 -0.7624  0.2543  0.1834
 2668TIP3    H129639   3.098   3.664   0.152  0.1530 -0.4016 -2.0476
 2668TIP3    H229640   3.011   3.785   0.127  2.0219  0.9174 -2.3582
 2669TIP3   OH229641   4.287   3.815   1.355 -0.0010  0.1113  0.6077
 2669TIP3    H129642   4.368   3.855   1.325 -0.3547 -0.6382 -1.5597
 2669TIP3    H229643   4.314   3.754   1.424  0.8562  1.9570  2.0013
 2670TIP3   OH229644   5.794   6.601   1.788  0.1517  0.0693  0.3077
 2670TIP3    H129645   5.807   6.687   1.749  0.1232 -0.8799 -1.9088
 2670TIP3    H229646   5.712   6.609   1.837  0.9775  1.7217  1.5244
 2671TIP3   OH229647   3.057   2.071   1.396 -0.4085 -0.8854 -0.0541
 2671TIP3    H129648   3.126   2.102   1.337  0.7513 -0.6989  1.3228
 2671TIP3    H229649   3.087   2.098   1.483 -1.1757 -2.6754  0.8153
 2672TIP3   OH229650   5.702   2.896   7.609  0.1963  0.1262 -0.2812
 2672TIP3    H129651   5.766   2.847   7.558  0.0836 -1.0271  0.6313
 2672TIP3    H229652   5.665   2.831   7.669 -1.8615  0.7280 -0.8037
 2673TIP3   OH229653   6.528   3.074   6.825 -0.1475  0.1942 -0.0351
 2673TIP3    H129654   6.501   3.148   6.879  0.8573  0.4990  0.0737
 2673TIP3    H229655   6.455   3.012   6.831 -0.7578  0.9273  0.3293
 2674TIP3   OH229656   5.010   6.623   1.600 -0.3805  0.1966 -0.2657
 2674TIP3    H129657   4.982   6.630   1.509  0.7062  0.4280 -0.5954
 2674TIP3    H229658   4.940   6.665   1.650 -0.6811  0.6509 -1.0488
 2675TIP3   OH229659   1.955   6.784   7.708 -0.5019 -0.2979 -0.0195
 2675TIP3    H129660   1.897   6.826   7.644 -0.1373  0.2261 -0.0121
 2675TIP3    H229661   1.965   6.849   7.777 -0.6316 -0.7419  0.4192
 2676TIP3   OH229662   3.766   1.633   7.829  0.1817  0.4196 -0.5494
 2676TIP3    H129663   3.803   1.545   7.830 -0.8655 -0.0433  1.2468
 2676TIP3    H229664   3.809   1.676   7.755  3.3826 -0.4659  0.6258
 2677TIP3   OH229665   3.475   5.231   7.788 -0.2445  0.2915  0.0213
 2677TIP3    H129666   3.515   5.261   7.707 -2.0505  1.4999 -0.4738
 2677TIP3    H229667   3.483   5.305   7.848 -3.7774  1.6015 -0.8686
 2678TIP3   OH229668   5.678   6.768   1.136 -0.3140 -0.6116  0.0604
 2678TIP3    H129669   5.740   6.840   1.149 -1.5782  0.2851  1.5053
 2678TIP3    H229670   5.732   6.696   1.102  0.8266  1.2415 -2.3242
 2679TIP3   OH229671   0.035   5.666   8.301  0.4244  0.5252 -0.1140
 2679TIP3    H129672   0.047   5.755   8.270  0.3403  0.6195  0.1233
 2679TIP3    H229673  -0.052   5.666   8.342  0.0695  0.1300 -0.8372
 2680TIP3   OH229674   3.158   2.508   8.189 -0.6373 -0.6345 -0.0915
 2680TIP3    H129675   3.249   2.483   8.175 -1.0673 -3.2541  1.0947
 2680TIP3    H229676   3.161   2.599   8.217  1.5172 -0.4210 -0.8763
 2681TIP3   OH229677   2.339   3.314   8.427 -0.4238 -0.3890 -0.1152
 2681TIP3    H129678   2.352   3.291   8.335 -0.2212 -1.4006  0.1482
 2681TIP3    H229679   2.386   3.396   8.438 -2.2778  0.9425 -1.4206
 2682TIP3   OH229680   1.937   3.521   1.652  0.0155  0.3054  1.1460
 2682TIP3    H129681   1.862   3.464   1.666 -0.9958  1.6335  1.2738
 2682TIP3    H229682   1.902   3.598   1.607  1.4867  0.4850  0.2051
 2683TIP3   OH229683   6.792   6.235   7.777  0.0201  0.2740 -0.0480
 2683TIP3    H129684   6.856   6.203   7.713  1.3501  1.6618  0.5298
 2683TIP3    H229685   6.822   6.200   7.861 -1.4109 -1.0860 -0.0522
 2684TIP3   OH229686   6.770   1.370   1.694  0.3538  0.3599  0.1575
 2684TIP3    H129687   6.699   1.432   1.677  1.0886  1.2787  0.3870
 2684TIP3    H229688   6.773   1.363   1.790 -0.1724 -0.5748  0.1189
 2685TIP3   OH229689   6.601   4.039   7.528  0.5185 -0.8673 -0.2602
 2685TIP3    H129690   6.571   4.093   7.456 -1.2758 -0.4098  0.7610
 2685TIP3    H229691   6.609   3.951   7.491 -0.9466 -0.7562 -0.8946
 2686TIP3   OH229692   0.125   3.393   2.745  0.0315 -0.2422  0.1203
 2686TIP3    H129693   0.155   3.311   2.784 -3.2568 -0.5856  2.3816
 2686TIP3    H229694   0.181   3.460   2.783  3.2910 -1.3131 -2.3617
 2687TIP3   OH229695   5.971   4.740   1.620  0.8545  0.2624  0.2508
 2687TIP3    H129696   6.025   4.693   1.683 -1.7046 -1.0375  1.6476
 2687TIP3    H229697   5.948   4.822   1.664  0.5118  0.1600  0.2645
 2688TIP3   OH229698   3.158   3.783   1.966 -0.1842 -0.3255 -0.2720
 2688TIP3    H129699   3.186   3.866   2.004  0.5273  0.2003 -1.8469
 2688TIP3    H229700   3.081   3.758   2.016  0.8131  0.1887  1.6239
 2689TIP3   OH229701   1.839   1.842   1.358 -0.4957 -0.1559  0.2767
 2689TIP3    H129702   1.828   1.821   1.450  2.9450  0.9718  1.0968
 2689TIP3    H229703   1.894   1.772   1.323  2.9007  2.1589  0.6087
 2690TIP3   OH229704   0.491   4.659   7.816  1.1695  0.0116  0.6310
 2690TIP3    H129705   0.509   4.738   7.766 -0.5511 -0.5735 -1.0027
 2690TIP3    H229706   0.551   4.664   7.891  2.8813  1.5860 -0.7480
 2691TIP3   OH229707   5.304   5.328   7.263  0.2756 -0.2673 -0.0766
 2691TIP3    H129708   5.332   5.238   7.279  0.0830 -0.2829  0.1811
 2691TIP3    H229709   5.254   5.323   7.182  2.0839 -0.0221 -1.2546
 2692TIP3   OH229710   4.609   2.359   8.319  0.2839  0.2655  0.0113
 2692TIP3    H129711   4.672   2.301   8.276  0.4985 -0.8552  1.7468
 2692TIP3    H229712   4.524   2.323   8.297  0.3390  0.3248 -0.3143
 2693TIP3   OH229713   3.434   2.980   0.364  0.4907  0.0619 -0.0624
 2693TIP3    H129714   3.429   3.054   0.305 -2.1185  0.2902  0.2920
 2693TIP3    H229715   3.477   3.014   0.442 -0.8069  1.3172  0.1551
 2694TIP3   OH229716   1.607   2.293   1.282 -0.0174 -0.0662 -0.4408
 2694TIP3    H129717   1.625   2.204   1.250  1.3144 -0.0587  0.2554
 2694TIP3    H229718   1.685   2.317   1.332 -0.5526  1.3347 -0.2517
 2695TIP3   OH229719   5.817   2.433   8.125  0.0788  0.3051  0.5149
 2695TIP3    H129720   5.750   2.499   8.112 -0.2834 -0.0307  0.6632
 2695TIP3    H229721   5.783   2.355   8.082 -0.4162 -0.3683  2.0515
 2696TIP3   OH229722   1.239   3.832   0.533 -0.0151  0.1503  0.1532
 2696TIP3    H129723   1.178   3.787   0.474  1.3185 -1.1215 -0.3076
 2696TIP3    H229724   1.254   3.917   0.492  0.4158 -0.4760 -1.0382
 2697TIP3   OH229725   0.983   1.438   1.929  0.4756  0.0172 -0.1030
 2697TIP3    H129726   0.984   1.356   1.978  0.0617  0.3656  0.4973
 2697TIP3    H229727   0.943   1.502   1.988  2.1125  1.0066 -0.0108
 2698TIP3   OH229728   4.045   2.865   7.832  0.3721  0.3823 -0.0754
 2698TIP3    H129729   4.080   2.793   7.885  1.0808  1.6612  1.2798
 2698TIP3    H229730   4.037   2.828   7.744  2.0118 -0.9521  0.2744
 2699TIP3   OH229731   2.741   6.121   7.020  0.4560 -0.0755 -1.0746
 2699TIP3    H129732   2.670   6.120   7.084  0.5785 -2.0901 -0.9042
 2699TIP3    H229733   2.784   6.206   7.033  1.0056 -0.7223  2.1363
 2700TIP3   OH229734   2.615   6.851   2.540  0.3887  0.3522  0.3488
 2700TIP3    H129735   2.591   6.938   2.574  2.4411  1.0433  0.1729
 2700TIP3    H229736   2.545   6.830   2.478  0.2340  2.2379 -0.1834
 2701TIP3   OH229737   4.487   1.553   1.024 -0.0201  0.2637  0.5443
 2701TIP3    H129738   4.453   1.613   1.089  0.9740  1.9647 -0.4282
 2701TIP3    H229739   4.563   1.598   0.987  0.5157 -1.4131 -0.5273
 2702TIP3   OH229740   5.467   1.008   0.474 -0.2920 -0.1751  0.4009
 2702TIP3    H129741   5.472   0.938   0.540  1.3273 -1.6310 -1.1528
 2702TIP3    H229742   5.556   1.015   0.440 -0.3568  2.8624  0.6297
 2703TIP3   OH229743   6.878   4.120   1.394  0.0834  0.3099  0.8470
 2703TIP3    H129744   6.801   4.175   1.380 -1.1716 -1.3061  1.0604
 2703TIP3    H229745   6.895   4.126   1.488 -0.8934 -0.6749  1.1098
 2704TIP3   OH229746   4.479   1.278   1.595  0.7836  0.2827 -0.0346
 2704TIP3    H129747   4.412   1.342   1.572  0.2444  0.5376  2.0224
 2704TIP3    H229748   4.491   1.226   1.516 -0.9415  1.0216 -0.8309
 2705TIP3   OH229749   0.407   6.356   7.711 -0.5396 -0.0264  0.1498
 2705TIP3    H129750   0.411   6.349   7.807  4.2697  0.2911  0.2550
 2705TIP3    H229751   0.449   6.440   7.692  0.0682 -0.8035 -2.2329
 2706TIP3   OH229752   3.111   5.287   2.099  0.0214 -0.1368 -0.0435
 2706TIP3    H129753   3.056   5.363   2.081  0.1334  0.2616  1.2063
 2706TIP3    H229754   3.113   5.238   2.017 -0.7940  0.7381 -0.5934
 2707TIP3   OH229755   5.728   1.857   2.538 -0.0336 -0.3785  0.2101
 2707TIP3    H129756   5.822   1.865   2.524  0.0836 -0.5136  0.8821
 2707TIP3    H229757   5.700   1.944   2.564  0.1008 -0.5935  1.0903
 2708TIP3   OH229758   4.130   0.566   1.576  0.5632 -0.3152  0.2760
 2708TIP3    H129759   4.137   0.602   1.665 -0.3659  1.0136 -0.1644
 2708TIP3    H229760   4.215   0.585   1.536 -0.1549  2.1893 -0.2015
 2709TIP3   OH229761   5.304   2.904   0.139  0.3611  0.3045 -0.4138
 2709TIP3    H129762   5.261   2.820   0.126 -0.4204  0.5148  0.6617
 2709TIP3    H229763   5.371   2.908   0.071 -0.6028 -0.5160 -1.4486
 2710TIP3   OH229764   4.802   6.174   8.613  0.6284  0.7253  0.1440
 2710TIP3    H129765   4.779   6.094   8.661  0.9499  0.2910 -0.4148
 2710TIP3    H229766   4.730   6.186   8.551 -0.0408  1.5692  1.0648
 2711TIP3   OH229767   0.099   3.673   1.557  0.0876 -0.2057  0.2234
 2711TIP3    H129768   0.041   3.597   1.560  0.3314 -0.3757  0.7845
 2711TIP3    H229769   0.060   3.731   1.491  0.2627 -1.1030 -0.6786
 2712TIP3   OH229770   1.117   1.931   7.186  0.2785 -0.4280 -0.6915
 2712TIP3    H129771   1.028   1.919   7.221 -0.2854 -0.8305 -2.1877
 2712TIP3    H229772   1.163   1.851   7.211 -0.1408 -0.7543 -0.9476
 2713TIP3   OH229773   6.806   6.307   7.187 -0.0217 -0.3060 -0.0876
 2713TIP3    H129774   6.783   6.393   7.152 -0.3810 -0.3675 -0.0111
 2713TIP3    H229775   6.857   6.266   7.118  1.7867  0.6835  0.5964
 2714TIP3   OH229776   5.335   4.963   6.484  0.0073  0.2424  0.1190
 2714TIP3    H129777   5.298   5.005   6.407  1.4436  0.3452 -0.5425
 2714TIP3    H229778   5.305   5.017   6.558 -1.4329  0.1005 -0.3276
 2715TIP3   OH229779   2.751   6.884   8.494 -0.2943 -0.1852  0.0097
 2715TIP3    H129780   2.658   6.871   8.473 -0.8622  0.7769  1.7469
 2715TIP3    H229781   2.761   6.978   8.502  0.2777 -0.3848  2.1219
 2716TIP3   OH229782   3.412   3.198   8.218  0.5551 -0.0942  0.0467
 2716TIP3    H129783   3.359   3.119   8.229  1.3054 -0.5223  0.6582
 2716TIP3    H229784   3.408   3.216   8.124 -1.8818  0.7552  0.2441
 2717TIP3   OH229785   5.984   3.735   7.967 -0.1173  0.0853 -0.2845
 2717TIP3    H129786   6.043   3.809   7.953  1.0973 -0.9641 -0.8748
 2717TIP3    H229787   6.017   3.667   7.909  0.2302 -1.7270  1.9067
 2718TIP3   OH229788   1.240   3.549   0.797  0.5644  0.2096  0.0693
 2718TIP3    H129789   1.200   3.534   0.712  2.5763  0.6979 -1.0329
 2718TIP3    H229790   1.282   3.466   0.819  1.4414  0.5655 -0.2229
 2719TIP3   OH229791   6.321   2.242   6.946  0.2802  0.2419 -0.8427
 2719TIP3    H129792   6.289   2.236   6.856  0.2214  1.4436 -0.9189
 2719TIP3    H229793   6.414   2.262   6.937  0.3179  0.1629 -0.6372
 2720TIP3   OH229794   1.389   3.519   1.148  0.4914  0.5088  0.8927
 2720TIP3    H129795   1.315   3.580   1.148  0.3886  0.3873  0.8097
 2720TIP3    H229796   1.353   3.438   1.186  0.2871  0.1084 -0.1186
 2721TIP3   OH229797   5.585   2.485   7.645 -0.0431  0.5356  0.2016
 2721TIP3    H129798   5.530   2.407   7.646 -0.4569  0.8027 -0.7138
 2721TIP3    H229799   5.653   2.466   7.580  1.3568 -0.0342  1.7360
 2722TIP3   OH229800   1.682   3.061   1.953 -0.1363 -0.0741  0.4246
 2722TIP3    H129801   1.692   2.991   1.889 -0.1007  0.7011 -0.4497
 2722TIP3    H229802   1.588   3.078   1.956  0.0080  1.1481 -0.8608
 2723TIP3   OH229803   3.290   6.049   8.320 -0.6955  0.6344  0.4953
 2723TIP3    H129804   3.331   6.091   8.396 -0.9384  0.7326  0.5746
 2723TIP3    H229805   3.209   6.098   8.307  0.0523  1.5912 -0.7603
 2724TIP3   OH229806   3.264   3.409   1.562  0.9384 -0.5899  0.0962
 2724TIP3    H129807   3.267   3.469   1.637  1.3404 -1.1022  0.5043
 2724TIP3    H229808   3.326   3.340   1.585  1.2423 -0.6386 -0.8179
 2725TIP3   OH229809   1.878   2.078   1.836 -0.5923  0.2084  0.1343
 2725TIP3    H129810   1.930   2.007   1.798  2.4895  2.2580  0.1541
 2725TIP3    H229811   1.895   2.073   1.930 -0.3819  0.9226  0.1384
 2726TIP3   OH229812   4.752   2.811   0.245 -0.4706  0.0037 -0.6376
 2726TIP3    H129813   4.699   2.810   0.325 -1.0179  1.0708 -0.9780
 2726TIP3    H229814   4.719   2.738   0.194 -0.8634 -0.0099 -0.3678
 2727TIP3   OH229815   3.418   6.010   7.876  0.1774  0.2272 -0.3959
 2727TIP3    H129816   3.504   6.051   7.866 -0.7201  2.0989 -0.9060
 2727TIP3    H229817   3.371   6.066   7.937 -0.9043 -0.3950 -0.6296
 2728TIP3   OH229818   3.777   3.327   6.831 -0.1380  0.2610 -0.0279
 2728TIP3    H129819   3.742   3.368   6.910  0.5874 -0.8382  0.8823
 2728TIP3    H229820   3.762   3.233   6.844 -1.4861  0.1413 -1.9292
 2729TIP3   OH229821   4.219   5.263   8.594  0.4188 -0.3575  0.2342
 2729TIP3    H129822   4.124   5.272   8.586  0.6493  0.5149 -2.2993
 2729TIP3    H229823   4.236   5.169   8.583 -0.0097 -0.2306 -1.7651
 2730TIP3   OH229824   4.562   4.992   1.204  0.5127  0.4795  0.2414
 2730TIP3    H129825   4.610   5.039   1.136  0.5945  2.6686  1.7432
 2730TIP3    H229826   4.551   4.904   1.168  3.4682  0.5697 -1.1949
 2731TIP3   OH229827   6.139   2.181   1.613  0.2283  0.1307 -0.0451
 2731TIP3    H129828   6.123   2.124   1.537 -0.8719  0.8989 -0.4206
 2731TIP3    H229829   6.130   2.270   1.579  1.6843  0.5425  0.5882
 2732TIP3   OH229830   6.282   2.525   1.154 -0.3685 -0.5763  0.3515
 2732TIP3    H129831   6.354   2.469   1.182  0.8226  0.6691 -0.1514
 2732TIP3    H229832   6.270   2.504   1.061  2.0107  1.9377 -0.6379
 2733TIP3   OH229833   1.477   0.310   7.180 -0.1153 -0.3012  0.3408
 2733TIP3    H129834   1.453   0.258   7.103 -2.8096  3.1274 -1.4045
 2733TIP3    H229835   1.532   0.380   7.145 -1.1151  1.1447  1.5522
 2734TIP3   OH229836   6.314   1.752   1.127 -0.6847  0.1420  0.5848
 2734TIP3    H129837   6.267   1.684   1.175 -1.2408 -0.4957 -0.8136
 2734TIP3    H229838   6.304   1.728   1.035  2.8920 -0.3832  0.1876
 2735TIP3   OH229839   1.518   5.364   2.212  0.0450  0.4853  0.3382
 2735TIP3    H129840   1.459   5.437   2.229 -1.1708 -0.5155  0.6136
 2735TIP3    H229841   1.558   5.344   2.297  0.0926  0.5946  0.3411
 2736TIP3   OH229842   5.791   2.426   7.483 -0.3342 -0.2977 -0.1170
 2736TIP3    H129843   5.770   2.350   7.429 -0.8302  0.5464 -1.1722
 2736TIP3    H229844   5.886   2.424   7.491 -0.3803 -1.3104  0.3295
 2737TIP3   OH229845   5.043   6.708   8.414 -0.6563  0.1935 -0.1152
 2737TIP3    H129846   5.138   6.701   8.402 -0.8577 -1.2638 -1.1675
 2737TIP3    H229847   5.029   6.683   8.505 -0.0645  0.1636 -0.0242
 2738TIP3   OH229848   4.557   6.075   7.305  0.1215 -0.4685  0.0255
 2738TIP3    H129849   4.462   6.083   7.305  0.2208  1.0919  0.1559
 2738TIP3    H229850   4.588   6.158   7.269  1.4194 -1.9057 -2.4284
 2739TIP3   OH229851   5.271   5.469   0.437  0.0888  0.5450  0.2004
 2739TIP3    H129852   5.192   5.482   0.489 -0.6535  2.0899 -1.2216
 2739TIP3    H229853   5.315   5.394   0.477 -3.3087 -1.9818 -0.3908
 2740TIP3   OH229854   6.869   3.652   2.681 -0.0840 -0.1411 -0.4017
 2740TIP3    H129855   6.792   3.703   2.708  1.1114  1.9037 -0.6344
 2740TIP3    H229856   6.939   3.683   2.739  1.1640  0.0169 -1.9447
 2741TIP3   OH229857   6.368   5.045   7.716  0.0306 -0.3336  0.5666
 2741TIP3    H129858   6.426   4.988   7.666  1.4094  0.6561  0.9775
 2741TIP3    H229859   6.284   5.043   7.668  1.7122  1.9452 -2.9030
 2742TIP3   OH229860   2.992   4.367   0.633 -0.5821  0.1475  0.2795
 2742TIP3    H129861   2.931   4.294   0.648  0.1337 -1.0679 -2.1246
 2742TIP3    H229862   2.937   4.437   0.597 -0.7032 -0.8204 -1.5574
 2743TIP3   OH229863   2.233   4.724   1.366  0.3444 -0.1063  0.6471
 2743TIP3    H129864   2.148   4.699   1.402  0.5571 -0.3176  1.0133
 2743TIP3    H229865   2.260   4.649   1.313  0.9497 -0.6536  1.6877
 2744TIP3   OH229866   2.671   6.435   7.720  0.1777  0.2742  0.2224
 2744TIP3    H129867   2.660   6.476   7.805  0.4211 -0.6006  0.6929
 2744TIP3    H229868   2.623   6.491   7.659 -0.1623  0.7988  0.9626
 2745TIP3   OH229869   4.920   1.865   2.768  0.6074  0.2050  0.1103
 2745TIP3    H129870   4.875   1.948   2.749  2.8988  1.6126  0.5403
 2745TIP3    H229871   4.893   1.843   2.857  2.7218  2.4801  1.4261
 2746TIP3   OH229872   4.889   1.404   7.633  0.1846  0.1305  0.2509
 2746TIP3    H129873   4.971   1.355   7.638  0.8386  1.1491 -0.0863
 2746TIP3    H229874   4.915   1.491   7.603 -0.8914  0.8145  1.2122
 2747TIP3   OH229875   2.256   2.294   1.430  0.1382 -0.2935 -0.2653
 2747TIP3    H129876   2.228   2.218   1.480  0.0243 -0.5878 -0.7732
 2747TIP3    H229877   2.310   2.258   1.360 -0.8919 -0.0078 -1.2114
 2748TIP3   OH229878   6.224   3.770   0.745  0.0830 -0.0370  0.2028
 2748TIP3    H129879   6.210   3.798   0.654 -0.8755 -0.1290  0.3174
 2748TIP3    H229880   6.204   3.676   0.744  0.4051 -0.1090  0.4418
 2749TIP3   OH229881   1.112   5.867   1.353  0.2470 -0.0020  0.3595
 2749TIP3    H129882   1.017   5.852   1.362  0.0168  2.0794  2.8594
 2749TIP3    H229883   1.120   5.929   1.281 -0.5360  1.0169  1.1028
 2750TIP3   OH229884   3.519   0.740   0.441  0.4627 -0.1501 -0.4684
 2750TIP3    H129885   3.452   0.719   0.506 -0.5677 -0.2298 -1.5314
 2750TIP3    H229886   3.557   0.823   0.471 -1.4470  0.9043 -0.8399
 2751TIP3   OH229887   0.715   2.032   7.406 -0.9273  0.2916 -0.0709
 2751TIP3    H129888   0.764   1.957   7.375 -2.0796 -0.8498  0.7704
 2751TIP3    H229889   0.636   1.995   7.446 -0.2020  1.6808  2.9897
 2752TIP3   OH229890   5.606   5.497   1.316 -0.2539 -0.3016  0.4915
 2752TIP3    H129891   5.544   5.537   1.377 -0.4452 -0.0420  0.1335
 2752TIP3    H229892   5.582   5.405   1.314  0.4859 -0.5366  1.6788
 2753TIP3   OH229893   1.741   5.549   1.197  0.2606 -0.2414  0.3893
 2753TIP3    H129894   1.789   5.612   1.143  2.3931 -0.2010  2.1972
 2753TIP3    H229895   1.806   5.484   1.223 -0.7294 -0.4700  2.5734
 2754TIP3   OH229896   3.343   1.345   8.211 -0.2750  0.4059 -0.0931
 2754TIP3    H129897   3.288   1.415   8.177  0.6429  0.6652 -1.0778
 2754TIP3    H229898   3.323   1.269   8.157  1.5127  0.9348 -1.5996
 2755TIP3   OH229899   4.099   1.700   2.952  0.1380 -0.0094  0.0089
 2755TIP3    H129900   4.153   1.780   2.956  1.5448 -0.9503  0.7043
 2755TIP3    H229901   4.162   1.631   2.932 -0.9217 -1.0838  0.3351
 2756TIP3   OH229902   3.378   1.888   1.609  0.0752 -0.3389 -0.1103
 2756TIP3    H129903   3.378   1.841   1.692 -1.1445  0.5554  0.4354
 2756TIP3    H229904   3.453   1.948   1.615  0.8765 -1.2992 -0.2934
 2757TIP3   OH229905   4.585   4.964   7.193 -0.1138 -0.5126 -0.0820
 2757TIP3    H129906   4.591   4.973   7.098 -0.6129 -1.7831 -0.2520
 2757TIP3    H229907   4.506   5.013   7.216  0.3454  0.3187 -0.2266
 2758TIP3   OH229908   0.046   6.648   2.845 -0.0550  0.3493  0.0376
 2758TIP3    H129909  -0.035   6.627   2.798 -0.1151  1.9296 -0.6081
 2758TIP3    H229910   0.109   6.582   2.814 -0.4942  0.4638 -1.1379
 2759TIP3   OH229911   4.768   1.968   0.970  0.8744  0.0526 -0.1928
 2759TIP3    H129912   4.727   1.882   0.960 -0.7827  0.8454 -0.6204
 2759TIP3    H229913   4.761   1.987   1.063  1.1654 -0.2299 -0.1110
 2760TIP3   OH229914   4.091   3.340   1.668  0.1897  0.3027 -0.1923
 2760TIP3    H129915   4.027   3.388   1.615 -0.5182 -1.0639 -0.6045
 2760TIP3    H229916   4.143   3.291   1.605 -0.0748 -0.6343  0.3068
 2761TIP3   OH229917   0.693   3.921   1.526  0.5866  0.4410 -0.1942
 2761TIP3    H129918   0.783   3.952   1.536  0.6474 -0.4347  2.6070
 2761TIP3    H229919   0.646   3.996   1.489  1.7930  2.0911  1.4449
 2762TIP3   OH229920   4.814   1.986   0.189 -0.6233 -0.5259 -0.3753
 2762TIP3    H129921   4.725   1.966   0.217 -0.4717 -0.0463  0.4734
 2762TIP3    H229922   4.864   1.908   0.213 -0.0535  0.6708  2.8326
 2763TIP3   OH229923   4.388   6.757   6.773  0.2313 -0.4082 -0.3027
 2763TIP3    H129924   4.454   6.744   6.704  2.1031  0.9202  1.1333
 2763TIP3    H229925   4.392   6.678   6.825  0.3419 -0.5428 -0.5129
 2764TIP3   OH229926   3.690   0.911   2.645  0.0172 -0.7885  0.4071
 2764TIP3    H129927   3.691   1.007   2.646  2.1664 -0.7605  0.9946
 2764TIP3    H229928   3.615   0.888   2.590 -0.6416  1.2161  0.3834
 2765TIP3   OH229929   3.475   4.149   1.859  0.2360  0.2663  0.0808
 2765TIP3    H129930   3.442   4.238   1.862 -2.0874 -0.5377  2.1205
 2765TIP3    H229931   3.537   4.148   1.786  0.7695  3.6387  0.3547
 2766TIP3   OH229932   1.318   5.850   8.538 -0.8161 -0.1048  0.1877
 2766TIP3    H129933   1.347   5.928   8.490 -0.6656  0.0011  0.4500
 2766TIP3    H229934   1.384   5.838   8.606 -0.8554 -0.4461  0.1656
 2767TIP3   OH229935   3.782   3.220   2.293 -0.0325  0.2163 -0.2201
 2767TIP3    H129936   3.863   3.204   2.340 -0.4981  0.8041  0.8178
 2767TIP3    H229937   3.725   3.147   2.317 -0.3446  0.6283  0.3139
 2768TIP3   OH229938   1.742   5.649   7.878 -0.2040  0.1655  0.4720
 2768TIP3    H129939   1.674   5.660   7.812  0.1144 -2.4536 -0.3795
 2768TIP3    H229940   1.704   5.588   7.942  0.4279  0.6741  1.3585
 2769TIP3   OH229941   1.408   5.464   1.486 -0.2582 -0.4096  0.4200
 2769TIP3    H129942   1.390   5.556   1.467 -1.2611 -0.4172  1.2457
 2769TIP3    H229943   1.422   5.425   1.400  2.2655  0.8892  0.1572
 2770TIP3   OH229944   3.635   4.560   1.367  0.3329  0.7417 -0.3621
 2770TIP3    H129945   3.719   4.578   1.325 -0.0242  0.4883 -1.2080
 2770TIP3    H229946   3.576   4.537   1.295 -0.2030 -0.0706  0.3167
 2771TIP3   OH229947   5.356   6.560   1.540  0.7065 -0.0469  0.2426
 2771TIP3    H129948   5.418   6.576   1.469  2.3831  0.7749  1.8155
 2771TIP3    H229949   5.288   6.506   1.500  2.0200 -0.3389 -1.7630
 2772TIP3   OH229950   4.339   5.445   8.435 -0.0756  0.0082  1.1895
 2772TIP3    H129951   4.297   5.377   8.488  0.3041 -0.3098  1.0888
 2772TIP3    H229952   4.269   5.478   8.378  0.2152 -1.8511 -0.3437
 2773TIP3   OH229953   6.205   5.993   7.796 -0.0298  1.4120  0.0944
 2773TIP3    H129954   6.168   6.074   7.831  0.3161  1.5439  0.1621
 2773TIP3    H229955   6.132   5.931   7.794 -0.7709  2.2798 -1.7685
 2774TIP3   OH229956   6.398   5.231   0.968  0.1385 -0.2218 -0.2027
 2774TIP3    H129957   6.437   5.161   1.022  2.4815  0.0712 -1.3838
 2774TIP3    H229958   6.328   5.188   0.920  0.2863 -1.3032  0.5151
 2775TIP3   OH229959   2.306   1.596   6.939  0.2043 -0.4175  0.6692
 2775TIP3    H129960   2.304   1.561   6.850 -0.7990  1.0099  0.0912
 2775TIP3    H229961   2.384   1.558   6.978  1.2755 -0.2456 -1.1727
 2776TIP3   OH229962   2.156   4.982   7.407 -0.3143 -0.1279 -0.6751
 2776TIP3    H129963   2.083   5.039   7.431 -0.3387 -0.5218  0.2257
 2776TIP3    H229964   2.115   4.903   7.372 -0.3024 -0.0765 -0.8062
 2777TIP3   OH229965   2.892   2.988   7.949 -0.2597  0.1815  0.5735
 2777TIP3    H129966   2.927   3.017   8.033 -0.6130  0.1892  0.7188
 2777TIP3    H229967   2.960   3.011   7.886 -0.4331  1.1323  0.7151
 2778TIP3   OH229968   6.707   4.328   1.391 -0.2257 -0.1713 -0.2732
 2778TIP3    H129969   6.624   4.323   1.344  0.7473  0.6997 -2.2090
 2778TIP3    H229970   6.760   4.389   1.340  0.8582  1.0642  2.1165
 2779TIP3   OH229971   6.703   3.124   0.637  0.0682  0.0538 -0.6832
 2779TIP3    H129972   6.635   3.066   0.673 -1.3908  2.6782  1.1124
 2779TIP3    H229973   6.674   3.144   0.548 -1.1447  0.5646 -0.1835
 2780TIP3   OH229974   1.924   5.343   8.178 -0.1149 -1.0225 -0.2914
 2780TIP3    H129975   1.924   5.345   8.082 -0.1429 -0.5342 -0.2836
 2780TIP3    H229976   1.914   5.435   8.204  0.0472 -1.1357  0.1809
 2781TIP3   OH229977   0.219   0.603   2.709 -0.1951  0.2229  0.1272
 2781TIP3    H129978   0.228   0.698   2.713 -0.9832  0.3526 -0.8438
 2781TIP3    H229979   0.164   0.581   2.785 -1.3350  0.7413 -0.5167
 2782TIP3   OH229980   2.682   1.438   2.240 -0.2601 -0.8281 -0.0401
 2782TIP3    H129981   2.628   1.391   2.178 -2.3246  1.4469 -0.1434
 2782TIP3    H229982   2.622   1.502   2.280  1.4053 -0.9205  2.9314
 2783TIP3   OH229983   4.817   6.581   7.515 -0.5541  0.2831 -0.4557
 2783TIP3    H129984   4.774   6.597   7.599  1.7524 -1.2721  1.1476
 2783TIP3    H229985   4.794   6.491   7.493  1.3061 -0.4026  0.1743
 2784TIP3   OH229986   6.787   1.637   0.681 -0.4774  0.6002  0.1480
 2784TIP3    H129987   6.870   1.655   0.726 -0.3304  2.0777 -0.6524
 2784TIP3    H229988   6.812   1.628   0.588 -1.0397 -0.3684  0.0792
 2785TIP3   OH229989   5.670   2.927   1.229 -0.5353  0.0737 -0.2850
 2785TIP3    H129990   5.622   2.951   1.308 -0.1381 -0.4820  0.1357
 2785TIP3    H229991   5.756   2.899   1.261 -0.9499 -1.8183 -0.7536
 2786TIP3   OH229992   6.621   3.923   2.269 -0.4792 -0.0698 -0.0314
 2786TIP3    H129993   6.584   4.004   2.305  1.7305 -0.3105  3.2584
 2786TIP3    H229994   6.623   3.863   2.343 -2.0001 -3.2929 -2.3341
 2787TIP3   OH229995   5.277   3.892   8.398 -0.0188 -0.1775  0.0874
 2787TIP3    H129996   5.235   3.875   8.482 -0.3936 -1.6294 -0.3551
 2787TIP3    H229997   5.209   3.874   8.333  0.7955 -0.9685 -0.5807
 2788TIP3   OH229998   4.348   1.868   2.440  0.3324  0.0238  0.0444
 2788TIP3    H129999   4.305   1.842   2.522 -1.9040  1.0112 -0.7215
 2788TIP3    H230000   4.340   1.963   2.438  0.2336  0.0063 -1.3522
 2789TIP3   OH230001   6.306   2.360   8.582  0.0224  0.6561  0.4137
 2789TIP3    H130002   6.393   2.361   8.542 -0.3643 -0.0127 -0.4732
 2789TIP3    H230003   6.261   2.287   8.540 -0.5305  0.1553  1.8196
 2790TIP3   OH230004   4.720   0.818   8.536  0.4307  0.5894  0.0801
 2790TIP3    H130005   4.735   0.805   8.630  0.6801 -0.1331 -0.0545
 2790TIP3    H230006   4.684   0.907   8.530 -1.1075  0.0811  1.0243
 2791TIP3   OH230007   4.056   3.399   2.083 -0.0750  0.4963 -0.3388
 2791TIP3    H130008   4.088   3.376   2.170  0.4628  1.3447 -0.2993
 2791TIP3    H230009   3.966   3.428   2.098  0.8712  3.3892  0.4162
 2792TIP3   OH230010   0.774   5.237   8.175  0.0386 -0.2902 -0.5224
 2792TIP3    H130011   0.824   5.202   8.248 -1.1972 -0.3203  0.3418
 2792TIP3    H230012   0.683   5.233   8.205 -0.3276  1.4740 -1.3197
 2793TIP3   OH230013   6.370   2.977   7.403  0.2850  0.0777 -0.0012
 2793TIP3    H130014   6.424   3.032   7.460  1.7697 -1.5214  0.2023
 2793TIP3    H230015   6.382   3.015   7.316  0.6259  0.5759  0.2560
 2794TIP3   OH230016   0.514   1.686   7.323 -0.4031 -0.1542 -0.0946
 2794TIP3    H130017   0.443   1.670   7.261 -1.0776 -0.9648  0.8660
 2794TIP3    H230018   0.471   1.698   7.408  0.4215  1.9916  0.1017
 2795TIP3   OH230019   3.324   6.177   8.070  0.1703  0.2915  1.0558
 2795TIP3    H130020   3.340   6.136   8.155  1.0730  0.1396  0.8231
 2795TIP3    H230021   3.262   6.247   8.089 -1.3013 -1.0575  1.4950
 2796TIP3   OH230022   0.886   1.347   1.190 -0.7099 -0.3997  0.1616
 2796TIP3    H130023   0.862   1.382   1.275 -0.2881 -1.4120  0.7097
 2796TIP3    H230024   0.842   1.405   1.127 -1.1094  0.2889  1.0549
 2797TIP3   OH230025   0.478   6.750   7.465  0.2690  0.2045 -0.2250
 2797TIP3    H130026   0.418   6.679   7.485  0.4625  0.3786  1.0298
 2797TIP3    H230027   0.487   6.748   7.369 -0.9119 -0.4767 -0.3365
 2798TIP3   OH230028   3.258   1.018   1.097 -0.0618 -0.1742 -0.2946
 2798TIP3    H130029   3.294   0.947   1.044 -0.0120 -0.4149  0.0586
 2798TIP3    H230030   3.300   1.008   1.182  0.6427  0.8325 -0.5042
 2799TIP3   OH230031   2.985   5.441   7.797  0.1267 -0.0292 -0.8031
 2799TIP3    H130032   2.901   5.424   7.753 -0.1220 -2.3547  0.4056
 2799TIP3    H230033   3.042   5.371   7.765  0.4292 -0.7731  1.2326
 2800TIP3   OH230034   6.439   0.117   0.959 -0.4059 -0.1556  0.3922
 2800TIP3    H130035   6.509   0.094   0.897 -0.4121 -1.8005  0.9538
 2800TIP3    H230036   6.365   0.064   0.931 -0.9068  0.3112  0.8311
 2801TIP3   OH230037   0.635   1.565   1.744 -0.2857 -0.3588 -0.0110
 2801TIP3    H130038   0.620   1.584   1.651 -2.5862  2.3415  0.7488
 2801TIP3    H230039   0.684   1.640   1.777  2.5444 -2.3343  0.6289
 2802TIP3   OH230040   5.921   6.701   8.593 -0.0098  0.2587  0.2470
 2802TIP3    H130041   5.852   6.687   8.658  1.5432 -0.3124  1.8422
 2802TIP3    H230042   6.003   6.695   8.642  1.2239  0.5795 -1.6385
 2803TIP3   OH230043   6.274   1.604   7.692 -0.4342 -0.3095  0.0851
 2803TIP3    H130044   6.360   1.639   7.715  0.2896 -0.0325 -2.7309
 2803TIP3    H230045   6.291   1.513   7.668 -1.5032 -1.2190  2.4475
 2804TIP3   OH230046   2.639   2.439   7.139 -0.2195 -0.0173  0.3149
 2804TIP3    H130047   2.639   2.344   7.132 -1.5685 -0.0951  1.0789
 2804TIP3    H230048   2.588   2.458   7.218 -0.9118  1.3708 -0.4234
 2805TIP3   OH230049   4.749   3.151   2.607  0.5377  0.1077  0.7300
 2805TIP3    H130050   4.660   3.151   2.643  0.3837 -0.5233  0.3663
 2805TIP3    H230051   4.790   3.073   2.646  0.5709 -0.2253  0.0440
 2806TIP3   OH230052   0.825   0.875   7.786  0.1940  0.4501  0.6010
 2806TIP3    H130053   0.792   0.917   7.865  0.5418  0.1698  0.9008
 2806TIP3    H230054   0.748   0.841   7.742 -0.0896  1.3730  0.3743
 2807TIP3   OH230055   6.438   2.909   8.392 -0.2717  0.3223 -0.0457
 2807TIP3    H130056   6.414   2.943   8.306  0.4357 -0.5002 -0.5878
 2807TIP3    H230057   6.355   2.888   8.434 -0.6020 -0.8006 -1.1739
 2808TIP3   OH230058   2.367   2.872   0.872  0.3938 -0.4127 -0.1954
 2808TIP3    H130059   2.349   2.899   0.962 -1.5529  0.0320 -0.6781
 2808TIP3    H230060   2.316   2.932   0.818  1.3982 -0.7789 -1.6133
 2809TIP3   OH230061   4.638   4.772   1.072 -0.6012 -0.2030 -0.4492
 2809TIP3    H130062   4.717   4.777   1.126 -1.4106 -0.7500  0.8115
 2809TIP3    H230063   4.665   4.808   0.987  0.6039  0.9978  0.4041
 2810TIP3   OH230064   0.646   2.667   1.127  0.2729  0.0604 -0.4273
 2810TIP3    H130065   0.680   2.700   1.210 -0.8013 -2.3334  1.0813
 2810TIP3    H230066   0.711   2.605   1.096 -0.2974 -0.6285 -0.2628
 2811TIP3   OH230067   3.436   4.962   6.983  0.4197 -0.2485  0.4912
 2811TIP3    H130068   3.394   5.047   6.991 -0.3603 -0.4821 -0.8176
 2811TIP3    H230069   3.529   4.979   6.999  0.5989  1.2356 -1.7671
 2812TIP3   OH230070   1.840   3.532   1.356  0.3941  0.3654  0.3624
 2812TIP3    H130071   1.879   3.453   1.319  2.1664  2.1575 -1.8176
 2812TIP3    H230072   1.746   3.512   1.360  0.3675 -0.7901 -3.1091
 2813TIP3   OH230073   4.407   3.870   7.170 -0.1625  0.0918  0.1098
 2813TIP3    H130074   4.393   3.965   7.166 -0.4361  0.0146 -2.1530
 2813TIP3    H230075   4.503   3.860   7.173 -0.1496  0.4172  1.7035
 2814TIP3   OH230076   2.483   1.118   7.709 -0.0080  0.0137 -0.4392
 2814TIP3    H130077   2.448   1.114   7.620 -1.3428 -0.9953  0.0819
 2814TIP3    H230078   2.406   1.133   7.764  1.0008  2.3847  0.4477
 2815TIP3   OH230079   0.697   5.083   2.095 -0.1672 -0.1725 -0.6763
 2815TIP3    H130080   0.650   5.143   2.037 -1.2194  0.2413  0.5642
 2815TIP3    H230081   0.751   5.141   2.150 -1.4372 -0.2878  0.7547
 2816TIP3   OH230082   4.392   0.049   0.872  0.3029 -0.4515  0.2575
 2816TIP3    H130083   4.392  -0.032   0.923 -1.3975 -0.4232  0.3469
 2816TIP3    H230084   4.398   0.119   0.937 -0.9043 -0.4431  0.3713
 2817TIP3   OH230085   1.159   5.364   8.286 -0.3487 -0.0866 -0.8784
 2817TIP3    H130086   1.125   5.453   8.290  0.6617  0.3362 -1.4350
 2817TIP3    H230087   1.249   5.373   8.255 -0.9071 -1.4448 -3.1790
 2818TIP3   OH230088   0.255   1.793   0.442 -0.0160  0.6323 -0.1458
 2818TIP3    H130089   0.316   1.845   0.494  1.7027 -0.4571 -0.9921
 2818TIP3    H230090   0.272   1.702   0.469 -0.7645  0.2540 -0.9132
 2819TIP3   OH230091   1.610   1.600   7.768  0.0113 -0.1264 -0.1782
 2819TIP3    H130092   1.703   1.617   7.749  0.3448 -0.5949  1.0002
 2819TIP3    H230093   1.585   1.670   7.828  0.0289 -0.8953  0.7337
 2820TIP3   OH230094   6.033   0.515   1.814  0.0714  0.1978 -0.4660
 2820TIP3    H130095   6.049   0.426   1.845 -0.6559  0.3346  0.3311
 2820TIP3    H230096   5.970   0.505   1.742 -0.9431  0.1467  0.4045
 2821TIP3   OH230097   4.809   4.316   2.354  0.0181 -0.0901 -0.3103
 2821TIP3    H130098   4.838   4.326   2.263  2.0376  0.5770  0.3500
 2821TIP3    H230099   4.838   4.228   2.379  2.7768  0.9983  0.7118
 2822TIP3   OH230100   4.581   3.188   8.383  0.1441 -0.0084  0.2399
 2822TIP3    H130101   4.592   3.103   8.425  0.6902 -0.1915 -0.2515
 2822TIP3    H230102   4.654   3.194   8.322  0.4771  1.0909  0.7160
 2823TIP3   OH230103   5.624   3.961   0.069  0.1673 -0.8553 -0.2690
 2823TIP3    H130104   5.675   4.041   0.083  0.7498 -0.5910 -3.2541
 2823TIP3    H230105   5.649   3.904   0.143  0.9108  1.1091  1.0816
 2824TIP3   OH230106   1.220   3.769   0.953  0.7312 -0.2548  0.1314
 2824TIP3    H130107   1.228   3.689   0.901 -1.8207  0.5427 -1.6385
 2824TIP3    H230108   1.189   3.738   1.038  0.6999 -1.2254 -0.2103
 2825TIP3   OH230109   4.181   1.982   7.757  0.7030 -0.3788  0.1664
 2825TIP3    H130110   4.116   2.001   7.690  0.0851 -0.3372  0.7677
 2825TIP3    H230111   4.227   2.065   7.771 -0.0093 -0.0532  0.6757
 2826TIP3   OH230112   3.875   1.726   2.386 -0.3427  0.1943  0.1232
 2826TIP3    H130113   3.930   1.755   2.313 -2.7315  0.6427 -1.6032
 2826TIP3    H230114   3.787   1.754   2.363 -1.3929 -0.7380  2.6395
 2827TIP3   OH230115   4.808   3.001   1.859 -0.2779  0.8014 -0.5974
 2827TIP3    H130116   4.797   2.979   1.766 -0.7458 -0.4350 -0.2616
 2827TIP3    H230117   4.829   2.918   1.901 -0.2140  1.3266  0.4364
 2828TIP3   OH230118   0.162   4.756   6.914  0.1268 -0.1656  0.4789
 2828TIP3    H130119   0.089   4.709   6.955 -0.9798  0.1234 -1.0521
 2828TIP3    H230120   0.124   4.841   6.890  1.7822  1.1573  2.2107
 2829TIP3   OH230121   1.755   1.011   7.634  0.1907 -0.2473 -0.5295
 2829TIP3    H130122   1.776   1.017   7.727 -1.9454 -1.0492  0.0667
 2829TIP3    H230123   1.667   1.048   7.627  0.6844  0.6574 -2.4116
 2830TIP3   OH230124   4.426   3.176   0.767 -0.1910  0.6748 -0.4160
 2830TIP3    H130125   4.380   3.248   0.724 -0.4915 -0.4635 -2.1281
 2830TIP3    H230126   4.381   3.097   0.736 -0.0142 -0.2702  1.5625
 2831TIP3   OH230127   6.778   5.358   6.924 -0.1173  0.9842 -0.7777
 2831TIP3    H130128   6.836   5.398   6.859 -0.2369 -0.7167 -2.0158
 2831TIP3    H230129   6.837   5.307   6.980 -0.3708 -1.3162 -2.4642
 2832TIP3   OH230130   2.246   3.000   2.907  0.2233  0.1334  0.1781
 2832TIP3    H130131   2.244   2.923   2.850  0.4194  0.8283 -0.7924
 2832TIP3    H230132   2.271   3.072   2.849 -1.9902  1.3361  0.6000
 2833TIP3   OH230133   0.887   0.974   7.018  0.2824 -0.3213 -0.2374
 2833TIP3    H130134   0.982   0.982   7.008  0.1110  0.0662 -1.8367
 2833TIP3    H230135   0.861   0.911   6.950 -0.4924 -1.2328  0.8797
 2834TIP3   OH230136   3.342   4.297   1.036 -0.7768  0.5520  0.0784
 2834TIP3    H130137   3.275   4.243   0.992  1.0016 -0.9638 -0.9138
 2834TIP3    H230138   3.401   4.234   1.076 -1.6347  1.8718  3.8176
 2835TIP3   OH230139   3.590   6.599   1.637 -0.3250 -0.1436 -0.1775
 2835TIP3    H130140   3.530   6.527   1.654  2.2580 -2.3787  0.1717
 2835TIP3    H230141   3.586   6.652   1.717 -1.8853 -0.1337 -0.2296
 2836TIP3   OH230142   5.793   0.111   1.481  0.1379 -0.0817  0.2833
 2836TIP3    H130143   5.798   0.104   1.386 -1.5876 -2.2008  0.2805
 2836TIP3    H230144   5.820   0.201   1.500  1.8759 -0.0142 -2.0532
 2837TIP3   OH230145   2.118   6.239   2.693 -0.6876  0.2894  0.2600
 2837TIP3    H130146   2.164   6.256   2.612 -1.0044 -1.3576 -0.3200
 2837TIP3    H230147   2.147   6.307   2.753  1.0542  0.3824 -0.6415
 2838TIP3   OH230148   4.312   5.710   0.601 -0.6031  0.9960  0.0961
 2838TIP3    H130149   4.284   5.692   0.691  0.7040  0.0625  0.3292
 2838TIP3    H230150   4.374   5.782   0.609 -0.0148  0.5009  0.0135
 2839TIP3   OH230151   0.436   6.777   1.659 -0.2349  0.6053  0.2512
 2839TIP3    H130152   0.385   6.737   1.588  0.0053 -2.7936  1.7915
 2839TIP3    H230153   0.527   6.766   1.632 -0.1620 -0.2087  0.7717
 2840TIP3   OH230154   3.902   5.007   0.898  0.3684 -0.1789 -0.0520
 2840TIP3    H130155   3.812   4.976   0.904  0.1152  0.3991 -0.8319
 2840TIP3    H230156   3.896   5.102   0.900  1.1437 -0.1174  2.2083
 2841TIP3   OH230157   2.283   3.058   0.376  0.5562 -1.4731 -0.2495
 2841TIP3    H130158   2.336   3.005   0.317  0.7989 -0.0304 -1.3838
 2841TIP3    H230159   2.298   3.021   0.463  3.0081 -1.4394 -0.6080
 2842TIP3   OH230160   3.908   0.800   7.387 -0.6345  0.3844  0.3075
 2842TIP3    H130161   3.996   0.762   7.382 -0.5841  0.5007  0.3243
 2842TIP3    H230162   3.917   0.887   7.348 -0.2240  1.3414  2.3787
 2843TIP3   OH230163   1.008   5.112   0.803  0.2021 -0.4213  0.0465
 2843TIP3    H130164   0.997   5.094   0.897 -0.4557 -2.0945 -0.3129
 2843TIP3    H230165   0.956   5.044   0.760  1.9239 -0.7985 -1.5726
 2844TIP3   OH230166   2.528   1.391   7.670 -0.1678 -0.0874 -0.4638
 2844TIP3    H130167   2.477   1.435   7.602 -0.5036  0.2845  0.0282
 2844TIP3    H230168   2.513   1.297   7.654 -0.6192  0.0100 -0.6149
 2845TIP3   OH230169   0.811   5.831   1.425  0.4885  0.1704  1.1557
 2845TIP3    H130170   0.758   5.803   1.350  0.9662  1.5234  0.2797
 2845TIP3    H230171   0.752   5.826   1.500 -0.4240  0.1552  0.4479
 2846TIP3   OH230172   6.772   3.449   2.044 -0.5119 -0.3783  0.5098
 2846TIP3    H130173   6.855   3.403   2.033 -0.2753 -0.0308  0.8170
 2846TIP3    H230174   6.711   3.402   1.987 -0.1099 -0.6472  0.2944
 2847TIP3   OH230175   4.394   3.652   1.580 -0.1528  0.0435 -0.2706
 2847TIP3    H130176   4.392   3.594   1.656 -1.5167 -0.5676 -0.7511
 2847TIP3    H230177   4.411   3.739   1.617 -2.4622  0.0514  0.9691
 2848TIP3   OH230178   5.301   1.469   0.369  0.4862 -0.0393  0.3015
 2848TIP3    H130179   5.292   1.387   0.418 -0.5187 -0.2630 -0.2246
 2848TIP3    H230180   5.245   1.457   0.292  1.2715  0.6877 -0.3956
 2849TIP3   OH230181   5.791   6.030   2.075 -0.6483  0.3602  0.4692
 2849TIP3    H130182   5.714   5.975   2.057 -0.5801  0.6101 -0.6044
 2849TIP3    H230183   5.754   6.113   2.107 -0.7693 -0.0409  1.4121
 2850TIP3   OH230184   3.019   4.159   2.393 -0.2118 -0.5215  0.0380
 2850TIP3    H130185   3.030   4.122   2.305  0.2563 -0.3035 -0.0001
 2850TIP3    H230186   2.937   4.208   2.388 -0.2611 -0.6282 -0.2360
 2851TIP3   OH230187   0.144   0.373   0.797  0.5671 -0.0591  0.4064
 2851TIP3    H130188   0.206   0.441   0.822  1.6983 -0.6697 -0.6508
 2851TIP3    H230189   0.183   0.332   0.721 -1.7031  0.3191 -1.0601
 2852TIP3   OH230190   4.455   2.787   7.579 -0.5206  0.3366  0.1266
 2852TIP3    H130191   4.466   2.882   7.570 -1.1890  0.5048  1.0689
 2852TIP3    H230192   4.480   2.753   7.493  2.6681  1.0923  0.6233
 2853TIP3   OH230193   5.218   0.179   0.455 -0.7626  0.7541  0.4289
 2853TIP3    H130194   5.184   0.232   0.528 -1.8015  1.7523 -0.7263
 2853TIP3    H230195   5.258   0.243   0.397  2.6176 -0.3015  1.3684
 2854TIP3   OH230196   4.273   1.931   3.020  0.1013  0.5357  0.0044
 2854TIP3    H130197   4.325   1.942   3.100  1.1067  2.1259 -0.8247
 2854TIP3    H230198   4.287   2.011   2.971 -1.0623 -0.1212 -1.4699
 2855TIP3   OH230199   1.527   2.630   1.888  0.1742 -0.0079 -0.5601
 2855TIP3    H130200   1.433   2.618   1.875 -0.0023  1.7952 -1.1515
 2855TIP3    H230201   1.548   2.569   1.959 -1.1931 -1.2746 -1.1762
 2856TIP3   OH230202   5.179   0.473   7.545 -0.2801  0.3216 -0.0775
 2856TIP3    H130203   5.201   0.449   7.455 -1.0580  0.7557 -0.3945
 2856TIP3    H230204   5.259   0.459   7.594 -0.1780 -1.0772 -0.6098
 2857TIP3   OH230205   6.413   1.235   0.050 -0.0177 -0.1403  0.1758
 2857TIP3    H130206   6.425   1.214   0.142  0.3361  1.8707  0.6473
 2857TIP3    H230207   6.468   1.173   0.003  1.4645  0.1473  1.4621
 2858TIP3   OH230208   4.569   3.747   1.953 -0.3028  0.3247 -0.1599
 2858TIP3    H130209   4.591   3.837   1.977  0.9924  0.2879 -1.0916
 2858TIP3    H230210   4.651   3.711   1.918 -1.0284 -0.9365 -0.6197
 2859TIP3   OH230211   5.864   2.140   8.126  0.2277 -0.2517  0.0850
 2859TIP3    H130212   5.808   2.119   8.201 -0.1331 -1.2500 -0.4341
 2859TIP3    H230213   5.890   2.055   8.092  1.3395  0.2046 -0.2300
 2860TIP3   OH230214   5.045   2.382   1.828  0.3645  0.4853 -0.3006
 2860TIP3    H130215   5.028   2.382   1.734 -0.9081  0.6401 -0.0924
 2860TIP3    H230216   4.988   2.313   1.863  2.2305 -0.9149  0.1545
 2861TIP3   OH230217   4.805   5.519   1.061  0.2329  0.2011 -0.3840
 2861TIP3    H130218   4.730   5.558   1.016 -0.2066 -0.6498 -0.4197
 2861TIP3    H230219   4.778   5.429   1.078  1.7456 -0.4925 -1.5033
 2862TIP3   OH230220   2.957   5.562   8.053 -0.4560 -0.0247  0.2428
 2862TIP3    H130221   2.971   5.543   7.961 -1.6251  0.1413  0.0181
 2862TIP3    H230222   2.897   5.637   8.054 -1.8574 -1.1009  1.1117
 2863TIP3   OH230223   0.552   3.170   7.404  0.1791  0.3706  0.1857
 2863TIP3    H130224   0.531   3.211   7.320  0.7017  2.2670  0.9277
 2863TIP3    H230225   0.648   3.167   7.405  0.2111 -2.4121 -0.4870
 2864TIP3   OH230226   0.156   6.860   0.138 -0.6004 -0.0593  0.2843
 2864TIP3    H130227   0.070   6.898   0.153 -0.2343  0.5036  1.0677
 2864TIP3    H230228   0.205   6.927   0.091 -0.4592 -0.2174  0.2013
 2865TIP3   OH230229   2.820   5.507   1.021 -0.4480 -0.0889 -0.3019
 2865TIP3    H130230   2.868   5.588   1.004 -1.5319  0.5079 -0.6210
 2865TIP3    H230231   2.790   5.516   1.111  0.2247 -0.5701 -0.0218
 2866TIP3   OH230232   3.505   0.003   7.685  0.4246 -0.3103 -0.2845
 2866TIP3    H130233   3.451  -0.033   7.755  0.5571 -2.1540 -1.0853
 2866TIP3    H230234   3.592  -0.034   7.700  0.6826  0.0279 -0.8930
 2867TIP3   OH230235   6.552   1.152   8.024 -0.3747  0.4786  0.6969
 2867TIP3    H130236   6.474   1.199   8.054 -0.2009  0.5202  1.0855
 2867TIP3    H230237   6.609   1.149   8.100 -0.3741 -0.3451  0.6762
 2868TIP3   OH230238   5.659   5.927   8.260 -0.0208 -0.2246 -0.1901
 2868TIP3    H130239   5.733   5.980   8.292 -0.1592 -0.8015  1.1382
 2868TIP3    H230240   5.596   5.930   8.331 -0.8264 -0.6471 -0.8797
 2869TIP3   OH230241   6.269   0.610   7.305 -0.3830  0.5265 -0.1651
 2869TIP3    H130242   6.291   0.518   7.292 -2.3319 -0.2284  1.3508
 2869TIP3    H230243   6.352   0.651   7.330  0.2283 -1.1946  0.8346
 2870TIP3   OH230244   4.453   5.863   7.016  0.6000 -0.1656  0.4761
 2870TIP3    H130245   4.535   5.831   6.981  0.7764  1.4925 -0.7496
 2870TIP3    H230246   4.386   5.827   6.958  0.3197 -2.2337  1.9835
 2871TIP3   OH230247   6.028   5.391   7.212 -0.8988  0.4407 -0.4103
 2871TIP3    H130248   6.030   5.377   7.118  0.8205  0.9801 -0.4914
 2871TIP3    H230249   6.065   5.479   7.224  2.7332 -1.0865  0.9550
 2872TIP3   OH230250   2.108   6.768   8.058 -0.5100 -0.2289  0.6019
 2872TIP3    H130251   2.061   6.824   7.997  1.3640 -0.3377 -1.0140
 2872TIP3    H230252   2.146   6.698   8.004  0.6579 -0.7136  1.9666
 2873TIP3   OH230253   3.904   4.208   1.875  0.3124  0.2591 -0.3008
 2873TIP3    H130254   3.846   4.254   1.813  0.5021  1.8718  0.6679
 2873TIP3    H230255   3.991   4.219   1.838  0.6232  2.5582  0.9434
 2874TIP3   OH230256   5.351   6.227   7.521  0.3519 -0.1687 -0.2742
 2874TIP3    H130257   5.282   6.160   7.513 -0.1376 -0.0342  1.9382
 2874TIP3    H230258   5.423   6.194   7.468 -0.4746 -1.6573 -0.5415
 2875TIP3   OH230259   5.536   1.664   2.584 -0.3607 -0.2421  0.2254
 2875TIP3    H130260   5.509   1.634   2.496 -1.0577  0.8735  0.0433
 2875TIP3    H230261   5.605   1.727   2.567 -0.9846  0.5106  0.4235
 2876TIP3   OH230262   0.488   6.731   0.040 -0.0045 -0.1131 -0.0578
 2876TIP3    H130263   0.481   6.665  -0.029  1.1071 -0.2368 -0.0724
 2876TIP3    H230264   0.491   6.814  -0.008 -1.5583 -0.0145 -0.0320
 2877TIP3   OH230265   5.986   2.230   0.790  0.1724  0.4932  0.5942
 2877TIP3    H130266   5.911   2.177   0.762 -0.1780  2.7690 -3.5148
 2877TIP3    H230267   6.056   2.206   0.729  2.5601 -0.7080  3.5929
 2878TIP3   OH230268   4.490   1.335   2.123  0.6900 -0.1922 -0.2660
 2878TIP3    H130269   4.460   1.369   2.038  0.1594  0.7320  0.2710
 2878TIP3    H230270   4.519   1.413   2.171 -0.0935 -0.5576  0.8280
 2879TIP3   OH230271   3.265   0.041   1.185  0.0284  0.5161  0.2463
 2879TIP3    H130272   3.199   0.068   1.122 -0.3543 -0.9436  0.0027
 2879TIP3    H230273   3.256   0.104   1.257 -0.3092  1.4883 -0.6251
 2880TIP3   OH230274   3.127   6.410   2.432  0.0914 -0.1012  0.1328
 2880TIP3    H130275   3.196   6.343   2.432 -0.4640 -0.7669  2.4926
 2880TIP3    H230276   3.061   6.376   2.372  0.9822 -0.3640 -0.7257
 2881TIP3   OH230277   3.317   3.770   6.980 -0.4103  0.1433 -0.0637
 2881TIP3    H130278   3.329   3.793   6.888  0.9268 -1.5017 -0.3584
 2881TIP3    H230279   3.225   3.749   6.988 -1.0015  2.2991 -0.4903
 2882TIP3   OH230280   2.042   0.229   6.741  0.8053  0.0113 -0.5771
 2882TIP3    H130281   2.104   0.261   6.676  0.7894 -0.0979 -0.6471
 2882TIP3    H230282   2.055   0.285   6.817  0.8680  0.0992 -0.6526
 2883TIP3   OH230283   2.152   4.943   8.415  0.4217  0.2750 -0.3695
 2883TIP3    H130284   2.205   5.022   8.400  2.0446 -0.2200  2.1123
 2883TIP3    H230285   2.066   4.977   8.441  0.6106  1.1775 -0.8735
 2884TIP3   OH230286   0.683   1.834   0.266  0.2600  0.3707  0.7158
 2884TIP3    H130287   0.622   1.782   0.318  1.3358  0.0752  1.7199
 2884TIP3    H230288   0.743   1.770   0.228 -0.1019  0.6441 -0.3739
 2885TIP3   OH230289   5.670   3.880   2.945  0.9911  0.2426 -0.0028
 2885TIP3    H130290   5.634   3.947   3.004 -1.9094  0.1235 -1.4458
 2885TIP3    H230291   5.657   3.798   2.992 -0.2320  0.2572 -0.2833
 2886TIP3   OH230292   4.630   6.652   6.622  0.0708  0.9232 -0.4759
 2886TIP3    H130293   4.714   6.622   6.590  0.2922  2.0236 -0.9918
 2886TIP3    H230294   4.633   6.748   6.612 -1.6515  0.9151 -1.5589
 2887TIP3   OH230295   3.767   1.271   8.619  0.2676  0.0171 -0.5720
 2887TIP3    H130296   3.759   1.222   8.537 -5.2368 -0.9723  0.1729
 2887TIP3    H230297   3.736   1.359   8.598 -0.5063 -0.0472  0.2171
 2888TIP3   OH230298   3.336   4.742   7.551  0.5589 -0.1525  0.1535
 2888TIP3    H130299   3.303   4.819   7.597 -0.5864 -0.7164  0.3087
 2888TIP3    H230300   3.418   4.771   7.512 -1.0493  1.9433 -1.9795
 2889TIP3   OH230301   0.077   3.567   2.440  0.3872 -0.1309 -0.0760
 2889TIP3    H130302   0.112   3.653   2.462 -0.2156 -0.2704  1.5152
 2889TIP3    H230303   0.104   3.553   2.349  1.6868  1.1241  0.0844
 2890TIP3   OH230304   5.366   0.538   1.450 -0.2017  0.9054 -0.6659
 2890TIP3    H130305   5.385   0.577   1.535 -0.4687  3.3853 -1.6520
 2890TIP3    H230306   5.323   0.608   1.401 -0.2126 -0.5024 -2.7912
 2891TIP3   OH230307   6.293   1.327   8.155  0.1040  0.1821  0.0645
 2891TIP3    H130308   6.259   1.310   8.243  0.8803  0.5243  0.4346
 2891TIP3    H230309   6.256   1.257   8.102 -1.8777  1.0154  0.2665
 2892TIP3   OH230310   2.886   0.610   7.530  0.5584 -0.2079 -0.0276
 2892TIP3    H130311   2.944   0.554   7.582  1.3778  1.4193  0.8739
 2892TIP3    H230312   2.907   0.699   7.558 -2.5034  0.4718  0.4483
 2893TIP3   OH230313   6.242   2.012   1.219 -0.6175  0.4132  0.5332
 2893TIP3    H130314   6.298   2.060   1.158  0.2600 -1.8155 -0.5167
 2893TIP3    H230315   6.249   1.921   1.192 -2.7221 -0.2738  2.0341
 2894TIP3   OH230316   2.725   3.172   8.327  0.4909 -0.1017  0.0167
 2894TIP3    H130317   2.768   3.253   8.298  0.6776 -0.5592 -1.0324
 2894TIP3    H230318   2.723   3.117   8.249 -0.3419 -0.8132  0.5275
 2895TIP3   OH230319   4.169   3.579   1.819 -0.0420 -0.2622 -0.6791
 2895TIP3    H130320   4.154   3.495   1.863 -0.1504  0.5491  0.9287
 2895TIP3    H230321   4.196   3.555   1.730  0.2096 -1.9975 -0.1859
 2896TIP3   OH230322   4.835   6.491   0.109  0.3422  0.1370 -0.0207
 2896TIP3    H130323   4.743   6.490   0.135  0.8593  1.4363  2.1357
 2896TIP3    H230324   4.873   6.416   0.153  0.1107 -1.2571 -2.0611
 2897TIP3   OH230325   1.635   3.171   0.404  0.4063  0.8620  0.1356
 2897TIP3    H130326   1.657   3.231   0.475  2.5902  1.8687 -1.2641
 2897TIP3    H230327   1.646   3.223   0.325  1.1807 -1.0477 -1.0754
 2898TIP3   OH230328   3.375   5.853   0.890 -0.6957 -0.3535 -0.0064
 2898TIP3    H130329   3.392   5.941   0.925 -0.2360 -0.4699  0.0721
 2898TIP3    H230330   3.303   5.865   0.829 -1.5737 -0.1548  1.0362
 2899TIP3   OH230331   6.257   5.554   1.679 -0.4659 -0.7066 -0.1143
 2899TIP3    H130332   6.346   5.574   1.649 -0.7359  0.1839 -0.3645
 2899TIP3    H230333   6.234   5.473   1.634 -1.0219  0.8153 -2.7731
 2900TIP3   OH230334   5.024   2.502   2.082  0.2497  0.0376 -0.7797
 2900TIP3    H130335   4.971   2.548   2.146 -0.0156 -1.3185  0.0257
 2900TIP3    H230336   4.963   2.484   2.009 -0.0392 -0.3346 -0.4488
 2901TIP3   OH230337   1.476   5.727   7.455 -0.6009  0.1843 -0.0742
 2901TIP3    H130338   1.391   5.769   7.468 -0.2832  1.4167 -1.5874
 2901TIP3    H230339   1.517   5.778   7.385  0.1438 -2.2266 -1.5252
 2902TIP3   OH230340   4.203   0.007   1.948  0.2296 -0.5272  0.4141
 2902TIP3    H130341   4.278   0.011   2.007  0.0105  0.9831  0.6398
 2902TIP3    H230342   4.147   0.080   1.975  1.1802  1.7210 -3.0079
 2903TIP3   OH230343   3.623   6.837   1.472 -0.1801  0.4348 -0.3016
 2903TIP3    H130344   3.551   6.786   1.433 -0.3411 -0.4248  1.0827
 2903TIP3    H230345   3.674   6.774   1.521  0.3755  1.3944  0.3899
 2904TIP3   OH230346   0.444   6.853   8.438  0.2761  0.2070  0.1396
 2904TIP3    H130347   0.473   6.763   8.455 -1.0884 -0.2779 -0.0181
 2904TIP3    H230348   0.349   6.849   8.441  0.0847  1.1521 -2.1847
 2905TIP3   OH230349   5.583   4.782   7.793  0.3529 -0.1702  0.2116
 2905TIP3    H130350   5.492   4.793   7.822 -0.1423 -0.4793 -1.1409
 2905TIP3    H230351   5.609   4.696   7.825 -0.9872 -1.5474 -2.1706
 2906TIP3   OH230352   6.106   4.907   6.530  0.2840  0.4071 -0.8751
 2906TIP3    H130353   6.019   4.947   6.531 -0.6616 -1.5978  0.1313
 2906TIP3    H230354   6.092   4.815   6.552  2.7002  0.0851 -0.3485
 2907TIP3   OH230355   4.969   0.431   0.498  0.4304  0.3551 -0.5573
 2907TIP3    H130356   5.015   0.374   0.560 -0.0428 -0.8938 -1.3169
 2907TIP3    H230357   4.955   0.513   0.546  0.0291 -0.5908  1.0061
 2908TIP3   OH230358   6.210   1.997   7.625  0.6910  0.1546 -0.1519
 2908TIP3    H130359   6.247   1.953   7.702  2.0773 -0.3988 -1.0955
 2908TIP3    H230360   6.245   2.086   7.630 -1.0316  0.8080  1.0321
 2909TIP3   OH230361   3.283   2.613   2.440  0.0916  0.1815  0.1166
 2909TIP3    H130362   3.247   2.646   2.358 -1.3264 -0.0915  0.5874
 2909TIP3    H230363   3.238   2.663   2.508 -0.2014 -0.9223  0.7680
 2910TIP3   OH230364   6.577   2.006   6.615 -0.1853 -0.2758 -0.1786
 2910TIP3    H130365   6.610   2.073   6.555  0.8726  0.6701  1.3603
 2910TIP3    H230366   6.623   2.024   6.698 -0.7048 -2.2304  0.5950
 2911TIP3   OH230367   3.225   0.109   0.363 -0.0369 -0.0370 -0.0072
 2911TIP3    H130368   3.161   0.059   0.413 -0.2132  1.2009  1.0684
 2911TIP3    H230369   3.302   0.114   0.420 -0.2464  1.4115  0.1866
 2912TIP3   OH230370   2.706   1.946   6.971 -0.1792  0.3642  0.1863
 2912TIP3    H130371   2.656   1.895   6.908 -2.9985  3.3872 -0.2690
 2912TIP3    H230372   2.783   1.975   6.922 -0.1195 -0.8392 -0.4723
 2913TIP3   OH230373   1.661   4.129   2.513  0.4139  0.5413  0.0817
 2913TIP3    H130374   1.716   4.055   2.539  0.8115  0.3674 -1.1442
 2913TIP3    H230375   1.573   4.106   2.541  0.6209 -0.1702  0.1638
 2914TIP3   OH230376   6.084   2.279   1.267 -0.2328 -0.5402 -0.1848
 2914TIP3    H130377   6.094   2.341   1.195 -1.0701  1.1930  1.0971
 2914TIP3    H230378   6.166   2.230   1.270  0.7171  0.9580 -0.8635
 2915TIP3   OH230379   2.377   6.492   8.245 -0.3229  0.0930 -0.0615
 2915TIP3    H130380   2.284   6.480   8.265 -0.1545 -0.2000  0.5713
 2915TIP3    H230381   2.397   6.424   8.181 -0.1193 -1.0686  1.1849
 2916TIP3   OH230382   1.649   0.807   1.109 -0.1342  0.2636  0.1792
 2916TIP3    H130383   1.686   0.729   1.068 -1.4815 -0.3333  0.0441
 2916TIP3    H230384   1.630   0.780   1.199 -0.5497  0.4576  0.1496
 2917TIP3   OH230385   2.559   0.234   7.518 -0.5272  0.6976  0.5319
 2917TIP3    H130386   2.582   0.327   7.525  1.7685  0.2349 -0.0574
 2917TIP3    H230387   2.529   0.223   7.428 -1.2110  0.9425  0.7279
 2918TIP3   OH230388   1.540   0.282   1.689 -0.1634  0.0507 -0.0040
 2918TIP3    H130389   1.626   0.324   1.684 -0.2152  0.1270 -0.2660
 2918TIP3    H230390   1.542   0.216   1.620 -0.1851 -0.1943  0.2248
 2919TIP3   OH230391   3.369   6.214   7.547 -0.2898 -0.0902 -1.0729
 2919TIP3    H130392   3.414   6.265   7.479  0.2051  2.5751  1.0946
 2919TIP3    H230393   3.361   6.274   7.621 -2.3699 -2.3028  0.6556
 2920TIP3   OH230394   1.149   0.841   7.526  0.2536 -0.0765 -0.1101
 2920TIP3    H130395   1.121   0.913   7.584  1.0431  0.3585 -0.2591
 2920TIP3    H230396   1.086   0.771   7.543  0.2343  0.1890  0.9799
 2921TIP3   OH230397   5.160   0.559   7.054 -0.1739 -0.5924  0.4047
 2921TIP3    H130398   5.083   0.503   7.041 -0.7380 -0.1438  1.7176
 2921TIP3    H230399   5.231   0.512   7.009 -0.7926 -1.9999  0.8302
 2922TIP3   OH230400   5.130   6.243   2.086 -0.2141 -0.1074  0.0369
 2922TIP3    H130401   5.221   6.256   2.057  0.0785 -0.2167  0.8696
 2922TIP3    H230402   5.080   6.308   2.037  0.3649  0.1642 -0.2077
 2923TIP3   OH230403   3.305   0.317   7.927  0.0248 -0.6080  0.5934
 2923TIP3    H130404   3.272   0.401   7.960 -0.3490 -0.8735  0.9005
 2923TIP3    H230405   3.288   0.320   7.833 -0.4999 -0.5689  0.6858
 2924TIP3   OH230406   3.449   0.611   1.623 -0.0686 -0.4967  0.1690
 2924TIP3    H130407   3.416   0.688   1.670  0.2793  0.9500 -1.7862
 2924TIP3    H230408   3.542   0.608   1.643 -0.1332 -0.5746  0.4608
 2925TIP3   OH230409   6.051   3.742   2.396 -0.8082 -0.4212  0.2018
 2925TIP3    H130410   5.995   3.800   2.449  1.2722  1.9413 -0.0001
 2925TIP3    H230411   6.135   3.741   2.442 -0.0327 -1.2441 -1.1629
 2926TIP3   OH230412   6.019   0.671   2.032 -0.1688 -0.1091 -0.1498
 2926TIP3    H130413   5.959   0.723   1.979  2.5674  2.1740 -1.2734
 2926TIP3    H230414   6.061   0.612   1.970  0.1509 -0.3108  0.2507
 2927TIP3   OH230415   5.086   2.820   7.840  0.2797 -0.6093 -0.0458
 2927TIP3    H130416   5.166   2.836   7.890 -0.2734  0.0518  0.6493
 2927TIP3    H230417   5.037   2.902   7.846  0.0478 -0.6174 -1.4209
 2928TIP3   OH230418   4.243   5.556   2.886 -0.3628 -0.3430  0.2262
 2928TIP3    H130419   4.203   5.559   2.973  1.6977  0.0175  1.2102
 2928TIP3    H230420   4.238   5.646   2.855  1.3720  0.1305  1.1968
 2929TIP3   OH230421   6.562   6.202   0.320  0.5297 -0.1537 -0.2346
 2929TIP3    H130422   6.492   6.137   0.318  1.1886 -0.8603 -1.2141
 2929TIP3    H230423   6.592   6.202   0.411 -1.2365  0.7457  0.4007
 2930TIP3   OH230424   2.937   4.826   0.216  0.0824 -0.2347 -0.2216
 2930TIP3    H130425   2.874   4.796   0.282 -0.2560 -0.3320 -0.5858
 2930TIP3    H230426   3.007   4.760   0.218 -0.0585 -0.3824 -0.1463
 2931TIP3   OH230427   6.068   0.378   0.298 -0.0259  0.3957  0.0699
 2931TIP3    H130428   6.077   0.398   0.205  0.4566 -0.4705 -0.0814
 2931TIP3    H230429   6.121   0.299   0.311 -2.3608 -1.2267  0.4548
 2932TIP3   OH230430   0.549   6.428   7.097  0.1948 -0.0739  0.2583
 2932TIP3    H130431   0.499   6.485   7.039  0.7136 -0.5655 -0.6832
 2932TIP3    H230432   0.630   6.475   7.115 -0.2849  0.4084  1.2075
 2933TIP3   OH230433   3.016   1.708   2.023 -0.1549 -0.3065  0.4191
 2933TIP3    H130434   3.094   1.753   2.053  0.5626 -2.5598  2.2357
 2933TIP3    H230435   2.947   1.737   2.083 -0.0742 -0.3462  0.5322
 2934TIP3   OH230436   3.363   5.303   0.995  0.0601  0.4639  0.0978
 2934TIP3    H130437   3.419   5.231   1.023 -0.7240  0.1808  0.9709
 2934TIP3    H230438   3.277   5.264   0.983 -0.6060  1.4042  1.5027
 2935TIP3   OH230439   3.917   3.126   1.375  0.3241 -0.6015  0.5616
 2935TIP3    H130440   4.010   3.107   1.363  0.2227 -0.4316 -0.5264
 2935TIP3    H230441   3.912   3.221   1.375  0.1233 -0.6128  0.4225
 2936TIP3   OH230442   1.489   5.525   0.113 -0.0400 -0.6395 -0.1210
 2936TIP3    H130443   1.415   5.512   0.054 -0.1073 -0.5153 -0.0649
 2936TIP3    H230444   1.552   5.457   0.088 -0.0229 -0.5216 -0.4091
 2937TIP3   OH230445   6.203   3.963   0.172 -0.6830 -0.7582 -0.3512
 2937TIP3    H130446   6.115   3.967   0.134 -1.8563 -1.2174  2.0888
 2937TIP3    H230447   6.206   4.036   0.234  0.4116 -1.1115  0.0384
 2938TIP3   OH230448   0.657   5.416   2.917  0.3838 -0.4433 -0.2570
 2938TIP3    H130449   0.652   5.337   2.863  0.5274  0.3890 -1.5324
 2938TIP3    H230450   0.589   5.474   2.881  1.4997  0.7151 -0.5791
 2939TIP3   OH230451   4.630   6.088   7.682  0.5507 -0.7361  0.1943
 2939TIP3    H130452   4.620   6.167   7.628 -2.7204 -1.5027 -0.5685
 2939TIP3    H230453   4.706   6.043   7.645 -0.1184 -0.0412 -2.2710
 2940TIP3   OH230454   5.200   2.698   8.514  0.5309 -0.0372 -0.1431
 2940TIP3    H130455   5.131   2.681   8.450  0.1767  1.0095 -0.0548
 2940TIP3    H230456   5.162   2.671   8.597  0.3424  0.2608 -0.1334
 2941TIP3   OH230457   0.831   2.354   1.715 -0.3002  0.2216 -0.2423
 2941TIP3    H130458   0.853   2.317   1.801 -2.9370  1.0032  0.8963
 2941TIP3    H230459   0.799   2.279   1.664  0.1678 -0.0593 -0.1274
 2942TIP3   OH230460   5.964   3.108   2.340  0.2618  0.2929 -0.1121
 2942TIP3    H130461   5.999   3.026   2.374 -0.9955 -0.7219 -1.1889
 2942TIP3    H230462   5.963   3.097   2.245 -1.2810  0.9538 -0.2088
 2943TIP3   OH230463   4.456   2.600   1.895 -0.7236 -0.3794 -0.2614
 2943TIP3    H130464   4.539   2.586   1.940 -1.3546 -0.6317  0.8551
 2943TIP3    H230465   4.448   2.527   1.834  0.2717  0.1144 -1.0054
 2944TIP3   OH230466   6.422   2.575   0.208  0.2435 -0.0874  0.0104
 2944TIP3    H130467   6.329   2.580   0.188 -0.1094 -0.5099  1.4629
 2944TIP3    H230468   6.430   2.612   0.296  1.4328 -0.1330 -0.0614
 2945TIP3   OH230469   0.744   1.419   0.786 -0.1127  0.3402 -0.3208
 2945TIP3    H130470   0.772   1.348   0.729  1.1940  0.6468 -0.0994
 2945TIP3    H230471   0.649   1.410   0.791  0.0500 -1.6193  0.0187
 2946TIP3   OH230472   3.416   0.180   0.924 -0.6136 -0.4679 -0.6974
 2946TIP3    H130473   3.331   0.171   0.881 -0.6223 -0.1998 -0.7353
 2946TIP3    H230474   3.460   0.097   0.906 -0.4603 -0.2051 -1.5532
 2947TIP3   OH230475   0.744   3.852   1.830  0.3763 -0.6909  0.3777
 2947TIP3    H130476   0.656   3.831   1.798  0.8088  0.0220 -1.3704
 2947TIP3    H230477   0.741   3.829   1.923 -1.6391 -0.7229  0.3553
 2948TIP3   OH230478   5.903   3.531   1.362  0.1522 -0.0867  0.8009
 2948TIP3    H130479   5.815   3.566   1.352  0.2017 -0.1619  0.0501
 2948TIP3    H230480   5.890   3.440   1.390 -0.1126 -1.0139 -2.0206
 2949TIP3   OH230481   0.608   2.956   8.249  0.6339 -0.0448 -0.2790
 2949TIP3    H130482   0.600   2.979   8.156  0.4537 -0.6319 -0.4125
 2949TIP3    H230483   0.558   2.875   8.258 -0.3821  0.6545  0.5870
 2950TIP3   OH230484   3.076   4.596   3.088 -0.0342  0.3837  0.0776
 2950TIP3    H130485   3.104   4.590   2.996 -0.6990 -0.0010 -0.1051
 2950TIP3    H230486   2.991   4.552   3.090  1.3928 -2.6532  1.5148
 2951TIP3   OH230487   3.842   0.058   1.615  0.1702 -0.0391 -0.4525
 2951TIP3    H130488   3.779   0.071   1.544  1.2525  2.5578 -1.0509
 2951TIP3    H230489   3.897  -0.014   1.586 -0.5578 -0.2451 -1.3585
 2952TIP3   OH230490   4.511   2.052   7.941 -0.3585 -0.9129 -0.4701
 2952TIP3    H130491   4.601   2.025   7.923 -1.0038 -2.0264 -2.1934
 2952TIP3    H230492   4.490   2.116   7.873 -1.4417 -1.9929 -1.1928
 2953TIP3   OH230493   4.706   5.353   8.645  0.1671 -0.3569  0.2488
 2953TIP3    H130494   4.740   5.390   8.563 -2.1705 -2.6714 -1.9936
 2953TIP3    H230495   4.626   5.403   8.662 -0.0523 -0.7377  0.3466
 2954TIP3   OH230496   1.077   1.998   2.665 -0.8358  0.2374  0.1118
 2954TIP3    H130497   1.158   1.959   2.698  0.1626  2.7358  0.7771
 2954TIP3    H230498   1.029   1.923   2.629  2.1871 -1.2444 -1.3013
 2955TIP3   OH230499   5.350   1.704   8.058  0.5104 -0.1159  0.0481
 2955TIP3    H130500   5.365   1.799   8.059 -1.1386  0.2992 -2.9756
 2955TIP3    H230501   5.432   1.668   8.023  0.5285  0.3926 -0.4549
 2956TIP3   OH230502   1.604   2.872   1.765 -0.1814 -0.5855  0.4511
 2956TIP3    H130503   1.541   2.850   1.696  0.7894 -0.5349 -0.4924
 2956TIP3    H230504   1.606   2.796   1.822  0.2847 -1.3671 -0.5821
 2957TIP3   OH230505   4.915   0.054   1.790 -0.5064 -0.5278 -0.2352
 2957TIP3    H130506   4.944   0.106   1.716  1.0931 -0.4804  0.3735
 2957TIP3    H230507   4.873  -0.023   1.751 -0.0302 -0.3245 -1.1745
 2958TIP3   OH230508   0.246   4.879   1.247  0.1578 -0.2334  0.7348
 2958TIP3    H130509   0.164   4.837   1.272 -1.6238  2.9573  0.7461
 2958TIP3    H230510   0.228   4.918   1.162  0.9160  2.2200  1.6191
 2959TIP3   OH230511   2.264   6.014   7.547  0.5804 -0.0360  0.3365
 2959TIP3    H130512   2.258   6.106   7.523  0.0509  0.4552  2.2326
 2959TIP3    H230513   2.345   5.984   7.506  0.6254  1.1907 -0.5184
 2960TIP3   OH230514   0.678   1.836   8.254 -0.7123 -0.4539  0.0230
 2960TIP3    H130515   0.624   1.854   8.331 -1.4753  1.6349 -0.9524
 2960TIP3    H230516   0.616   1.806   8.187 -0.1709 -1.3810 -0.0888
 2961TIP3   OH230517   5.707   4.500   2.074 -0.1477 -0.1794  0.1581
 2961TIP3    H130518   5.739   4.547   2.150 -2.2427  2.3855 -0.4153
 2961TIP3    H230519   5.714   4.562   2.002  2.7658 -2.8356 -2.1570
 2962TIP3   OH230520   6.726   6.359   7.475 -0.4873  0.1157  0.2940
 2962TIP3    H130521   6.712   6.453   7.489 -1.1239 -0.0375  0.7415
 2962TIP3    H230522   6.740   6.351   7.380  0.0435  0.7119  0.3175
 2963TIP3   OH230523   2.397   3.959   1.070  0.6686  0.1913  0.0391
 2963TIP3    H130524   2.378   4.051   1.054 -1.0112  0.3102  2.2481
 2963TIP3    H230525   2.476   3.960   1.124 -0.0375  0.4651  1.1080
 2964TIP3   OH230526   4.972   0.889   0.048 -0.4502 -0.2888  0.6205
 2964TIP3    H130527   4.891   0.874   0.097 -0.3043 -2.8629  0.2021
 2964TIP3    H230528   5.036   0.831   0.089  0.9504  0.9819  0.3154
 2965TIP3   OH230529   1.763   1.465   1.559  0.1746 -0.3117  0.4587
 2965TIP3    H130530   1.780   1.371   1.544 -0.1190 -0.4004  0.6827
 2965TIP3    H230531   1.719   1.494   1.479 -1.8648 -0.9060  1.2916
 2966TIP3   OH230532   4.341   4.218   0.089 -0.1317 -0.9916 -0.3286
 2966TIP3    H130533   4.257   4.215   0.042 -1.4912  1.2608  1.6920
 2966TIP3    H230534   4.393   4.282   0.040 -1.1718  0.6098  0.5620
 2967TIP3   OH230535   3.993   5.783   1.387 -0.6892 -0.3008  0.6697
 2967TIP3    H130536   3.911   5.733   1.392 -0.2502 -1.2071 -0.7219
 2967TIP3    H230537   3.997   5.813   1.296  1.0218 -1.1390  0.4431
 2968TIP3   OH230538   4.202   2.609   0.199  0.1982  0.4750  0.1872
 2968TIP3    H130539   4.110   2.584   0.210  0.6712 -0.7634  1.6734
 2968TIP3    H230540   4.210   2.691   0.249 -0.0274  0.4503  0.2664
 2969TIP3   OH230541   3.027   4.379   2.188 -1.0292  0.2841  0.3228
 2969TIP3    H130542   2.949   4.355   2.238  0.2599 -0.1839  2.1906
 2969TIP3    H230543   3.025   4.475   2.185 -1.5106  0.2831  0.5947
 2970TIP3   OH230544   2.031   0.060   0.258  0.3890 -0.0172 -0.2643
 2970TIP3    H130545   2.000   0.119   0.326  2.2829 -0.9805  1.5606
 2970TIP3    H230546   2.117   0.093   0.233  0.2199 -0.3477 -1.3723
 2971TIP3   OH230547   4.978   6.224   8.245  0.7052 -0.1989 -0.1173
 2971TIP3    H130548   4.954   6.299   8.300 -0.3614 -0.8656  0.3780
 2971TIP3    H230549   5.013   6.159   8.307  0.2273 -0.6600 -0.3209
 2972TIP3   OH230550   3.568   5.139   1.623 -0.0775 -0.8392 -0.3675
 2972TIP3    H130551   3.551   5.054   1.664 -0.0326 -1.0946 -0.8764
 2972TIP3    H230552   3.614   5.189   1.691  0.3367 -1.3911 -0.2360
 2973TIP3   OH230553   5.304   5.088   7.935  0.7796  0.6567 -0.0679
 2973TIP3    H130554   5.280   5.176   7.907 -0.5901  1.0236  2.0519
 2973TIP3    H230555   5.286   5.086   8.029  1.2544 -1.7357  0.0577
 2974TIP3   OH230556   5.897   1.616   8.198 -0.0525  0.0274  0.1997
 2974TIP3    H130557   5.822   1.662   8.236  0.2957  0.4353  0.3989
 2974TIP3    H230558   5.858   1.543   8.150 -0.6239  0.6268 -0.2650
 2975TIP3   OH230559   0.270   0.584   2.293  0.6444  0.2840  0.5172
 2975TIP3    H130560   0.181   0.601   2.323 -0.3655 -2.3496 -0.6707
 2975TIP3    H230561   0.293   0.662   2.242 -0.9478  1.0549  0.9075
 2976TIP3   OH230562   5.751   6.402   7.981  0.2835  0.2389 -0.3361
 2976TIP3    H130563   5.764   6.384   8.074  0.5816 -0.2981 -0.4767
 2976TIP3    H230564   5.840   6.411   7.945  0.1588  2.3327 -0.2269
 2977TIP3   OH230565   1.587   0.707   7.818  0.2808  0.5861 -0.7282
 2977TIP3    H130566   1.542   0.640   7.870  1.6940 -1.1427 -1.6250
 2977TIP3    H230567   1.518   0.768   7.793 -0.4216  2.0172  3.6994
 2978TIP3   OH230568   1.484   0.485   6.849  0.1021  0.0888 -0.2249
 2978TIP3    H130569   1.559   0.450   6.801  0.5019 -1.3034  1.3255
 2978TIP3    H230570   1.509   0.575   6.869  1.0175 -0.1095 -0.4224
 2979TIP3   OH230571   1.126   5.018   7.759 -0.1701  0.0848 -0.0886
 2979TIP3    H130572   1.207   5.060   7.731  0.3622  0.2750  1.6075
 2979TIP3    H230573   1.099   4.964   7.685  1.1252  0.5619 -0.9314
 2980TIP3   OH230574   4.351   3.150   2.963  0.2615  0.0705 -0.2359
 2980TIP3    H130575   4.419   3.105   3.012  0.8120  1.3758  0.2442
 2980TIP3    H230576   4.274   3.148   3.021 -0.0330 -1.1465 -0.6560
 2981TIP3   OH230577   3.171   2.108   8.599  0.1904 -0.8263 -0.1071
 2981TIP3    H130578   3.190   2.020   8.631  0.0648 -1.0209 -0.5499
 2981TIP3    H230579   3.097   2.096   8.540  0.3966 -0.4792 -0.4418
 2982TIP3   OH230580   5.044   0.634   7.898  0.0293  0.4644 -0.6442
 2982TIP3    H130581   4.996   0.647   7.816  0.6743  0.9351 -0.9655
 2982TIP3    H230582   5.038   0.718   7.943  2.8543  1.5317 -1.9794
 2983TIP3   OH230583   4.802   4.717   0.552  0.4526  0.0603 -0.3169
 2983TIP3    H130584   4.744   4.744   0.623  0.7670  0.1433 -0.0903
 2983TIP3    H230585   4.743   4.701   0.478  0.1680  0.3944 -0.1658
 2984TIP3   OH230586   6.591   3.666   0.507  0.2716  0.0950  0.5730
 2984TIP3    H130587   6.562   3.631   0.592 -0.8249 -0.0055  0.1774
 2984TIP3    H230588   6.686   3.665   0.512  0.2515  1.6156  2.4521
 2985TIP3   OH230589   6.748   6.449   0.940 -0.1182 -0.3661 -0.1970
 2985TIP3    H130590   6.779   6.368   0.898 -0.7553 -0.5174 -0.3836
 2985TIP3    H230591   6.661   6.464   0.903  0.1620  0.6428 -0.4830
 2986TIP3   OH230592   3.946   0.537   0.606 -0.1400  0.3162  0.1445
 2986TIP3    H130593   3.971   0.507   0.693 -0.5920 -1.4533 -0.3049
 2986TIP3    H230594   4.022   0.515   0.551 -0.9510 -1.1549 -0.4178
 2987TIP3   OH230595   5.783   6.671   1.453 -0.4464 -0.3917 -0.1119
 2987TIP3    H130596   5.835   6.700   1.378  0.7310 -1.2109  0.3637
 2987TIP3    H230597   5.770   6.750   1.506 -0.5533  0.0139 -0.7346
 2988TIP3   OH230598   6.878   5.300   7.797  0.5689  0.0496 -0.6864
 2988TIP3    H130599   6.926   5.249   7.862  0.6020  0.3211 -0.4958
 2988TIP3    H230600   6.924   5.283   7.715  1.0792  0.4220 -0.4801
 2989TIP3   OH230601   1.328   1.403   1.990  0.6279  0.1192 -0.3722
 2989TIP3    H130602   1.290   1.321   2.023  2.8262 -0.6339  0.5070
 2989TIP3    H230603   1.293   1.470   2.048 -0.2267 -0.3641 -0.3065
 2990TIP3   OH230604   2.851   2.763   7.147 -0.5002 -0.0216 -0.4904
 2990TIP3    H130605   2.793   2.839   7.137 -0.7973 -0.3962 -1.6622
 2990TIP3    H230606   2.939   2.799   7.137 -0.4802  0.5307  1.1831
 2991TIP3   OH230607   4.718   5.655   8.196 -0.2353  0.6149  0.7870
 2991TIP3    H130608   4.804   5.628   8.165 -0.5147  0.0513  0.4915
 2991TIP3    H230609   4.666   5.664   8.116 -0.4712  0.8805  0.9703
 2992TIP3   OH230610   6.736   2.933   8.427  0.5573  0.2934  0.2454
 2992TIP3    H130611   6.646   2.947   8.398  1.1279  2.2657 -0.8196
 2992TIP3    H230612   6.749   2.998   8.496  1.4930  0.9103 -0.4774
 2993TIP3   OH230613   5.288   6.093   0.735 -0.0220  0.1883  0.6550
 2993TIP3    H130614   5.256   6.004   0.754 -0.8542  0.2251 -0.5117
 2993TIP3    H230615   5.374   6.079   0.695  1.0878  0.0531  2.9238
 2994TIP3   OH230616   6.422   3.600   1.986 -0.3515  0.1011  0.3879
 2994TIP3    H130617   6.335   3.621   1.951 -1.3396 -1.4190  1.7352
 2994TIP3    H230618   6.450   3.680   2.030 -1.7670  0.1878  1.2113
 2995TIP3   OH230619   1.824   6.567   1.987 -0.2085  0.0064  0.7892
 2995TIP3    H130620   1.795   6.650   2.025  1.1798 -0.4100  2.9485
 2995TIP3    H230621   1.814   6.579   1.893 -0.2081  2.5447  1.0399
 2996TIP3   OH230622   4.155   2.068   0.495 -0.3518  0.0379 -0.1793
 2996TIP3    H130623   4.136   2.005   0.564  0.9200  1.3942  1.4897
 2996TIP3    H230624   4.134   2.153   0.533  1.1541  0.8912 -1.1537
 2997TIP3   OH230625   1.560   4.081   1.058  0.4120  0.2665 -0.3976
 2997TIP3    H130626   1.496   4.010   1.052 -0.2970  0.7917  0.6750
 2997TIP3    H230627   1.644   4.037   1.064 -0.0626 -0.5180  0.8290
 2998TIP3   OH230628   5.439   6.150   8.135  0.5105 -0.1468 -0.2299
 2998TIP3    H130629   5.394   6.102   8.204  0.2248  0.4965  0.0480
 2998TIP3    H230630   5.463   6.233   8.176  0.1000  0.3551 -0.9696
 2999TIP3   OH230631   1.266   6.104   0.490  0.2376  0.3148  0.1027
 2999TIP3    H130632   1.335   6.135   0.432  1.0939 -0.2599  0.7910
 2999TIP3    H230633   1.197   6.171   0.484  1.1936  1.3140  0.0199
 3000TIP3   OH230634   3.233   0.444   1.564 -0.1444  0.1907  0.5499
 3000TIP3    H130635   3.324   0.467   1.546  0.3952  0.6654  3.4129
 3000TIP3    H230636   3.182   0.511   1.519  0.9072  0.0638 -0.8875
 3001TIP3   OH230637   2.806   0.253   8.585  0.0091 -0.2863  0.2479
 3001TIP3    H130638   2.744   0.319   8.617  0.2458 -0.5361  1.2312
 3001TIP3    H230639   2.865   0.237   8.659  0.6715 -0.7501 -0.3661
 3002TIP3   OH230640   4.718   6.889   1.377 -0.3985 -0.5508 -0.1604
 3002TIP3    H130641   4.636   6.882   1.426 -0.0681  0.7424  0.6170
 3002TIP3    H230642   4.693   6.926   1.293 -0.9169 -2.4268 -0.8945
 3003TIP3   OH230643   5.694   4.930   8.011  0.0648 -0.4801  0.0742
 3003TIP3    H130644   5.655   4.896   7.931 -0.9237  0.6410  0.0508
 3003TIP3    H230645   5.777   4.883   8.019 -0.1773 -1.1669 -1.1835
 3004TIP3   OH230646   1.249   3.297   1.209  0.3942  0.2329  0.1492
 3004TIP3    H130647   1.199   3.303   1.128  0.7220  1.3528  0.0127
 3004TIP3    H230648   1.300   3.216   1.200  2.0424  1.4020 -1.7328
 3005TIP3   OH230649   5.988   2.406   0.413 -0.0673  0.2772 -0.8177
 3005TIP3    H130650   6.018   2.327   0.459 -0.5109  0.2018 -0.6504
 3005TIP3    H230651   5.904   2.426   0.454  0.0259  0.8163 -0.8888
 3006TIP3   OH230652   0.436   1.396   7.035  0.1913 -0.3723 -0.2131
 3006TIP3    H130653   0.525   1.360   7.037 -0.4064 -1.8937  1.1444
 3006TIP3    H230654   0.380   1.320   7.021 -0.9593  0.4606 -0.2693
 3007TIP3   OH230655   1.980   6.458   6.898 -0.4230  0.6594 -0.0040
 3007TIP3    H130656   2.036   6.534   6.885  0.7130 -0.2092 -0.4214
 3007TIP3    H230657   1.911   6.488   6.957  0.7226  1.6565  0.8743
 3008TIP3   OH230658   0.358   4.157   1.468 -1.3588  0.0304  0.4495
 3008TIP3    H130659   0.430   4.204   1.425 -0.8311 -1.1595 -0.0207
 3008TIP3    H230660   0.393   4.134   1.554 -1.3039 -0.2274  0.3596
 3009TIP3   OH230661   4.337   1.690   1.691 -0.1685  0.1586  0.0689
 3009TIP3    H130662   4.306   1.763   1.637  0.7115 -0.1889 -0.9496
 3009TIP3    H230663   4.410   1.726   1.741  0.2813 -0.0168 -0.4517
 3010TIP3   OH230664   2.197   4.656   0.835 -0.3083 -0.4922 -0.3109
 3010TIP3    H130665   2.270   4.594   0.830  0.0751 -0.0961  0.2685
 3010TIP3    H230666   2.237   4.738   0.866 -1.2483 -0.7179  1.6352
 3011TIP3   OH230667   6.838   2.309   2.720 -0.4496  0.4197 -0.1411
 3011TIP3    H130668   6.834   2.249   2.794 -1.8692 -0.3037 -0.7833
 3011TIP3    H230669   6.912   2.367   2.741 -0.0638 -0.5201  1.2479
 3012TIP3   OH230670   5.673   5.497   1.888  0.1052  0.0583  1.0826
 3012TIP3    H130671   5.674   5.553   1.811  0.9890 -1.5743 -0.1482
 3012TIP3    H230672   5.589   5.516   1.930 -0.6290  0.6204 -0.5588
 3013TIP3   OH230673   1.191   6.546   7.625  0.2907 -0.5568  0.6213
 3013TIP3    H130674   1.284   6.563   7.641  0.0545  0.1552  1.3442
 3013TIP3    H230675   1.188   6.507   7.538  1.1015  1.2516 -0.2919
 3014TIP3   OH230676   5.753   1.641   7.379 -0.1136 -0.5720  0.2365
 3014TIP3    H130677   5.726   1.565   7.328  2.7288 -1.8617  0.4472
 3014TIP3    H230678   5.767   1.709   7.313  1.4617 -1.5771 -0.5322
 3015TIP3   OH230679   4.481   3.536   1.799 -0.5407  0.9481  0.0128
 3015TIP3    H130680   4.421   3.478   1.845 -0.0784 -0.2660 -0.8665
 3015TIP3    H230681   4.515   3.594   1.868 -2.1241  1.1756  0.6423
 3016TIP3   OH230682   3.544   1.203   0.317  0.1503 -0.4467  0.0748
 3016TIP3    H130683   3.537   1.283   0.369 -0.9638 -0.9583  0.7315
 3016TIP3    H230684   3.509   1.134   0.373 -1.9297 -0.8910 -1.6430
 3017TIP3   OH230685   2.405   5.893   1.525 -0.3270 -0.2420  0.3498
 3017TIP3    H130686   2.329   5.857   1.572 -1.1890  1.3606  0.2479
 3017TIP3    H230687   2.470   5.909   1.594 -1.4375  1.7198  1.0225
 3018TIP3   OH230688   1.696   0.364   1.070 -0.5288  0.4953 -0.0785
 3018TIP3    H130689   1.655   0.278   1.057  1.0667 -0.4129  0.4904
 3018TIP3    H230690   1.649   0.402   1.144 -1.4570  0.2461 -0.5284
 3019TIP3   OH230691   6.852   5.969   1.597  0.2673 -0.2946  0.1131
 3019TIP3    H130692   6.798   6.048   1.598  0.4684 -0.1354  2.1163
 3019TIP3    H230693   6.872   5.956   1.504 -2.8321 -0.1344 -0.7146
 3020TIP3   OH230694   6.618   5.337   0.473 -0.2395 -0.3082  0.1476
 3020TIP3    H130695   6.649   5.380   0.553 -1.1394  0.5729  0.0356
 3020TIP3    H230696   6.654   5.248   0.479  2.0711  0.5694  0.1296
 3021TIP3   OH230697   1.022   5.405   0.544  0.0453 -0.4456  0.6045
 3021TIP3    H130698   1.030   5.474   0.610  0.0946 -0.7297  0.8952
 3021TIP3    H230699   1.112   5.378   0.527  0.1551  0.5105 -0.5273
 3022TIP3   OH230700   0.614   4.319   0.766 -0.4123  0.9807 -0.2324
 3022TIP3    H130701   0.524   4.342   0.743 -0.8990 -0.6411 -0.0720
 3022TIP3    H230702   0.657   4.303   0.682 -1.4075 -2.1256 -0.2668
 3023TIP3   OH230703   0.197   5.067   7.910 -0.4359  0.9340 -0.2925
 3023TIP3    H130704   0.190   5.007   7.836  0.8890  1.2974 -0.7430
 3023TIP3    H230705   0.239   5.145   7.874  2.8341  0.1111  1.3150
 3024TIP3   OH230706   1.021   5.620   0.715 -1.0866  0.5450  0.0083
 3024TIP3    H130707   1.077   5.620   0.792  0.4246  2.3591 -0.9918
 3024TIP3    H230708   0.958   5.690   0.731 -1.0767  0.5967 -0.1750
 3025TIP3   OH230709   2.292   4.899   0.625  0.2093  0.2217  0.6248
 3025TIP3    H130710   2.313   4.828   0.563 -0.7013  0.5397 -0.0694
 3025TIP3    H230711   2.344   4.973   0.594 -1.0838  0.7175 -0.4959
 3026TIP3   OH230712   1.891   3.449   8.624 -0.4935 -0.2878  0.3862
 3026TIP3    H130713   1.948   3.448   8.547  0.4351  0.2688  1.0336
 3026TIP3    H230714   1.879   3.356   8.646  0.7864 -0.4230  0.6497
 3027TIP3   OH230715   3.365   0.604   0.625  0.2209 -1.2427  0.0605
 3027TIP3    H130716   3.283   0.597   0.675 -0.5346  0.6975 -0.8190
 3027TIP3    H230717   3.368   0.523   0.574 -0.5666 -1.8452  0.9191
 3028TIP3   OH230718   0.270   4.767   0.811 -0.3972 -0.2347 -0.0112
 3028TIP3    H130719   0.299   4.690   0.859  0.1013 -0.0190  0.0364
 3028TIP3    H230720   0.321   4.766   0.730 -0.3278  0.0866  0.0242
 3029TIP3   OH230721   5.308   4.336   0.631 -0.1266 -0.1523 -0.7728
 3029TIP3    H130722   5.319   4.341   0.536 -0.6695  0.5336 -0.8117
 3029TIP3    H230723   5.213   4.333   0.643 -0.0480 -0.5983 -0.2657
 3030TIP3   OH230724   1.257   6.578   1.159  0.1378  0.4163 -0.2599
 3030TIP3    H130725   1.317   6.509   1.186 -0.2990  0.7650  1.7816
 3030TIP3    H230726   1.203   6.538   1.091  0.1514 -1.1419  0.6010
 3031TIP3   OH230727   3.319   6.759   1.540  0.4037  0.9264  0.1316
 3031TIP3    H130728   3.231   6.787   1.566  0.4535  1.5705 -0.3419
 3031TIP3    H230729   3.367   6.751   1.622 -0.7114 -1.7226  0.6060
 3032TIP3   OH230730   3.654   0.974   0.031  0.0789 -0.3434  0.3751
 3032TIP3    H130731   3.664   0.925  -0.050 -1.3796 -0.5194  0.2641
 3032TIP3    H230732   3.659   1.066   0.005  1.3150 -0.4044  0.3594
 3033TIP3   OH230733   3.788   5.633   2.291 -0.5894 -0.1064  0.1127
 3033TIP3    H130734   3.838   5.554   2.310 -0.1942  0.4056  1.3459
 3033TIP3    H230735   3.830   5.701   2.345 -1.1518  0.8569 -0.6281
 3034TIP3   OH230736   1.325   1.184   1.051  0.0391  0.0289  0.5013
 3034TIP3    H130737   1.347   1.192   0.958 -3.0759  2.3929 -0.2212
 3034TIP3    H230738   1.374   1.254   1.094 -0.5311  0.6791  0.1218
 3035TIP3   OH230739   0.454   2.172   7.297 -0.2953 -0.3558 -0.4268
 3035TIP3    H130740   0.487   2.084   7.280 -0.1533 -0.6287  1.0727
 3035TIP3    H230741   0.507   2.230   7.242 -0.8046 -1.2414 -1.8943
 3036TIP3   OH230742   2.104   0.390   1.708 -0.5412 -0.5913 -0.2120
 3036TIP3    H130743   2.092   0.298   1.686 -0.2876 -1.2360  2.1655
 3036TIP3    H230744   2.015   0.422   1.726 -0.4399 -0.9962  1.1309
 3037TIP3   OH230745   4.508   6.496   0.168  0.2114  0.0107  0.0326
 3037TIP3    H130746   4.416   6.481   0.146 -0.0729  1.0918  0.4077
 3037TIP3    H230747   4.531   6.426   0.229 -1.0307  0.9420  1.6648
 3038TIP3   OH230748   2.844   4.104   0.930  0.3401  0.2003  0.8093
 3038TIP3    H130749   2.820   4.042   0.999  0.1623 -1.3307 -0.5730
 3038TIP3    H230750   2.761   4.137   0.897  0.1475 -1.8713 -1.0806
 3039TIP3   OH230751   2.888   3.812   1.633 -0.4095  0.1765  0.8988
 3039TIP3    H130752   2.983   3.821   1.627 -0.2997 -1.2391 -0.1781
 3039TIP3    H230753   2.873   3.763   1.714  0.1282 -2.7831 -0.6398
 3040TIP3   OH230754   0.379   0.814   2.140 -0.1300  0.1826 -0.1695
 3040TIP3    H130755   0.372   0.903   2.104 -1.8733 -0.2436 -0.9972
 3040TIP3    H230756   0.471   0.806   2.165  0.7936  1.1569 -2.8845
 3041TIP3   OH230757   4.203   4.866   0.568 -0.2570 -0.1656 -0.2760
 3041TIP3    H130758   4.138   4.931   0.597  0.0491 -0.5539  1.4276
 3041TIP3    H230759   4.163   4.825   0.492 -0.4746  1.9733 -1.4045
 3042TIP3   OH230760   2.270   5.617   0.446 -0.3042 -0.0413  0.4025
 3042TIP3    H130761   2.291   5.546   0.506 -0.0896 -0.9955 -0.7697
 3042TIP3    H230762   2.346   5.624   0.389 -1.2070 -0.3869 -0.8975
 3043TIP3   OH230763   1.005   5.558   8.430  0.0111 -0.1608  0.1651
 3043TIP3    H130764   1.018   5.504   8.508  2.4446  1.0970  0.7229
 3043TIP3    H230765   0.970   5.640   8.464  1.0745  0.3875 -0.0191
 3044TIP3   OH230766   6.728   0.872   8.391 -0.3822 -0.2590 -0.1152
 3044TIP3    H130767   6.697   0.845   8.305  1.2947 -1.4016 -0.4091
 3044TIP3    H230768   6.736   0.791   8.441  1.7394 -0.0332  0.0324
 3045TIP3   OH230769   1.511   6.447   1.894 -1.1733  0.0595  0.5199
 3045TIP3    H130770   1.437   6.500   1.864 -1.6621  0.4381  2.2704
 3045TIP3    H230771   1.553   6.501   1.961  0.9147 -0.0108 -0.6427
 3046TIP3   OH230772   3.237   0.291   2.505 -0.4529  0.4885 -0.1443
 3046TIP3    H130773   3.282   0.334   2.578 -0.5312  0.9134 -0.3455
 3046TIP3    H230774   3.306   0.280   2.438  0.0345 -1.3702  0.5876
 3047TIP3   OH230775   3.923   2.572   0.275 -0.0934 -0.7845 -0.5329
 3047TIP3    H130776   3.908   2.518   0.197 -2.1208  0.0347 -0.7620
 3047TIP3    H230777   3.836   2.581   0.315  0.3403  1.5236  0.0082
 3048TIP3   OH230778   5.120   4.730   1.510 -0.0856  0.2379 -0.0052
 3048TIP3    H130779   5.163   4.687   1.436 -0.3274 -0.5689  0.3147
 3048TIP3    H230780   5.185   4.728   1.580 -0.6865 -1.1642  0.5414
 3049TIP3   OH230781   6.656   0.455   0.931 -0.2008 -0.1652  0.1274
 3049TIP3    H130782   6.660   0.550   0.922 -0.9968 -0.2432 -1.3381
 3049TIP3    H230783   6.739   0.431   0.974 -0.1578  1.1999  0.8544
 3050TIP3   OH230784   6.145   3.516   7.811  0.5072  0.8208 -0.5480
 3050TIP3    H130785   6.218   3.547   7.865 -2.1408  0.1856  3.8378
 3050TIP3    H230786   6.165   3.424   7.794  0.5817  0.5100  1.0606
 3051TIP3   OH230787   2.344   6.505   6.966  0.4229  0.4250 -0.0741
 3051TIP3    H130788   2.403   6.523   6.892 -0.6461  0.7390 -0.8717
 3051TIP3    H230789   2.259   6.539   6.938  0.0232  0.6828  1.3743
 3052TIP3   OH230790   5.877   0.563   2.236  0.8419 -0.0995 -0.3065
 3052TIP3    H130791   5.809   0.629   2.253  0.2706 -0.4057 -1.3463
 3052TIP3    H230792   5.932   0.601   2.168  0.6971 -0.5626 -0.6886
 3053TIP3   OH230793   2.959   1.595   7.937 -0.2239 -0.0177  0.0171
 3053TIP3    H130794   2.984   1.538   7.864 -0.5464 -1.0074  0.6532
 3053TIP3    H230795   2.932   1.534   8.006 -0.3915  0.9136  0.7885
 3054TIP3   OH230796   2.999   1.054   0.897  0.2088  0.3079 -0.2185
 3054TIP3    H130797   3.078   1.100   0.868  0.0587  0.7946  0.1325
 3054TIP3    H230798   2.954   1.116   0.954  0.6742 -0.7307  1.3448
 3055TIP3   OH230799   4.299   4.292   7.720 -0.1524 -0.0644  0.1180
 3055TIP3    H130800   4.226   4.334   7.766 -0.6207 -0.8103  0.0697
 3055TIP3    H230801   4.258   4.231   7.659  0.4624  1.0739 -1.4787
 3056TIP3   OH230802   5.897   4.985   1.770 -0.2579 -0.4977 -0.8007
 3056TIP3    H130803   5.873   4.949   1.855 -3.0020 -0.3045 -1.3960
 3056TIP3    H230804   5.890   5.080   1.781  2.1813 -0.2996 -0.5355
 3057TIP3   OH230805   4.023   1.495   7.457 -0.1255 -0.0018 -0.0312
 3057TIP3    H130806   4.047   1.427   7.521  1.6926 -0.8246 -1.5056
 3057TIP3    H230807   3.981   1.446   7.386  0.8982  0.4456 -0.9603
 3058TIP3   OH230808   2.875   1.734   6.415  0.2577  0.0493 -0.1473
 3058TIP3    H130809   2.825   1.698   6.341  0.2265  0.2708 -0.2345
 3058TIP3    H230810   2.925   1.659   6.448  0.1773 -0.0808 -0.3153
 3059TIP3   OH230811   3.275   2.335   6.908  0.5490  0.0476  0.6314
 3059TIP3    H130812   3.351   2.280   6.890 -1.0964 -2.2139  0.1049
 3059TIP3    H230813   3.309   2.408   6.960  3.0245 -0.9056  0.4764
 3060TIP3   OH230814   1.423   3.557   1.550 -0.0388  0.4106  0.1996
 3060TIP3    H130815   1.344   3.600   1.583 -0.1753  2.5933 -2.6092
 3060TIP3    H230816   1.451   3.500   1.622 -1.9623  2.4346  2.7483
 3061TIP3   OH230817   2.543   6.407   2.248  0.8408  0.2832 -0.0527
 3061TIP3    H130818   2.449   6.395   2.237  1.0465 -0.9068 -0.6174
 3061TIP3    H230819   2.555   6.415   2.343  0.6142 -4.4031  0.6114
 3062TIP3   OH230820   1.070   4.181   1.995  0.2026  0.6337  0.2752
 3062TIP3    H130821   1.000   4.246   2.005  0.5395  1.0369  0.0006
 3062TIP3    H230822   1.126   4.196   2.071  0.5948  1.0522 -0.0930
 3063TIP3   OH230823   2.406   4.860   8.331 -0.5420 -0.6967 -0.0870
 3063TIP3    H130824   2.316   4.867   8.362 -0.2500  0.2370  0.5931
 3063TIP3    H230825   2.451   4.933   8.372  1.2080 -2.7611  1.9122
 3064TIP3   OH230826   4.768   6.487   7.949 -0.3463 -0.1991  0.2382
 3064TIP3    H130827   4.682   6.498   7.990 -0.4439 -1.6185  0.4951
 3064TIP3    H230828   4.830   6.500   8.020 -0.4040 -0.2530  0.2996
 3065TIP3   OH230829   5.845   3.717   1.881  0.0309  0.3646 -0.4251
 3065TIP3    H130830   5.876   3.655   1.947  0.9131  0.7096 -0.4966
 3065TIP3    H230831   5.861   3.672   1.798 -1.6739 -0.3363 -0.4138
 3066TIP3   OH230832   5.974   6.517   7.000 -0.1070  0.7614  0.0634
 3066TIP3    H130833   6.023   6.588   6.958 -1.1018  1.2403 -0.3043
 3066TIP3    H230834   6.010   6.437   6.961  0.4014  1.1011 -0.1767
 3067TIP3   OH230835   2.441   4.852   1.852  0.1381  0.1493 -0.8278
 3067TIP3    H130836   2.411   4.806   1.930 -0.4880 -1.0469 -1.7343
 3067TIP3    H230837   2.365   4.853   1.794  0.3755  1.6848 -1.1421
 3068TIP3   OH230838   6.736   1.961   8.301  0.6472  0.1469 -0.0900
 3068TIP3    H130839   6.713   1.902   8.373 -2.9693  0.1058 -1.0907
 3068TIP3    H230840   6.821   1.929   8.270  0.9923 -1.5781  2.3019
 3069TIP3   OH230841   5.998   6.163   7.916  0.3487 -0.3139  0.4859
 3069TIP3    H130842   5.904   6.173   7.927 -0.0361  0.7737 -2.7060
 3069TIP3    H230843   6.024   6.103   7.987 -2.8079 -1.1974  1.0820
 3070TIP3   OH230844   2.366   3.054   7.791  0.8773  0.7659  0.0335
 3070TIP3    H130845   2.376   3.005   7.873 -1.1108 -1.5479 -0.9857
 3070TIP3    H230846   2.306   3.001   7.739 -0.3492  3.6902 -1.7452
 3071TIP3   OH230847   1.201   5.531   1.219 -0.4094 -0.2068 -0.5150
 3071TIP3    H130848   1.224   5.605   1.275 -0.2437 -0.7068  0.1056
 3071TIP3    H230849   1.285   5.488   1.201 -0.7257 -2.0116  1.7129
 3072TIP3   OH230850   5.540   6.300   1.176 -0.6125  0.6044  0.0428
 3072TIP3    H130851   5.487   6.227   1.145 -0.6386  1.1790 -1.3394
 3072TIP3    H230852   5.630   6.270   1.165 -0.5785 -0.4785  2.6494
 3073TIP3   OH230853   6.547   6.066   0.789  0.1363  0.4254 -0.2976
 3073TIP3    H130854   6.567   6.086   0.698 -0.6838  1.0613 -0.3470
 3073TIP3    H230855   6.626   6.093   0.837  0.6624 -0.1318 -0.8345
 3074TIP3   OH230856   4.559   4.784   1.815  0.1540 -0.2213  0.2699
 3074TIP3    H130857   4.520   4.825   1.738  0.1409 -0.1843  0.2957
 3074TIP3    H230858   4.493   4.797   1.884  1.0432  1.6317  0.8395
 3075TIP3   OH230859   4.932   0.846   2.930  0.4521  0.0344 -0.3650
 3075TIP3    H130860   4.983   0.794   2.992  1.5919  0.3189 -1.0492
 3075TIP3    H230861   4.955   0.811   2.844 -0.2752  0.3783 -0.7116
 3076TIP3   OH230862   4.870   5.976   1.748  0.2600  0.5725 -0.0016
 3076TIP3    H130863   4.842   5.884   1.739  0.9786  0.2576  0.8935
 3076TIP3    H230864   4.963   5.971   1.767  0.2965  1.5023  0.1021
 3077TIP3   OH230865   5.072   0.279   1.713  0.1797  0.2910 -0.6491
 3077TIP3    H130866   5.028   0.252   1.632  0.3166 -1.6015 -0.1445
 3077TIP3    H230867   5.165   0.265   1.696  0.3471  1.2829 -0.6345
 3078TIP3   OH230868   5.204   1.805   0.906 -0.1133  0.7018  0.9111
 3078TIP3    H130869   5.173   1.895   0.898  0.7454  0.9293 -0.1769
 3078TIP3    H230870   5.125   1.751   0.908 -0.6766  1.5166  2.5695
 3079TIP3   OH230871   2.514   5.288   8.004  0.1539  0.1692  0.1904
 3079TIP3    H130872   2.517   5.384   7.996  0.0128  0.3413  1.9546
 3079TIP3    H230873   2.558   5.269   8.086 -0.8393 -1.2100  0.4416
 3080TIP3   OH230874   1.660   1.238   6.744  0.2645  0.0059  0.0800
 3080TIP3    H130875   1.693   1.319   6.783  0.2683  0.1850 -0.2944
 3080TIP3    H230876   1.737   1.182   6.738  0.2633 -0.0256  0.3341
 3081TIP3   OH230877   3.080   6.183   8.578 -0.4770  0.4362  0.4340
 3081TIP3    H130878   3.103   6.213   8.490  0.1735 -2.8216 -0.6209
 3081TIP3    H230879   3.153   6.211   8.633  0.0251  0.8733 -0.4419
 3082TIP3   OH230880   2.555   5.044   1.222 -0.8075  0.4509  0.0030
 3082TIP3    H130881   2.558   5.073   1.313 -0.1013  0.7613 -0.1195
 3082TIP3    H230882   2.638   5.071   1.184 -0.3554 -1.1896 -0.2861
 3083TIP3   OH230883   2.010   5.620   6.533  0.3346 -0.4377 -0.4505
 3083TIP3    H130884   1.954   5.690   6.500 -2.0659 -2.2021 -0.4090
 3083TIP3    H230885   2.014   5.557   6.461 -2.5558 -2.9639  1.3695
 3084TIP3   OH230886   2.739   2.491   0.236 -0.4559 -0.4737  0.4360
 3084TIP3    H130887   2.764   2.570   0.188 -3.1583  0.1684 -0.0922
 3084TIP3    H230888   2.792   2.421   0.198  1.3769  0.9096  0.3208
 3085TIP3   OH230889   6.378   3.007   8.124 -0.3562 -0.0846 -0.3760
 3085TIP3    H130890   6.370   3.098   8.097  2.1426 -0.5210 -3.2008
 3085TIP3    H230891   6.317   2.959   8.067  0.2670 -0.3988 -0.7950
 3086TIP3   OH230892   6.333   5.387   1.186  0.1600 -0.3878  0.0637
 3086TIP3    H130893   6.352   5.352   1.099 -1.0408 -0.9908  0.0310
 3086TIP3    H230894   6.403   5.353   1.241  0.4308 -0.7426 -0.4903
 3087TIP3   OH230895   5.976   6.442   1.338  0.0060 -0.1629  0.1566
 3087TIP3    H130896   5.902   6.391   1.372  0.9067 -1.7536 -0.1773
 3087TIP3    H230897   6.035   6.451   1.412 -0.0429  0.2125  0.1527
 3088TIP3   OH230898   5.483   1.238   2.258  0.6819  0.0280  0.2607
 3088TIP3    H130899   5.535   1.158   2.255  1.0499  0.2692  0.1818
 3088TIP3    H230900   5.489   1.274   2.170 -0.1431 -0.2694  0.0682
 3089TIP3   OH230901   3.338   4.979   0.745  0.4804  1.3048  0.2225
 3089TIP3    H130902   3.313   4.972   0.837  0.5672  0.7678  0.2058
 3089TIP3    H230903   3.254   4.991   0.699  0.3669  0.8074  0.2969
 3090TIP3   OH230904   4.579   4.186   8.555  0.5522 -0.1044 -0.2078
 3090TIP3    H130905   4.523   4.262   8.537  0.7064  0.1133  0.2319
 3090TIP3    H230906   4.661   4.223   8.586  0.0946 -0.4613  1.5554
 3091TIP3   OH230907   6.601   1.458   0.330  0.1860  0.0055  0.3764
 3091TIP3    H130908   6.563   1.508   0.258  0.9641 -0.0668 -0.0947
 3091TIP3    H230909   6.672   1.514   0.363 -1.3463  0.9147  2.3661
 3092TIP3   OH230910   2.823   3.111   7.332 -0.8555 -0.2085 -0.2593
 3092TIP3    H130911   2.783   3.164   7.401 -0.8682 -0.2639 -0.2239
 3092TIP3    H230912   2.899   3.162   7.303 -0.9937 -0.0725 -0.3759
 3093TIP3   OH230913   6.833   6.886   7.255  0.3319  0.0942  0.5459
 3093TIP3    H130914   6.784   6.809   7.285  0.1428  0.3852  0.9817
 3093TIP3    H230915   6.842   6.941   7.333  1.4048  0.0207  0.4890
 3094TIP3   OH230916   5.237   1.226   6.590  0.2151 -0.1193  0.1447
 3094TIP3    H130917   5.310   1.244   6.648  0.4701 -0.7295  0.0205
 3094TIP3    H230918   5.193   1.311   6.579  0.3486  0.0645  0.9645
 3095TIP3   OH230919   0.539   5.527   7.861  0.0683  0.1634  0.4667
 3095TIP3    H130920   0.576   5.571   7.938 -0.3593  1.1349  0.1336
 3095TIP3    H230921   0.525   5.436   7.889  1.4635  0.0971  1.0066
 3096TIP3   OH230922   2.434   4.237   2.819 -1.0540  0.0666 -0.4344
 3096TIP3    H130923   2.422   4.146   2.846 -0.6256 -0.5003 -2.0196
 3096TIP3    H230924   2.520   4.262   2.853 -1.4289  0.0934  0.5156
 3097TIP3   OH230925   1.125   6.747   1.339  0.3775  0.2144 -0.1819
 3097TIP3    H130926   1.087   6.660   1.324 -1.1304  1.1415 -2.1767
 3097TIP3    H230927   1.185   6.760   1.266 -0.1037  1.2008 -0.4188
 3098TIP3   OH230928   5.875   3.494   0.257 -0.7526  0.9908  0.5306
 3098TIP3    H130929   5.909   3.407   0.276 -1.9279  0.6829  1.2648
 3098TIP3    H230930   5.831   3.485   0.172  1.0250  1.4195 -0.4838
 3099TIP3   OH230931   2.519   2.844   7.601  0.1309  0.4451 -0.4779
 3099TIP3    H130932   2.510   2.895   7.521  0.0811 -1.6495 -1.9003
 3099TIP3    H230933   2.429   2.825   7.628  0.1267  1.8792  0.6248
 3100TIP3   OH230934   3.026   3.266   7.246  0.4716  0.2746  0.1589
 3100TIP3    H130935   3.035   3.340   7.305 -0.7617  2.5211 -2.2736
 3100TIP3    H230936   3.077   3.289   7.169 -1.1198 -0.6834 -1.2703
 3101TIP3   OH230937   5.848   1.290   7.765  0.2398  0.2254 -0.4807
 3101TIP3    H130938   5.866   1.374   7.807  1.3271  0.2237 -0.9018
 3101TIP3    H230939   5.761   1.300   7.726  0.4067  1.1985 -0.6234
 3102TIP3   OH230940   4.246   3.420   0.123 -0.0567 -0.1107 -0.1233
 3102TIP3    H130941   4.283   3.347   0.072  0.3419  1.3442 -2.0585
 3102TIP3    H230942   4.266   3.497   0.071 -1.1112  1.3264  1.5023
 3103TIP3   OH230943   4.386   0.054   0.585 -0.9221  0.0756  0.1384
 3103TIP3    H130944   4.480   0.047   0.567 -0.8245 -0.0386  0.6700
 3103TIP3    H230945   4.381   0.068   0.680 -1.5165 -1.7459  0.4115
 3104TIP3   OH230946   0.467   1.501   1.040  0.0128  0.1088 -0.4623
 3104TIP3    H130947   0.407   1.515   0.966  0.8568  0.8272 -1.0203
 3104TIP3    H230948   0.517   1.582   1.047 -0.0369  0.0516  0.8999
 3105TIP3   OH230949   0.883   6.673   0.002  0.1286 -0.0399  0.4214
 3105TIP3    H130950   0.882   6.704   0.093 -1.6865  1.8261 -0.1609
 3105TIP3    H230951   0.839   6.742  -0.047 -2.4246 -2.6765 -1.3033
 3106TIP3   OH230952   0.413   1.546   1.496 -0.0943 -0.6564 -0.2404
 3106TIP3    H130953   0.349   1.525   1.427 -1.4584  0.1594  0.7187
 3106TIP3    H230954   0.391   1.635   1.522  0.9398 -0.6582  0.6732
 3107TIP3   OH230955   4.386   6.205   0.133 -0.5576  0.3411  0.0694
 3107TIP3    H130956   4.394   6.180   0.225 -1.4661  1.2042  0.4033
 3107TIP3    H230957   4.352   6.127   0.090 -1.5272  0.3752  0.7435
 3108TIP3   OH230958   3.677   2.785   3.000  0.0967  0.4628 -0.2979
 3108TIP3    H130959   3.708   2.720   3.063  0.4766 -1.7658 -2.5939
 3108TIP3    H230960   3.594   2.750   2.967 -0.2414  1.7045 -0.8432
 3109TIP3   OH230961   6.766   2.393   8.398  0.3629  0.3423 -0.4896
 3109TIP3    H130962   6.789   2.475   8.442 -2.2649  1.5806 -1.2061
 3109TIP3    H230963   6.749   2.418   8.307 -0.8161 -0.8923 -0.6542
 3110TIP3   OH230964   6.100   6.006   0.681  0.1739  0.4830  0.4689
 3110TIP3    H130965   6.071   6.088   0.721 -1.3226 -0.2213  0.9239
 3110TIP3    H230966   6.027   5.979   0.625  0.6744 -0.4969  0.2579
 3111TIP3   OH230967   2.687   3.171   1.423 -0.2837  0.3549  0.1383
 3111TIP3    H130968   2.717   3.229   1.493  0.2550 -0.6244  0.7430
 3111TIP3    H230969   2.759   3.170   1.360  0.2833 -0.6668  0.7706
 3112TIP3   OH230970   1.750   6.302   2.614  0.5967 -0.0478  0.4857
 3112TIP3    H130971   1.784   6.213   2.621 -0.7370 -0.6937 -0.6859
 3112TIP3    H230972   1.824   6.354   2.584  0.7021 -1.3636 -1.7781
 3113TIP3   OH230973   1.236   5.945   7.999 -0.1517  0.0059 -0.2093
 3113TIP3    H130974   1.227   5.993   8.082  0.3132  1.8890 -1.1943
 3113TIP3    H230975   1.253   5.855   8.026  0.4905  0.6502  1.7479
 3114TIP3   OH230976   1.698   0.675   7.561 -0.1974  0.2467 -0.2849
 3114TIP3    H130977   1.692   0.695   7.655 -1.4851  2.1516 -0.7232
 3114TIP3    H230978   1.783   0.711   7.534  0.0618 -0.0800  0.0728
 3115TIP3   OH230979   0.252   6.322   1.321  0.1635 -0.0171  1.2993
 3115TIP3    H130980   0.264   6.395   1.260 -0.1330 -0.7186  0.3837
 3115TIP3    H230981   0.311   6.342   1.394  1.2515  0.3592  0.3471
 3116TIP3   OH230982   5.412   2.733   8.285  0.5007 -0.2318  0.2727
 3116TIP3    H130983   5.345   2.706   8.347  1.7998  0.5965  2.1620
 3116TIP3    H230984   5.384   2.820   8.255  0.3950 -0.1705  0.5459
 3117TIP3   OH230985   1.640   4.256   0.833  0.1357 -0.6084  0.2000
 3117TIP3    H130986   1.600   4.200   0.900 -0.5316 -2.7683 -1.8964
 3117TIP3    H230987   1.656   4.198   0.759  2.3071  1.3590 -0.9992
 3118TIP3   OH230988   5.759   0.362   8.200 -0.2511  0.1467 -0.2976
 3118TIP3    H130989   5.687   0.356   8.137 -0.4083  1.0866 -0.2147
 3118TIP3    H230990   5.829   0.407   8.153 -0.6893  1.6785  0.4598
 3119TIP3   OH230991   5.482   4.342   1.960 -0.0003  0.1626  1.1299
 3119TIP3    H130992   5.547   4.370   2.024  0.3679 -2.1060  1.8239
 3119TIP3    H230993   5.500   4.395   1.883  1.0178  1.3399  2.1431
 3120TIP3   OH230994   1.237   0.312   7.820 -0.0225  0.0467  0.0854
 3120TIP3    H130995   1.266   0.289   7.908  2.6694 -0.6157 -0.8992
 3120TIP3    H230996   1.289   0.389   7.796  0.2336 -0.5391 -1.3790
 3121TIP3   OH230997   6.037   5.437   0.560  0.1978  0.1449  0.2734
 3121TIP3    H130998   6.130   5.459   0.559 -0.1076  1.4741  0.1409
 3121TIP3    H230999   5.996   5.507   0.611 -0.9426  0.4764 -1.0534
 3122TIP3   OH231000   1.806   2.124   0.833 -0.1007 -0.2227 -0.2845
 3122TIP3    H131001   1.901   2.112   0.836  0.3734  2.8358  1.9758
 3122TIP3    H231002   1.773   2.073   0.906 -0.3775 -1.9752 -1.5782
 3123TIP3   OH231003   3.969   3.923   7.965 -0.0241  0.4966  0.9580
 3123TIP3    H131004   4.041   3.875   7.923 -0.8152  0.7911 -0.8184
 3123TIP3    H231005   3.937   3.864   8.033  0.6011 -0.4564  0.4496
 3124TIP3   OH231006   3.385   5.874   1.804  0.3499 -0.2957  0.5145
 3124TIP3    H131007   3.456   5.817   1.776 -0.9493 -1.6192 -0.1873
 3124TIP3    H231008   3.315   5.815   1.831 -1.0908  0.9388 -0.3353
 3125TIP3   OH231009   5.721   6.665   0.134 -0.3352  0.0684  0.2016
 3125TIP3    H131010   5.712   6.727   0.206 -0.3464 -0.9572  1.1125
 3125TIP3    H231011   5.727   6.579   0.177 -2.1768 -0.7616 -1.0742
 3126TIP3   OH231012   0.938   3.816   0.947  0.8326  0.3310  0.2847
 3126TIP3    H131013   0.929   3.884   0.880 -0.3892  0.2083  0.3015
 3126TIP3    H231014   1.027   3.783   0.936  1.2873  1.5938 -0.0476
 3127TIP3   OH231015   5.313   2.914   0.811  0.0723 -0.4629 -0.0239
 3127TIP3    H131016   5.402   2.895   0.841  0.5198 -0.2657 -1.1987
 3127TIP3    H231017   5.322   2.991   0.755 -1.0685  0.5057  1.0460
 3128TIP3   OH231018   2.460   5.400   0.887 -0.2096  0.1885  0.5099
 3128TIP3    H131019   2.510   5.391   0.968 -1.2283 -0.2015  1.1104
 3128TIP3    H231020   2.450   5.495   0.876 -2.3344  0.2841  2.3366
 3129TIP3   OH231021   3.062   6.055   1.863  0.2079  0.6800 -0.8548
 3129TIP3    H131022   3.103   6.134   1.827  0.9751  0.1543 -1.1509
 3129TIP3    H231023   3.129   6.016   1.919 -0.4753  0.7067  0.0007
 3130TIP3   OH231024   2.181   5.545   7.384 -0.2382 -0.4442 -0.2395
 3130TIP3    H131025   2.240   5.477   7.352  0.3524  0.0724 -0.2623
 3130TIP3    H231026   2.206   5.557   7.476 -1.4923 -1.4629  0.2662
 3131TIP3   OH231027   5.924   5.200   0.214  0.2642 -0.4150 -0.1902
 3131TIP3    H131028   6.019   5.200   0.206  0.1668 -0.3031 -1.6244
 3131TIP3    H231029   5.904   5.120   0.261  1.0454 -0.7022 -0.3306
 3132TIP3   OH231030   1.997   1.813   7.200  0.0020 -0.4195 -0.2409
 3132TIP3    H131031   1.943   1.805   7.121 -0.4493  0.7433 -0.0690
 3132TIP3    H231032   2.087   1.816   7.168 -0.1999  0.5516 -0.7725
 3133TIP3   OH231033   0.888   3.147   0.678  0.3272 -0.1205 -0.3044
 3133TIP3    H131034   0.814   3.116   0.626  0.2475  2.8598 -2.2546
 3133TIP3    H231035   0.853   3.161   0.765 -0.4436 -2.0691 -0.2667
 3134TIP3   OH231036   2.325   0.536   1.631 -0.2144  0.1080  0.2926
 3134TIP3    H131037   2.248   0.487   1.659 -0.2111 -0.4722 -0.6571
 3134TIP3    H231038   2.399   0.482   1.661 -0.1902  0.1364  0.2838
 3135TIP3   OH231039   3.630   2.478   7.637  0.0559 -0.3261  0.2884
 3135TIP3    H131040   3.579   2.553   7.607 -1.1888 -1.8032 -1.5288
 3135TIP3    H231041   3.704   2.473   7.577 -1.4844 -2.2388 -1.6102
 3136TIP3   OH231042   2.091   1.539   1.531 -0.2397 -0.5849 -0.3985
 3136TIP3    H131043   2.052   1.459   1.497  1.0028 -0.7127 -1.5684
 3136TIP3    H231044   2.071   1.606   1.465 -1.9222  0.2939  0.9123
 3137TIP3   OH231045   6.178   3.964   0.925 -0.9373  0.1139 -0.1413
 3137TIP3    H131046   6.220   3.931   1.004 -0.5407  0.2433 -0.2960
 3137TIP3    H231047   6.200   3.899   0.857 -0.8369  0.2703 -0.2605
 3138TIP3   OH231048   0.878   0.516   8.360 -0.4690 -0.2186  0.0994
 3138TIP3    H131049   0.881   0.421   8.372 -0.7045 -0.6043 -2.3578
 3138TIP3    H231050   0.967   0.540   8.334 -1.0067 -0.2362 -1.9043
 3139TIP3   OH231051   0.262   4.141   7.841 -0.2111 -0.2080 -0.1081
 3139TIP3    H131052   0.262   4.210   7.907  0.8324  0.1321 -0.4495
 3139TIP3    H231053   0.176   4.149   7.798 -0.9201 -0.4687  1.2113
 3140TIP3   OH231054   6.759   6.377   0.627 -0.2247 -0.0397 -0.0842
 3140TIP3    H131055   6.820   6.358   0.698 -0.0249  1.3346  0.1539
 3140TIP3    H231056   6.809   6.433   0.567 -1.0332  0.5513 -0.2270
 3141TIP3   OH231057   0.795   4.234   8.329 -0.1581 -0.6414 -0.2973
 3141TIP3    H131058   0.755   4.319   8.347 -1.2040 -1.2723  0.5642
 3141TIP3    H231059   0.848   4.215   8.407  3.9735  1.2420 -2.3631
 3142TIP3   OH231060   6.341   2.493   2.819 -0.2057 -0.4856  0.0309
 3142TIP3    H131061   6.255   2.514   2.783  1.2734  0.7555 -3.1349
 3142TIP3    H231062   6.383   2.578   2.832  1.4272 -1.0984 -0.9741
 3143TIP3   OH231063   0.316   1.616   7.112  0.1148 -0.5521  0.6026
 3143TIP3    H131064   0.226   1.587   7.126  0.2129 -2.6637 -2.1828
 3143TIP3    H231065   0.362   1.537   7.082  1.9940  1.2038 -1.5056
 3144TIP3   OH231066   4.138   5.448   0.649  0.1998  0.3276  0.3586
 3144TIP3    H131067   4.085   5.404   0.715 -2.1590  0.2808 -1.4312
 3144TIP3    H231068   4.158   5.534   0.688 -2.0085  0.7023  0.7872
 3145TIP3   OH231069   2.224   0.642   7.871  0.2011  0.2707  0.7177
 3145TIP3    H131070   2.231   0.700   7.947  0.4890  0.4830  0.5303
 3145TIP3    H231071   2.216   0.555   7.909 -0.0342  0.4123  0.9986
 3146TIP3   OH231072   1.631   2.385   8.504  0.2876 -0.1920 -0.8085
 3146TIP3    H131073   1.650   2.415   8.593  1.1556 -1.3127 -0.5881
 3146TIP3    H231074   1.638   2.464   8.451 -0.9307  0.6220  0.1960
 3147TIP3   OH231075   4.121   6.103   0.714  0.5546 -0.9153 -0.0831
 3147TIP3    H131076   4.052   6.162   0.743  1.4358  0.8938 -1.4168
 3147TIP3    H231077   4.075   6.027   0.678 -0.8077  0.5255 -1.5332
 3148TIP3   OH231078   1.283   3.670   0.089 -0.2979  0.1773 -0.4037
 3148TIP3    H131079   1.373   3.701   0.089 -0.1127 -0.3390 -0.9740
 3148TIP3    H231080   1.236   3.732   0.033 -0.6841  1.4609  1.2448
 3149TIP3   OH231081   2.960   4.644   0.526  0.2832 -0.4424  0.1630
 3149TIP3    H131082   2.894   4.710   0.506 -0.2000 -1.0703 -0.3781
 3149TIP3    H231083   3.026   4.654   0.458  0.0123 -0.7602 -0.1567
 3150TIP3   OH231084   0.949   4.653   7.212 -0.3315 -0.5489  0.0012
 3150TIP3    H131085   0.992   4.725   7.164 -0.4509  0.2431  1.0431
 3150TIP3    H231086   0.978   4.574   7.167 -1.4227  0.2077 -2.1707
 3151TIP3   OH231087   2.054   1.920   0.155  0.2029 -0.0897 -0.4344
 3151TIP3    H131088   2.122   1.979   0.188  0.9563 -0.0275 -1.9865
 3151TIP3    H231089   2.101   1.840   0.133 -0.6225 -0.8672  0.5595
 3152TIP3   OH231090   6.527   2.090   8.064  0.0304  1.0679 -0.0353
 3152TIP3    H131091   6.477   2.046   8.133 -0.4615  0.7468 -0.5908
 3152TIP3    H231092   6.564   2.167   8.107 -0.3556  0.9253  0.5621
 3153TIP3   OH231093   2.687   5.429   1.527 -0.5667 -0.1838 -0.0337
 3153TIP3    H131094   2.766   5.376   1.537  0.6231  1.4768 -0.3099
 3153TIP3    H231095   2.615   5.365   1.532  0.8262 -2.0376 -1.7451
 3154TIP3   OH231096   4.522   6.470   8.060 -0.0952 -0.0919  0.2325
 3154TIP3    H131097   4.457   6.515   8.114 -1.5002 -0.2921 -1.1964
 3154TIP3    H231098   4.480   6.464   7.974  2.7156  1.8296 -1.4441
 3155TIP3   OH231099   0.666   6.014   7.518 -0.6535  0.6755 -0.3884
 3155TIP3    H131100   0.676   6.093   7.572 -2.2257  0.1307  0.7901
 3155TIP3    H231101   0.571   6.007   7.505 -0.4690 -0.6279 -1.0698
 3156TIP3   OH231102   0.820   5.004   0.411 -0.0062 -0.5920 -0.4084
 3156TIP3    H131103   0.782   4.922   0.381 -0.2982 -0.6084 -0.0000
 3156TIP3    H231104   0.855   4.985   0.498 -0.0965 -0.2794 -0.3010
 3157TIP3   OH231105   4.316   4.683   7.536  0.3488  0.1860 -0.2956
 3157TIP3    H131106   4.336   4.776   7.521 -1.2346  0.3888 -1.3768
 3157TIP3    H231107   4.287   4.680   7.627  0.7551  0.6834 -0.1408
 3158TIP3   OH231108   1.635   4.574   1.176  0.3755 -0.0120  0.6270
 3158TIP3    H131109   1.610   4.573   1.269 -0.3974  0.4718  0.4341
 3158TIP3    H231110   1.668   4.486   1.159  4.0086  0.8794  2.2619
 3159TIP3   OH231111   1.945   2.888   7.440 -0.6696  0.5996  0.2328
 3159TIP3    H131112   1.872   2.939   7.405  0.0733  0.8901 -0.9610
 3159TIP3    H231113   2.012   2.952   7.460 -0.0346  0.1859 -0.5037
 3160TIP3   OH231114   5.266   6.575   1.946 -0.0718  0.0460 -0.2656
 3160TIP3    H131115   5.213   6.500   1.918 -0.9589  0.6635 -0.2763
 3160TIP3    H231116   5.307   6.607   1.865  0.3050 -0.4238 -0.2608
 3161TIP3   OH231117   0.395   1.828   1.477  0.8257  0.1098  0.1935
 3161TIP3    H131118   0.400   1.845   1.383  0.2620  1.4804  0.3931
 3161TIP3    H231119   0.319   1.878   1.507  2.4565  1.7644  1.8089
 3162TIP3   OH231120   2.315   0.643   0.264  0.1133 -0.9008  0.6217
 3162TIP3    H131121   2.237   0.592   0.242  0.6945 -2.4477  2.0094
 3162TIP3    H231122   2.283   0.710   0.325 -0.0978 -1.7446  1.4572
 3163TIP3   OH231123   4.907   3.083   0.558  0.3029 -0.3774  0.0669
 3163TIP3    H131124   4.961   3.013   0.596 -0.4176 -0.5181  0.8591
 3163TIP3    H231125   4.970   3.147   0.526  0.9850 -1.3374 -0.5991
 3164TIP3   OH231126   4.800   4.166   8.225  0.8467  0.1497  0.2954
 3164TIP3    H131127   4.821   4.204   8.140  1.9692 -0.4623  0.2697
 3164TIP3    H231128   4.828   4.074   8.217  0.1731 -0.1263  1.0412
 3165TIP3   OH231129   0.663   2.665   8.470  0.2715 -1.0416 -0.5240
 3165TIP3    H131130   0.712   2.701   8.396 -1.1916  0.8032 -0.6544
 3165TIP3    H231131   0.605   2.600   8.430 -0.6737  0.1065 -1.0849
 3166TIP3   OH231132   0.261   3.413   0.539 -0.5124 -0.4020  0.4666
 3166TIP3    H131133   0.216   3.401   0.456 -0.9615 -0.5339  0.7282
 3166TIP3    H231134   0.194   3.398   0.605  0.0337 -1.0895  0.8690
 3167TIP3   OH231135   6.070   5.952   8.104 -0.2739  0.5220  0.3838
 3167TIP3    H131136   6.039   5.910   8.023  1.2148  1.6236 -0.8314
 3167TIP3    H231137   6.073   5.881   8.168  1.7289 -1.2191 -1.4604
 3168TIP3   OH231138   0.279   0.950   7.557 -0.1117 -0.0201  0.5397
 3168TIP3    H131139   0.370   0.930   7.580  0.3657  1.6735  0.1865
 3168TIP3    H231140   0.284   1.022   7.495 -1.7468  0.9542  1.4757
 3169TIP3   OH231141   4.002   5.852   8.035 -0.3125 -0.1975  0.2115
 3169TIP3    H131142   3.947   5.822   8.108  1.5392  0.9963  2.2218
 3169TIP3    H231143   4.087   5.813   8.052  0.9295  2.3490  0.3457
 3170TIP3   OH231144   4.751   1.944   7.246  0.1772 -0.2280 -0.1081
 3170TIP3    H131145   4.818   1.982   7.303  0.9018  0.1747 -1.1925
 3170TIP3    H231146   4.685   1.909   7.306  0.3197  1.2416  0.9452
 3171TIP3   OH231147   0.706   3.998   2.592 -0.3911  0.0930  0.1533
 3171TIP3    H131148   0.620   3.989   2.553  0.0129  0.1132 -0.7636
 3171TIP3    H231149   0.760   3.934   2.546  0.0328 -0.0991  0.8910
 3172TIP3   OH231150   4.973   5.986   6.617  0.5132  0.2435 -0.4440
 3172TIP3    H131151   5.010   6.074   6.611  0.0403  0.3461 -2.9087
 3172TIP3    H231152   4.879   5.998   6.605 -0.1044 -0.2995  2.9894
 3173TIP3   OH231153   0.729   2.870   7.614 -0.4720  0.1475  0.1550
 3173TIP3    H131154   0.664   2.925   7.659 -0.6088  0.4576 -0.4047
 3173TIP3    H231155   0.798   2.931   7.588  0.7479 -0.3818  1.9354
 3174TIP3   OH231156   0.158   4.406   7.443  0.3650 -0.0746  0.5868
 3174TIP3    H131157   0.100   4.389   7.369 -1.0691  1.4643  1.2892
 3174TIP3    H231158   0.203   4.488   7.420 -0.2726  0.5466  1.4881
 3175TIP3   OH231159   6.548   2.865   7.005  0.2855  0.7802 -0.6645
 3175TIP3    H131160   6.507   2.941   7.046  3.6008  2.1614  0.4280
 3175TIP3    H231161   6.609   2.832   7.071  0.0568 -1.9834 -1.6724
 3176TIP3   OH231162   1.729   2.525   0.649  0.1209  0.0150 -0.5683
 3176TIP3    H131163   1.787   2.533   0.724 -1.1225 -0.6190  0.5090
 3176TIP3    H231164   1.654   2.580   0.671 -0.9336 -1.3418 -0.6330
 3177TIP3   OH231165   4.545   2.204   2.220 -0.1889 -0.2643  0.6719
 3177TIP3    H131166   4.616   2.267   2.233 -0.6925  0.8332 -1.4486
 3177TIP3    H231167   4.574   2.126   2.267  1.7432  0.6324  1.0942
 3178TIP3   OH231168   0.626   2.985   1.170  0.1349 -0.4942 -0.3581
 3178TIP3    H131169   0.649   3.009   1.080 -0.1780  0.4919 -0.1815
 3178TIP3    H231170   0.703   2.936   1.202  1.9390  2.3708  0.0831
 3179TIP3   OH231171   5.696   6.157   0.522 -0.1371 -0.1919 -0.3253
 3179TIP3    H131172   5.666   6.235   0.568 -1.1493 -0.3536 -0.6825
 3179TIP3    H231173   5.668   6.083   0.577  1.6539 -0.3089  0.4992
 3180TIP3   OH231174   3.604   5.052   0.963  0.2092  0.7497  0.2794
 3180TIP3    H131175   3.625   5.107   1.039  2.3507  0.6469 -0.1687
 3180TIP3    H231176   3.543   4.987   0.997  0.8875  0.8753  1.8550
 3181TIP3   OH231177   6.247   5.281   1.823  0.3536 -1.0641 -0.0225
 3181TIP3    H131178   6.205   5.196   1.840  0.8411 -1.0383  1.4972
 3181TIP3    H231179   6.224   5.302   1.733 -2.2686 -1.3908  0.4920
 3182TIP3   OH231180   2.106   1.894   6.295  0.1295 -0.3598  0.4875
 3182TIP3    H131181   2.125   1.909   6.202 -1.7315 -1.9788 -0.2361
 3182TIP3    H231182   2.068   1.977   6.325  0.0357 -0.0578 -0.4199
 3183TIP3   OH231183   4.793   0.182   8.111  0.1581  0.3982  0.6200
 3183TIP3    H131184   4.833   0.267   8.091 -0.8683  1.0462  1.2553
 3183TIP3    H231185   4.805   0.171   8.205 -1.5032  0.8071  0.9009
 3184TIP3   OH231186   6.133   5.282   7.933  0.8782 -0.5645 -0.1180
 3184TIP3    H131187   6.068   5.309   7.868  0.7362  1.1362  0.6731
 3184TIP3    H231188   6.216   5.282   7.887  0.8657  1.2099 -0.1866
 3185TIP3   OH231189   5.230   4.532   7.770  0.3282  0.4817  0.6945
 3185TIP3    H131190   5.309   4.574   7.735  1.7811 -1.0354  1.9766
 3185TIP3    H231191   5.225   4.562   7.860  0.7667 -1.1610  1.2983
 3186TIP3   OH231192   0.346   6.536   1.146 -0.1430  0.0144  0.3409
 3186TIP3    H131193   0.289   6.552   1.071  3.2889  0.0234 -2.5615
 3186TIP3    H231194   0.341   6.617   1.197 -1.8339  0.4368 -0.4300
 3187TIP3   OH231195   3.017   5.544   1.991 -0.2946 -0.2393 -0.3667
 3187TIP3    H131196   2.956   5.592   1.935 -2.6061 -1.8786  0.5738
 3187TIP3    H231197   3.007   5.583   2.078  0.0222 -0.5130 -0.2018
 3188TIP3   OH231198   2.057   2.511   8.228  0.4527  0.7890  0.5566
 3188TIP3    H131199   1.985   2.459   8.265  2.3273 -0.2020  3.1152
 3188TIP3    H231200   2.135   2.478   8.272  2.4265  2.3057 -1.5852
 3189TIP3   OH231201   3.638   4.048   6.937 -0.5904 -0.5118  0.1890
 3189TIP3    H131202   3.583   4.007   7.004 -0.7300 -0.7381 -0.0617
 3189TIP3    H231203   3.681   3.975   6.894 -0.4614 -0.3638  0.0670
 3190TIP3   OH231204   4.331   0.085   0.209 -0.4161 -0.7390  0.3638
 3190TIP3    H131205   4.254   0.030   0.224 -0.4790 -0.4740  1.0435
 3190TIP3    H231206   4.297   0.165   0.169 -0.3998 -0.9289 -0.0349
 3191TIP3   OH231207   1.953   0.836   7.523 -0.2094 -0.1496 -0.0500
 3191TIP3    H131208   1.873   0.884   7.544 -0.2437 -0.5314  0.7487
 3191TIP3    H231209   2.023   0.896   7.546 -0.2623  0.0673 -0.4499
 3192TIP3   OH231210   1.102   4.497   1.587  0.7127 -0.1348  0.3539
 3192TIP3    H131211   1.013   4.480   1.616  0.8399 -2.5105 -0.3820
 3192TIP3    H231212   1.093   4.546   1.506 -0.0282 -1.6296 -0.5016
 3193TIP3   OH231213   3.191   5.080   2.233 -0.1235  0.4513  0.0254
 3193TIP3    H131214   3.183   5.168   2.196  0.2433  0.8298  0.8303
 3193TIP3    H231215   3.194   5.094   2.328  0.3729 -0.3976  0.1440
 3194TIP3   OH231216   1.444   0.342   1.936  0.0180 -0.5771 -0.4252
 3194TIP3    H131217   1.496   0.305   1.865 -0.1692 -0.1219 -0.8026
 3194TIP3    H231218   1.380   0.273   1.957 -0.5932 -0.3222 -1.4015
 3195TIP3   OH231219   2.029   2.032   2.094 -0.2384 -0.4510  0.3594
 3195TIP3    H131220   2.110   1.981   2.101 -0.1004 -0.2682  0.0877
 3195TIP3    H231221   2.030   2.089   2.171  0.0439 -0.2295  0.1914
 3196TIP3   OH231222   6.019   4.774   1.122  0.0241 -0.2536 -0.0368
 3196TIP3    H131223   6.075   4.756   1.047 -0.4184  1.0788 -0.7141
 3196TIP3    H231224   6.081   4.787   1.195  0.7130  1.9556 -0.9261
 3197TIP3   OH231225   2.054   5.072   0.647  0.1514 -0.1548  0.0410
 3197TIP3    H131226   2.114   4.999   0.632 -1.2473 -1.2306 -0.4593
 3197TIP3    H231227   2.091   5.117   0.723  0.7969 -1.6755  0.6800
 3198TIP3   OH231228   4.065   0.201   0.799  0.5329 -0.0811  0.5047
 3198TIP3    H131229   3.978   0.186   0.834  0.6625  0.2463  0.9822
 3198TIP3    H231230   4.121   0.208   0.876  0.6822  1.5512  0.2856
 3199TIP3   OH231231   0.945   3.954   1.588  0.8239  0.2236  0.1690
 3199TIP3    H131232   0.970   3.963   1.680 -2.0439  2.9799  0.8534
 3199TIP3    H231233   0.998   4.019   1.541  1.3058 -0.2353  0.0633
 3200TIP3   OH231234   5.032   4.228   6.924 -0.1287  0.2284  0.1229
 3200TIP3    H131235   5.062   4.238   7.015 -0.5846  2.5498  0.0680
 3200TIP3    H231236   4.940   4.201   6.932 -0.6337  1.9462  0.4027
 3201TIP3   OH231237   4.409   3.224   6.803  0.4808  0.1168 -0.4701
 3201TIP3    H131238   4.463   3.146   6.807  0.3765  0.0039 -1.1519
 3201TIP3    H231239   4.321   3.193   6.823  0.7562  0.4191  1.3618
 3202TIP3   OH231240   1.312   5.722   1.427  0.2045  0.8666  0.2825
 3202TIP3    H131241   1.388   5.771   1.396  1.2158 -1.0840 -0.4742
 3202TIP3    H231242   1.243   5.788   1.435  1.5746  2.4572 -0.3535
 3203TIP3   OH231243   1.563   5.989   0.835  0.1706  0.0095  0.4754
 3203TIP3    H131244   1.528   6.075   0.811  0.5251  0.0178 -0.0312
 3203TIP3    H231245   1.526   5.971   0.922  0.4633  0.8812  0.7937
 3204TIP3   OH231246   2.700   4.697   1.859  0.1774  0.3824  0.0887
 3204TIP3    H131247   2.623   4.753   1.866 -1.0433 -1.0179 -1.3515
 3204TIP3    H231248   2.774   4.758   1.862 -0.8300  1.6344  3.0957
 3205TIP3   OH231249   1.010   1.356   7.980  0.5332  0.1257  0.2678
 3205TIP3    H131250   0.952   1.299   7.928 -1.1144 -0.2289  2.3445
 3205TIP3    H231251   0.976   1.444   7.965  2.2056  0.4972 -1.8350
 3206TIP3   OH231252   6.455   1.849   6.805 -0.8447  0.2804  0.2819
 3206TIP3    H131253   6.505   1.911   6.752  1.2132 -1.7207 -0.2383
 3206TIP3    H231254   6.464   1.881   6.894  0.2178  0.7173  0.0260
 3207TIP3   OH231255   4.500   0.536   2.107 -0.6525 -0.4328 -0.0848
 3207TIP3    H131256   4.542   0.450   2.104 -2.6357 -1.4353 -2.1166
 3207TIP3    H231257   4.476   0.548   2.199  0.4566 -1.6006  0.3891
 3208TIP3   OH231258   0.123   2.393   2.471 -0.4142  0.1988  0.0792
 3208TIP3    H131259   0.189   2.328   2.493 -2.7817 -2.2386  0.5393
 3208TIP3    H231260   0.165   2.449   2.405  2.2034 -0.9183  0.6831
 3209TIP3   OH231261   5.229   0.510   3.010  0.2048 -0.0708  0.1052
 3209TIP3    H131262   5.202   0.538   3.097  0.9120  1.1693 -0.0425
 3209TIP3    H231263   5.244   0.416   3.018  1.5867  0.2433  1.6749
 3210TIP3   OH231264   4.767   1.082   1.811 -0.3795  0.1932 -0.5211
 3210TIP3    H131265   4.689   1.055   1.860  0.9951  0.1487  1.7966
 3210TIP3    H231266   4.830   1.011   1.826  0.4369  0.6892 -1.5199
 3211TIP3   OH231267   3.593   3.589   2.055 -0.2222  0.8928  0.4546
 3211TIP3    H131268   3.613   3.670   2.102  0.9726 -0.1954  1.9416
 3211TIP3    H231269   3.644   3.522   2.100 -0.3091 -0.5253 -1.4082
 3212TIP3   OH231270   2.743   1.307   1.422 -0.3290  0.7272 -0.4588
 3212TIP3    H131271   2.777   1.393   1.446  4.6157 -1.3581  1.3253
 3212TIP3    H231272   2.765   1.297   1.330 -0.5981  1.2052 -0.5795
 3213TIP3   OH231273   2.488   2.430   7.445  0.0288 -0.8211 -0.5692
 3213TIP3    H131274   2.542   2.508   7.430 -1.0409 -0.0875 -0.7275
 3213TIP3    H231275   2.414   2.462   7.497 -0.9373 -1.5088 -1.4582
 3214TIP3   OH231276   0.498   5.965   1.076 -0.3043  0.4403  0.1233
 3214TIP3    H131277   0.537   6.036   1.127  0.8434  0.0867 -0.2404
 3214TIP3    H231278   0.540   5.970   0.990 -1.0798  0.0547 -0.2956
 3215TIP3   OH231279   1.833   3.724   0.876  0.0220 -0.6193  0.0661
 3215TIP3    H131280   1.761   3.759   0.929  0.1517 -0.0626 -0.1106
 3215TIP3    H231281   1.793   3.698   0.794  0.1781  0.7881 -0.4945
 3216TIP3   OH231282   5.388   5.542   7.882 -0.2415 -0.5642  0.5924
 3216TIP3    H131283   5.413   5.576   7.796  0.0930 -0.0109  0.9075
 3216TIP3    H231284   5.464   5.492   7.911 -0.5999 -1.2984  0.2859
 3217TIP3   OH231285   3.738   1.357   1.135  0.1538  0.2004  0.6890
 3217TIP3    H131286   3.725   1.417   1.208 -1.5487  0.6751  0.0504
 3217TIP3    H231287   3.832   1.360   1.118  0.0839  3.4282  0.1322
 3218TIP3   OH231288   3.364   1.676   1.787  0.3611 -0.1944  0.2157
 3218TIP3    H131289   3.383   1.687   1.880 -0.0199 -2.2886  0.5942
 3218TIP3    H231290   3.442   1.633   1.751  0.7263  1.0672 -0.5853
 3219TIP3   OH231291   3.508   3.231   0.262  0.0567 -0.0347 -0.2739
 3219TIP3    H131292   3.595   3.265   0.282  0.6952 -0.7809 -1.6228
 3219TIP3    H231293   3.498   3.245   0.168 -0.8738 -0.8463 -0.3078
 3220TIP3   OH231294   4.186   0.584   0.918  0.3896  0.1639  0.3792
 3220TIP3    H131295   4.107   0.530   0.915  0.3241  0.2268  0.9597
 3220TIP3    H231296   4.181   0.631   1.002  0.9719  0.2722  0.3589
 3221TIP3   OH231297   2.569   2.311   1.967 -0.1124  0.0687  0.0584
 3221TIP3    H131298   2.511   2.239   1.941  0.4384 -0.5569  0.5391
 3221TIP3    H231299   2.555   2.378   1.899  0.2240 -0.9471 -1.0460
 3222TIP3   OH231300   4.380   6.029   0.921 -0.4529  0.7960 -0.1265
 3222TIP3    H131301   4.321   6.094   0.961  0.1630  1.3066 -0.0352
 3222TIP3    H231302   4.337   6.007   0.838 -0.1218  2.1645 -0.6857
 3223TIP3   OH231303   6.569   2.038   1.247 -0.3230 -0.5790 -0.4648
 3223TIP3    H131304   6.644   2.098   1.249  0.2294 -1.2577 -0.0310
 3223TIP3    H231305   6.563   2.009   1.156 -0.8833  0.4753 -0.7753
 3224TIP3   OH231306   4.131   3.000   8.299  0.0554 -0.4050 -1.1579
 3224TIP3    H131307   4.062   2.981   8.236 -0.0036 -1.1640 -0.8678
 3224TIP3    H231308   4.095   2.973   8.384 -0.1121  1.1828 -0.6829
 3225TIP3   OH231309   2.798   1.701   2.488  0.0948  0.1530  0.3705
 3225TIP3    H131310   2.858   1.760   2.533  1.5035 -0.4931 -0.5738
 3225TIP3    H231311   2.851   1.623   2.469 -1.2840 -0.7869  0.2301
 3226TIP3   OH231312   4.463   0.696   8.412 -0.1519  0.6979  0.5454
 3226TIP3    H131313   4.551   0.721   8.439 -0.3183  0.1335  1.6782
 3226TIP3    H231314   4.466   0.601   8.407 -0.6436  0.6891  0.4066
 3227TIP3   OH231315   3.152   5.708   0.500  0.1638 -0.3594 -0.1702
 3227TIP3    H131316   3.095   5.671   0.568 -1.5008  1.0658 -0.7202
 3227TIP3    H231317   3.097   5.774   0.456  1.6416 -0.2776 -1.9958
 3228TIP3   OH231318   5.135   5.312   1.333 -0.5790  0.3424  0.1816
 3228TIP3    H131319   5.093   5.256   1.399 -1.5350  1.4071  0.5073
 3228TIP3    H231320   5.168   5.386   1.382  0.0659  0.4101 -0.3430
 3229TIP3   OH231321   6.435   5.323   1.478 -0.3262  0.2257 -0.5254
 3229TIP3    H131322   6.503   5.355   1.419  0.9938 -1.5844 -0.0870
 3229TIP3    H231323   6.472   5.334   1.566  0.2118 -2.2917 -0.3451
 3230TIP3   OH231324   6.669   1.141   7.017  0.8666  0.0082 -0.2047
 3230TIP3    H131325   6.615   1.189   6.953  1.6014  0.9138 -0.1708
 3230TIP3    H231326   6.620   1.147   7.099  1.6809  2.1537  0.1893
 3231TIP3   OH231327   1.007   1.846   1.232 -0.2079  0.3334  0.1629
 3231TIP3    H131328   1.022   1.752   1.230 -0.9988  0.1389  2.0000
 3231TIP3    H231329   1.048   1.876   1.313 -0.1997  1.5353 -0.2535
 3232TIP3   OH231330   2.636   2.374   0.484 -0.7470  0.2039 -0.3353
 3232TIP3    H131331   2.686   2.445   0.443 -0.1148  0.0428  0.1440
 3232TIP3    H231332   2.597   2.327   0.410 -0.3034  0.4228 -0.7177
 3233TIP3   OH231333   1.059   0.973   1.121  0.3031 -0.0079  0.3474
 3233TIP3    H131334   1.004   0.921   1.061 -1.4238  1.0741  0.9018
 3233TIP3    H231335   1.059   0.922   1.202  0.0997 -0.0210  0.3418
 3234TIP3   OH231336   2.583   0.439   0.824  0.0588  0.4546 -0.1251
 3234TIP3    H131337   2.491   0.467   0.830  0.2138  0.7282  1.7369
 3234TIP3    H231338   2.580   0.359   0.773 -0.8514  1.8634 -2.4327
 3235TIP3   OH231339   3.765   3.983   0.192 -1.1330  0.4250 -0.3391
 3235TIP3    H131340   3.706   3.990   0.267  0.5539 -0.0786  1.0891
 3235TIP3    H231341   3.840   3.934   0.225  1.4427  3.4279 -1.2030
 3236TIP3   OH231342   0.614   1.552   7.554 -0.6018  0.0345 -0.4835
 3236TIP3    H131343   0.533   1.601   7.551 -1.8270 -1.9145 -1.4635
 3236TIP3    H231344   0.648   1.556   7.464  0.7864  1.3903  0.0599
 3237TIP3   OH231345   3.192   5.706   2.457 -0.0348 -0.0693  0.1025
 3237TIP3    H131346   3.287   5.705   2.450 -0.1069 -0.1082 -1.0744
 3237TIP3    H231347   3.169   5.799   2.452 -0.0145 -0.0018  1.1730
 3238TIP3   OH231348   1.212   6.879   7.807  0.6193  0.0065  0.3768
 3238TIP3    H131349   1.201   6.967   7.843  0.0124 -0.3098  0.9944
 3238TIP3    H231350   1.137   6.867   7.749  1.1004  0.1647 -0.2934
 3239TIP3   OH231351   0.337   0.993   0.677 -0.3471 -0.2832 -0.1232
 3239TIP3    H131352   0.355   1.028   0.590 -0.8363  0.0622 -0.0902
 3239TIP3    H231353   0.360   1.063   0.737  1.1651 -0.9425  0.1277
 3240TIP3   OH231354   2.599   6.657   7.573  0.8672 -0.4434  0.2366
 3240TIP3    H131355   2.559   6.739   7.602  1.3966 -0.2296  0.3669
 3240TIP3    H231356   2.691   6.664   7.598  0.7591 -1.4225  0.9918
 3241TIP3   OH231357   1.128   3.354   2.771  0.3611  0.8329 -0.1047
 3241TIP3    H131358   1.175   3.333   2.690  0.7722  0.6389  0.1772
 3241TIP3    H231359   1.197   3.361   2.837 -0.0038  0.6513  0.2984
 3242TIP3   OH231360   0.486   1.837   7.837 -0.0603 -0.8979 -0.1873
 3242TIP3    H131361   0.418   1.885   7.790  0.6475 -3.2659 -4.0931
 3242TIP3    H231362   0.438   1.784   7.901 -1.6120 -0.6077 -1.0538
 3243TIP3   OH231363   5.093   3.516   0.892  0.4113 -0.1428 -0.5522
 3243TIP3    H131364   5.112   3.608   0.875 -0.0654  0.1643  0.4739
 3243TIP3    H231365   5.059   3.483   0.809 -0.5514  0.9192 -0.6080
 3244TIP3   OH231366   0.306   5.563   0.038  0.0225 -0.0612 -0.0165
 3244TIP3    H131367   0.311   5.548   0.132 -0.2910  1.1345  0.2060
 3244TIP3    H231368   0.271   5.652   0.029  2.3857  0.8235 -1.2227
 3245TIP3   OH231369   6.778   0.916   7.911  0.5518 -0.3112 -0.4654
 3245TIP3    H131370   6.708   0.958   7.860 -0.5769 -0.9561  0.5028
 3245TIP3    H231371   6.810   0.985   7.969 -0.3340 -0.3927  0.1401
 3246TIP3   OH231372   1.366   6.103   8.454  0.2041 -0.5915 -0.1589
 3246TIP3    H131373   1.363   6.153   8.535 -0.8622 -0.9917  0.0751
 3246TIP3    H231374   1.428   6.150   8.398 -1.3012  1.4499 -0.2446
 3247TIP3   OH231375   4.718   6.538   1.073  0.2777 -0.0246 -0.5249
 3247TIP3    H131376   4.629   6.515   1.099 -0.2461 -0.0313 -2.2011
 3247TIP3    H231377   4.774   6.493   1.137 -0.7338 -4.7757 -2.5280
 3248TIP3   OH231378   4.391   4.879   2.137  0.0991  0.1582 -0.1716
 3248TIP3    H131379   4.481   4.901   2.115 -0.1773  2.0686  0.4419
 3248TIP3    H231380   4.367   4.939   2.207 -1.0002 -1.7246  1.1491
 3249TIP3   OH231381   0.772   6.232   7.309  0.1360  0.4217 -0.3966
 3249TIP3    H131382   0.740   6.143   7.294  2.2327 -0.1758 -1.7174
 3249TIP3    H231383   0.772   6.272   7.223 -0.7006  1.7374  0.1715
 3250TIP3   OH231384   3.929   2.383   8.410 -0.6395  0.4375  0.2118
 3250TIP3    H131385   3.847   2.365   8.365  0.1840 -0.5032 -0.9801
 3250TIP3    H231386   3.941   2.478   8.403 -1.5318  0.5587  0.2599
 3251TIP3   OH231387   6.789   2.903   7.363  0.1453 -0.7156 -0.0047
 3251TIP3    H131388   6.749   2.989   7.351  0.2750 -0.8070 -1.1874
 3251TIP3    H231389   6.879   2.923   7.391  0.2900 -0.4487 -0.6361
 3252TIP3   OH231390   2.299   3.981   7.922  0.4417  0.6394 -0.4553
 3252TIP3    H131391   2.210   3.982   7.958  0.7508  1.6108  0.3186
 3252TIP3    H231392   2.319   3.888   7.912 -0.8204  0.4136 -1.0658
 3253TIP3   OH231393   3.619   5.050   7.440 -0.4490  0.3313 -0.5261
 3253TIP3    H131394   3.678   5.023   7.511  0.0509  2.3128 -0.1244
 3253TIP3    H231395   3.593   4.968   7.398 -0.3097 -0.8523  1.5777
 3254TIP3   OH231396   2.006   1.166   1.962  0.1078 -0.0581 -0.2110
 3254TIP3    H131397   2.010   1.231   1.892  0.7433  0.3633  0.2074
 3254TIP3    H231398   2.093   1.127   1.964 -0.7513 -2.2412 -1.6599
 3255TIP3   OH231399   0.696   6.660   1.008 -0.2014 -0.8135 -0.0112
 3255TIP3    H131400   0.717   6.708   1.088  0.2865 -2.1157  0.6518
 3255TIP3    H231401   0.663   6.728   0.948 -1.0609  0.1044  1.4445
 3256TIP3   OH231402   3.349   6.081   1.351  0.2394 -0.2109 -0.1736
 3256TIP3    H131403   3.396   6.016   1.298 -2.1385 -1.4494 -0.9419
 3256TIP3    H231404   3.395   6.163   1.335  1.4477 -1.1258 -1.7151
 3257TIP3   OH231405   3.923   2.036   0.276 -0.9267 -0.3853  0.1863
 3257TIP3    H131406   4.007   1.993   0.294 -0.4291 -0.5002 -2.0821
 3257TIP3    H231407   3.919   2.107   0.340  0.4386 -0.9807  0.9845
 3258TIP3   OH231408   6.641   4.919   2.066  0.0141 -0.1269  0.6185
 3258TIP3    H131409   6.559   4.923   2.115 -0.2757  1.1172  0.0899
 3258TIP3    H231410   6.621   4.961   1.983  0.9312 -0.7188  0.0835
 3259TIP3   OH231411   1.673   1.527   0.985  0.8843  0.1891  0.5432
 3259TIP3    H131412   1.680   1.593   0.915  1.8234 -0.9647 -0.5042
 3259TIP3    H231413   1.673   1.443   0.938 -2.1985 -0.5874  1.7029
 3260TIP3   OH231414   1.402   0.689   2.116 -0.0605  0.6157 -0.1748
 3260TIP3    H131415   1.348   0.674   2.038 -1.1771 -1.5472  0.9495
 3260TIP3    H231416   1.346   0.739   2.175  0.1076  0.5875  0.0078
 3261TIP3   OH231417   5.716   5.638   0.820 -0.0082 -0.4269  0.3456
 3261TIP3    H131418   5.725   5.725   0.858  0.6478 -2.2203  4.9686
 3261TIP3    H231419   5.796   5.626   0.769  0.2840  1.3716  0.3076
 3262TIP3   OH231420   3.950   2.286   7.383  0.1203  0.1158  0.1228
 3262TIP3    H131421   3.862   2.314   7.407 -0.0173  0.5719 -0.8542
 3262TIP3    H231422   3.950   2.287   7.287  1.1700  0.0565  0.1087
 3263TIP3   OH231423   0.287   4.636   7.341 -1.2249 -0.1585 -0.0580
 3263TIP3    H131424   0.299   4.719   7.387 -1.2267  0.8715 -1.8601
 3263TIP3    H231425   0.374   4.615   7.307 -1.8205  0.7672 -2.2880
 3264TIP3   OH231426   0.816   5.828   0.777 -0.6297  0.4318 -0.4923
 3264TIP3    H131427   0.883   5.883   0.817 -1.4685  0.7763  0.4476
 3264TIP3    H231428   0.777   5.780   0.850  0.9114 -2.3843 -1.3742
 3265TIP3   OH231429   2.820   1.842   7.505 -0.5439 -0.5876  0.2561
 3265TIP3    H131430   2.899   1.807   7.464 -0.5518 -0.2414 -0.0597
 3265TIP3    H231431   2.817   1.800   7.591 -1.9431 -3.3687 -1.0436
 3266TIP3   OH231432   2.615   3.056   8.107  0.4029  0.3608  0.0390
 3266TIP3    H131433   2.608   3.111   8.029 -0.7794 -0.9248 -0.8207
 3266TIP3    H231434   2.534   3.005   8.107  2.0420 -2.4290 -0.0586
 3267TIP3   OH231435   6.527   6.818   0.144 -0.2615  0.2318  0.4398
 3267TIP3    H131436   6.501   6.782   0.059 -1.5949  2.3565 -0.1317
 3267TIP3    H231437   6.469   6.776   0.207  0.0843 -0.6375  0.1921
 3268TIP3   OH231438   2.235   1.887   2.178  0.0883 -0.2924 -0.1816
 3268TIP3    H131439   2.219   1.793   2.181  0.2020 -0.3014  0.3141
 3268TIP3    H231440   2.319   1.898   2.221  0.3423 -0.0166 -0.7392
 3269TIP3   OH231441   4.012   2.667   8.367 -0.0671  0.2104  0.7367
 3269TIP3    H131442   4.096   2.654   8.410 -0.3090 -0.4049  1.0319
 3269TIP3    H231443   3.964   2.726   8.425 -0.2919 -0.4060  1.1949
 3270TIP3   OH231444   1.050   4.904   7.484  0.5283  0.7031  0.6285
 3270TIP3    H131445   0.971   4.858   7.458  1.5337 -0.6603 -0.1350
 3270TIP3    H231446   1.102   4.911   7.404  1.1694  1.6306  1.0983
 3271TIP3   OH231447   4.659   3.529   2.906 -0.5086 -0.0227  0.1294
 3271TIP3    H131448   4.566   3.508   2.901 -0.7910  1.1352  0.1606
 3271TIP3    H231449   4.668   3.610   2.856  0.5020 -0.1547  0.0699
 3272TIP3   OH231450   1.819   1.771   0.349  0.4264 -0.1047 -0.2358
 3272TIP3    H131451   1.899   1.734   0.387  0.3179 -1.6734 -1.4096
 3272TIP3    H231452   1.839   1.863   0.332  0.8843  0.3376  2.3761
 3273TIP3   OH231453   3.513   0.162   1.594 -0.7189  0.4127  0.2696
 3273TIP3    H131454   3.418   0.152   1.588 -0.4925 -1.9186 -0.2785
 3273TIP3    H231455   3.549   0.082   1.555  1.4270 -0.1007  2.9560
 3274TIP3   OH231456   6.567   0.078   7.635  0.1490  0.1621  0.2670
 3274TIP3    H131457   6.608   0.015   7.694  0.7970  0.1418 -0.1937
 3274TIP3    H231458   6.474   0.071   7.653 -0.1939 -3.2125 -1.8997
 3275TIP3   OH231459   5.850   4.020   7.207  0.2191  0.7777  0.8780
 3275TIP3    H131460   5.818   4.044   7.120 -1.3839  0.5477  1.3561
 3275TIP3    H231461   5.835   4.098   7.261 -0.9977  0.1769  1.4553
 3276TIP3   OH231462   3.542   4.918   1.779 -0.1387  0.0045  0.2550
 3276TIP3    H131463   3.606   4.855   1.746  1.1795  0.8805  1.0639
 3276TIP3    H231464   3.461   4.868   1.785  0.4075 -1.0967 -0.9333
 3277TIP3   OH231465   2.165   2.041   7.574 -0.5722  0.2858 -0.6068
 3277TIP3    H131466   2.091   2.075   7.524  0.4077  0.1207 -2.2373
 3277TIP3    H231467   2.162   1.946   7.561 -0.2539  0.2469 -0.4244
 3278TIP3   OH231468   3.432   1.855   1.302  0.5005 -0.2870 -0.1864
 3278TIP3    H131469   3.416   1.863   1.396 -0.8188  0.1526 -0.4256
 3278TIP3    H231470   3.503   1.917   1.285  0.7981 -0.4180  0.5268
 3279TIP3   OH231471   4.487   0.938   7.937 -0.4734  0.1126 -0.1133
 3279TIP3    H131472   4.491   0.861   7.993  2.4722 -1.0517 -1.7534
 3279TIP3    H231473   4.530   1.007   7.988  2.1516 -0.9281 -0.8021
 3280TIP3   OH231474   0.191   0.088   1.116  0.3043 -0.2258 -0.3590
 3280TIP3    H131475   0.195   0.150   1.189  2.4053  0.6675 -1.1610
 3280TIP3    H231476   0.126   0.126   1.057  0.9461  0.7881 -0.4406
 3281TIP3   OH231477   1.540   5.640   6.856 -0.2263 -0.2103  0.1173
 3281TIP3    H131478   1.616   5.596   6.817  1.3334 -0.7143  3.4462
 3281TIP3    H231479   1.550   5.628   6.950 -3.4239  1.4596  0.8158
 3282TIP3   OH231480   3.889   2.851   0.296 -0.0128 -0.0809  0.0056
 3282TIP3    H131481   3.839   2.851   0.377 -1.7424  2.0339 -0.9486
 3282TIP3    H231482   3.884   2.760   0.265 -1.4081 -0.3958  1.0517
 3283TIP3   OH231483   1.417   4.227   7.937  0.1184 -0.2925 -0.0740
 3283TIP3    H131484   1.460   4.155   7.890 -0.0966  0.3662 -1.3093
 3283TIP3    H231485   1.324   4.212   7.922 -0.0574 -0.9285  1.4402
 3284TIP3   OH231486   0.842   0.782   0.536 -0.4722  0.4486  0.2946
 3284TIP3    H131487   0.927   0.826   0.532 -0.4592  0.3646 -2.2366
 3284TIP3    H231488   0.778   0.853   0.528 -0.5668  0.3464  0.1359
 3285TIP3   OH231489   5.170   1.133   8.169  0.4096  0.1824  0.0604
 3285TIP3    H131490   5.216   1.125   8.253 -0.8480 -1.5502  0.6399
 3285TIP3    H231491   5.141   1.224   8.166  2.4347  0.8894  0.4098
 3286TIP3   OH231492   6.266   0.195   0.320  0.9247  0.3808 -0.0229
 3286TIP3    H131493   6.283   0.150   0.238 -0.3183  0.6639 -0.4409
 3286TIP3    H231494   6.256   0.125   0.384  2.3391  0.1668  0.0118
 3287TIP3   OH231495   1.203   0.004   0.369  0.3610  0.4262 -0.3809
 3287TIP3    H131496   1.159   0.047   0.296 -0.6535  0.9231  0.5002
 3287TIP3    H231497   1.265  -0.056   0.328  0.0076  0.9019 -1.6390
 3288TIP3   OH231498   4.596   1.036   8.630  0.1296 -0.6204  0.0755
 3288TIP3    H131499   4.647   1.024   8.709  0.0201  2.7393  0.7753
 3288TIP3    H231500   4.505   1.028   8.659  0.0408  1.7859  0.6239
 3289TIP3   OH231501   6.265   4.982   0.975 -0.0580  0.6489  0.3295
 3289TIP3    H131502   6.272   4.894   0.940 -0.6192  0.6698  0.1535
 3289TIP3    H231503   6.181   5.015   0.942  0.0751  1.1904  0.5160
 3290TIP3   OH231504   2.234   2.345   7.735  0.1974  0.4820 -1.0327
 3290TIP3    H131505   2.190   2.336   7.819  0.4872 -1.8074 -1.0743
 3290TIP3    H231506   2.163   2.346   7.670  0.0598  0.0605 -0.8912
 3291TIP3   OH231507   0.136   1.494   2.141  0.6309 -0.0907  0.1346
 3291TIP3    H131508   0.162   1.521   2.228 -0.3643 -1.5285  0.9254
 3291TIP3    H231509   0.044   1.522   2.133  0.9222  0.6860 -0.7559
 3292TIP3   OH231510   2.603   4.247   2.563  0.1103 -0.2529 -0.1469
 3292TIP3    H131511   2.562   4.292   2.637  0.4016 -0.2011 -0.0190
 3292TIP3    H231512   2.664   4.185   2.603  1.6668  1.0748 -0.3640
 3293TIP3   OH231513   2.305   6.713   0.009 -0.1016 -0.2204  0.5939
 3293TIP3    H131514   2.271   6.666  -0.067 -2.9836  2.1061  0.2903
 3293TIP3    H231515   2.311   6.647   0.078 -0.4473 -1.7281 -0.7726
 3294TIP3   OH231516   6.611   2.375   8.082  0.0267 -0.0433 -0.7512
 3294TIP3    H131517   6.561   2.376   8.001 -0.4202  0.4004 -0.4773
 3294TIP3    H231518   6.628   2.467   8.100 -0.0126 -0.1310 -0.2598
 3295TIP3   OH231519   5.752   4.695   1.072 -0.1384  0.0600  0.1564
 3295TIP3    H131520   5.758   4.679   1.166  0.4948  0.2156  0.1484
 3295TIP3    H231521   5.843   4.696   1.041 -0.3489 -0.2299 -0.4996
 3296TIP3   OH231522   6.536   6.432   2.132  1.0608 -0.7271 -0.1073
 3296TIP3    H131523   6.589   6.465   2.059  0.2783  1.6339  0.2860
 3296TIP3    H231524   6.535   6.505   2.194 -1.2084 -1.3511  0.6688
 3297TIP3   OH231525   3.400   1.722   2.330 -0.4951 -0.0628 -0.1958
 3297TIP3    H131526   3.428   1.777   2.403  1.1257 -1.6560  0.4453
 3297TIP3    H231527   3.312   1.693   2.355 -1.8303  2.9174 -1.0113
 3298TIP3   OH231528   6.798   3.729   1.080 -0.1910 -0.2392 -0.5919
 3298TIP3    H131529   6.759   3.802   1.032  0.3104  0.5772  0.1913
 3298TIP3    H231530   6.747   3.653   1.054  0.0742  0.1690 -2.3921
 3299TIP3   OH231531   5.301   4.709   1.716 -0.2470  0.1082  0.2403
 3299TIP3    H131532   5.352   4.630   1.738 -1.3646 -1.0823 -1.2078
 3299TIP3    H231533   5.262   4.736   1.799  0.5791 -0.5517  0.8592
 3300TIP3   OH231534   6.871   6.569   7.062 -0.0100  0.7919 -0.7469
 3300TIP3    H131535   6.945   6.593   7.118 -0.8197 -0.6405  1.0408
 3300TIP3    H231536   6.905   6.576   6.972  2.3951 -0.1844  0.0289
 3301TIP3   OH231537   2.529   5.367   1.140 -0.3118 -0.3292  0.0471
 3301TIP3    H131538   2.471   5.348   1.213 -0.0845 -0.9557  0.0704
 3301TIP3    H231539   2.594   5.428   1.176 -0.7001  0.0367  0.1327
 3302TIP3   OH231540   3.739   1.011   2.113 -0.1479  0.4474  0.5263
 3302TIP3    H131541   3.822   0.967   2.095  0.7427  1.8657  1.0138
 3302TIP3    H231542   3.738   1.024   2.208 -1.2470 -0.1305  0.6122
 3303TIP3   OH231543   2.874   3.667   1.857  0.2803  0.0366  0.0956
 3303TIP3    H131544   2.902   3.703   1.941  0.6488  0.8953 -0.3837
 3303TIP3    H231545   2.782   3.644   1.870  0.7537 -1.3185  1.2017
 3304TIP3   OH231546   1.150   4.492   0.216 -0.3505  0.4564  0.0974
 3304TIP3    H131547   1.157   4.399   0.239 -1.9903  0.3345  0.2386
 3304TIP3    H231548   1.231   4.531   0.248  2.1347 -1.5034 -3.0805
 3305TIP3   OH231549   5.448   0.398   1.895  1.0507  0.1453  0.2982
 3305TIP3    H131550   5.501   0.319   1.903 -1.9904 -2.1651 -0.3194
 3305TIP3    H231551   5.412   0.412   1.982 -1.3837 -1.5595 -0.3331
 3306TIP3   OH231552   2.955   5.328   0.693 -1.1351 -0.4476 -0.5527
 3306TIP3    H131553   2.873   5.328   0.743 -0.8723 -0.9173 -0.1160
 3306TIP3    H231554   2.980   5.236   0.687  0.8076 -0.1481  1.7628
 3307TIP3   OH231555   3.484   5.480   7.943  0.0048  0.4842  1.0481
 3307TIP3    H131556   3.497   5.553   8.003 -0.8919  0.9590  0.6777
 3307TIP3    H231557   3.453   5.520   7.862  1.0255 -0.1642  0.2990
 3308TIP3   OH231558   5.442   6.176   7.280  0.0496 -0.0540 -0.2500
 3308TIP3    H131559   5.449   6.258   7.230  0.4349 -0.3665 -0.7153
 3308TIP3    H231560   5.514   6.122   7.248 -2.9816 -2.5918 -3.6318
 3309TIP3   OH231561   2.043   4.101   8.454  0.3816 -0.2503  0.2021
 3309TIP3    H131562   2.036   4.188   8.414  0.2118 -1.0046 -1.4917
 3309TIP3    H231563   2.106   4.054   8.398 -1.3034 -1.9640 -0.3750
 3310TIP3   OH231564   0.651   1.134   2.154  0.8774 -0.2585 -0.4751
 3310TIP3    H131565   0.590   1.110   2.224  2.1483 -1.9844  0.1161
 3310TIP3    H231566   0.596   1.178   2.088 -0.4685  0.8766  1.2845
 3311TIP3   OH231567   0.658   5.803   1.641 -0.2999 -0.0642 -0.5281
 3311TIP3    H131568   0.719   5.806   1.715 -2.3973 -1.1770  1.4004
 3311TIP3    H231569   0.627   5.894   1.632 -0.8805 -0.1069  0.7974
 3312TIP3   OH231570   3.634   1.790   0.676 -0.6402  0.5093 -0.4240
 3312TIP3    H131571   3.646   1.791   0.581 -2.2692 -0.0078 -0.6627
 3312TIP3    H231572   3.681   1.711   0.705  0.7283  1.2170 -0.6453
 3313TIP3   OH231573   4.379   5.748   2.166 -0.7737  0.2089  0.2897
 3313TIP3    H131574   4.301   5.713   2.208 -1.8744  2.8351  0.6442
 3313TIP3    H231575   4.439   5.768   2.238 -0.2010 -0.8105  0.1038
 3314TIP3   OH231576   3.564   0.436   7.086 -0.5669 -0.2211  0.7618
 3314TIP3    H131577   3.488   0.455   7.141 -0.0706 -1.5950  1.9989
 3314TIP3    H231578   3.558   0.342   7.070 -0.3666  0.0414 -1.1052
 3315TIP3   OH231579   4.993   5.267   8.465  0.5523  0.2631  0.1567
 3315TIP3    H131580   4.934   5.337   8.437  0.2842  0.4183  1.0515
 3315TIP3    H231581   4.941   5.187   8.457  0.4057  0.3320  0.4025
 3316TIP3   OH231582   0.649   3.696   2.344 -0.1553 -0.5842  0.4514
 3316TIP3    H131583   0.595   3.762   2.389 -0.3721  1.9476 -3.0784
 3316TIP3    H231584   0.737   3.710   2.378 -0.7279 -0.8244  2.1424
 3317TIP3   OH231585   4.519   1.876   1.860  0.3330 -0.0787 -0.3459
 3317TIP3    H131586   4.564   1.917   1.935 -0.5566 -0.2546  0.3057
 3317TIP3    H231587   4.523   1.782   1.879 -0.3310 -0.0911 -0.2627
 3318TIP3   OH231588   6.572   6.186   7.629  0.1663 -0.0419 -0.3961
 3318TIP3    H131589   6.636   6.202   7.699 -0.7619  3.4135 -0.1430
 3318TIP3    H231590   6.608   6.231   7.552 -1.3191  0.9475 -0.5703
 3319TIP3   OH231591   5.188   3.796   0.811  0.2764  0.5683  0.1341
 3319TIP3    H131592   5.187   3.892   0.804 -0.7159  0.5128 -0.8610
 3319TIP3    H231593   5.193   3.766   0.721 -0.6197 -0.3169  0.3658
 3320TIP3   OH231594   2.507   2.248   1.573  0.4138 -0.0589  0.0071
 3320TIP3    H131595   2.530   2.178   1.635 -0.5164 -0.5618 -0.1946
 3320TIP3    H231596   2.413   2.260   1.585  0.5481  1.1045 -0.0308
 3321TIP3   OH231597   6.256   3.354   7.512 -0.0763  0.7246  0.6372
 3321TIP3    H131598   6.316   3.289   7.550  1.5145  1.9970  0.4190
 3321TIP3    H231599   6.171   3.310   7.511  1.1930 -1.9661 -1.0031
 3322TIP3   OH231600   3.610   4.682   8.059 -0.7232  0.0638  0.5461
 3322TIP3    H131601   3.654   4.642   7.984  0.0224  0.5386  0.7263
 3322TIP3    H231602   3.681   4.713   8.115 -1.2221  2.8534 -0.2071
 3323TIP3   OH231603   1.311   0.539   0.323  0.4283  0.1051  0.2288
 3323TIP3    H131604   1.270   0.621   0.349  1.9625  0.3927  1.9705
 3323TIP3    H231605   1.244   0.473   0.335  0.0022  0.7495  1.5223
 3324TIP3   OH231606   3.778   1.651   1.069  0.4055 -0.0078  0.2306
 3324TIP3    H131607   3.699   1.619   1.112  0.8613  0.1319  1.1927
 3324TIP3    H231608   3.749   1.676   0.981 -0.2542 -1.6654 -0.0559
 3325TIP3   OH231609   6.421   0.376   0.751  0.4053  0.2525  0.6760
 3325TIP3    H131610   6.447   0.440   0.684  0.6048  0.0193  0.5320
 3325TIP3    H231611   6.491   0.380   0.816  1.7610 -1.6760 -0.5849
 3326TIP3   OH231612   0.096   4.529   0.960  0.2668  0.1712 -0.4495
 3326TIP3    H131613   0.088   4.500   1.051 -0.5113  1.6160 -0.0258
 3326TIP3    H231614   0.189   4.517   0.939  0.5487  0.2214  0.6837
 3327TIP3   OH231615   3.943   4.457   7.662  0.1761  0.1492  0.0672
 3327TIP3    H131616   3.993   4.445   7.743  0.4209  0.2666 -0.0643
 3327TIP3    H231617   3.951   4.374   7.617 -2.1916 -0.8711  1.3699
 3328TIP3   OH231618   0.721   6.814   1.640 -0.6004 -0.1247  0.2142
 3328TIP3    H131619   0.746   6.724   1.664  1.3364  0.5026  0.7190
 3328TIP3    H231620   0.717   6.861   1.723 -0.8514  0.4314 -0.1100
 3329TIP3   OH231621   0.395   3.109   0.165 -0.3092  0.3512  0.2332
 3329TIP3    H131622   0.406   3.102   0.259  0.0508  0.4817  0.2031
 3329TIP3    H231623   0.481   3.137   0.133 -0.0724 -0.8967 -0.2630
 3330TIP3   OH231624   3.791   2.229   2.099 -0.0549  0.2648 -0.7130
 3330TIP3    H131625   3.729   2.294   2.066  1.2993  1.6244 -0.6844
 3330TIP3    H231626   3.795   2.244   2.193  0.4203  0.2909 -0.7326
 3331TIP3   OH231627   2.988   4.163   0.288 -0.8221  0.3753 -0.0098
 3331TIP3    H131628   3.035   4.246   0.280  0.1291 -0.2171 -0.8564
 3331TIP3    H231629   2.909   4.184   0.337  0.1896  1.4663  1.2285
 3332TIP3   OH231630   0.242   4.895   0.341 -0.4794  0.0709  0.2731
 3332TIP3    H131631   0.310   4.859   0.284 -0.3066  1.5255 -0.4916
 3332TIP3    H231632   0.232   4.985   0.311 -0.4496  0.8583  2.4981
 3333TIP3   OH231633   2.841   0.518   1.783  0.2078 -0.2659 -0.0996
 3333TIP3    H131634   2.784   0.516   1.707 -1.5445 -0.5189  1.1522
 3333TIP3    H231635   2.859   0.611   1.798  0.4063 -0.2071 -0.7173
 3334TIP3   OH231636   0.967   4.914   1.369  0.2829 -0.2704  0.6136
 3334TIP3    H131637   0.937   4.973   1.300  2.0497 -1.1409 -0.9861
 3334TIP3    H231638   1.014   4.970   1.431 -0.7641  0.4194  0.8213
 3335TIP3   OH231639   6.277   6.298   8.600 -0.1667  0.1669  0.1421
 3335TIP3    H131640   6.321   6.293   8.516 -0.3607 -0.4269  0.0642
 3335TIP3    H231641   6.273   6.207   8.630  2.5255  0.6108  2.1828
 3336TIP3   OH231642   1.767   4.852   7.560 -0.1939  0.4896 -0.0492
 3336TIP3    H131643   1.709   4.776   7.560  1.2632 -0.7889  2.7192
 3336TIP3    H231644   1.804   4.855   7.472 -0.2500 -2.0913 -0.2222
 3337TIP3   OH231645   6.042   1.789   7.458 -0.1305  0.4116  0.1788
 3337TIP3    H131646   6.014   1.841   7.382 -0.9367  0.6465  0.6188
 3337TIP3    H231647   5.976   1.720   7.465  0.1308  0.1918  0.4608
 3338TIP3   OH231648   0.555   6.449   2.315  0.0134  0.6731  0.2174
 3338TIP3    H131649   0.632   6.392   2.309  0.4900  1.2096  1.0680
 3338TIP3    H231650   0.588   6.531   2.351 -0.8379  1.1617 -0.0824
 3339TIP3   OH231651   4.141   4.635   8.277  0.1228  0.0253  0.1102
 3339TIP3    H131652   4.162   4.560   8.222  1.2377 -1.6497  2.6255
 3339TIP3    H231653   4.049   4.621   8.302 -0.6103  1.1650 -1.7519
 3340TIP3   OH231654   5.668   1.792   7.014  0.3577  0.0592 -0.1034
 3340TIP3    H131655   5.580   1.828   7.025  0.3982  0.8409 -2.0592
 3340TIP3    H231656   5.725   1.868   7.020  0.8006 -0.2700 -0.1405
 3341TIP3   OH231657   2.014   4.683   1.051  0.6505  0.3299 -0.2816
 3341TIP3    H131658   2.086   4.678   0.989  1.1213 -2.3211  0.3853
 3341TIP3    H231659   1.950   4.618   1.021 -0.6569  1.3403  0.1671
 3342TIP3   OH231660   0.745   2.489   0.504 -0.3636  0.0861  0.3186
 3342TIP3    H131661   0.804   2.415   0.514 -1.1009 -0.3966  1.2472
 3342TIP3    H231662   0.796   2.554   0.455  0.0851 -1.2416 -1.0723
 3343TIP3   OH231663   3.867   6.594   7.073  0.3032  0.3575 -0.0086
 3343TIP3    H131664   3.805   6.667   7.077 -1.9289 -1.3178 -1.5637
 3343TIP3    H231665   3.819   6.524   7.029  3.7155 -0.6782 -2.4944
 3344TIP3   OH231666   2.816   4.137   7.825 -0.4925  0.0213 -0.0345
 3344TIP3    H131667   2.850   4.170   7.909 -0.8455 -1.2373  0.6262
 3344TIP3    H231668   2.745   4.197   7.803  0.3709  1.0679 -0.0498
 3345TIP3   OH231669   6.789   4.153   1.038  0.1329  0.0648 -0.2963
 3345TIP3    H131670   6.843   4.174   1.114  0.3517 -0.9589 -0.1600
 3345TIP3    H231671   6.699   4.173   1.067 -0.1622 -2.9464  1.2962
 3346TIP3   OH231672   3.776   4.750   0.654  0.7749  0.1568  0.1508
 3346TIP3    H131673   3.770   4.721   0.745  0.9343 -2.1062 -0.4824
 3346TIP3    H231674   3.696   4.800   0.639 -0.0636 -0.8460  1.1092
 3347TIP3   OH231675   6.535   2.149   2.906 -0.4016 -0.0532  0.6372
 3347TIP3    H131676   6.559   2.073   2.853  1.4113 -0.8406  2.4597
 3347TIP3    H231677   6.614   2.169   2.957 -0.8522  2.9917  0.3532
 3348TIP3   OH231678   0.935   2.407   8.139  0.0484  0.1701 -0.1215
 3348TIP3    H131679   0.965   2.321   8.110  0.0316 -0.2114  0.9317
 3348TIP3    H231680   0.852   2.421   8.092 -0.3870 -0.7787  0.3293
 3349TIP3   OH231681   4.739   3.305   2.385 -0.6297 -0.6871  0.0695
 3349TIP3    H131682   4.650   3.287   2.356 -0.9004  0.9890 -0.2689
 3349TIP3    H231683   4.747   3.262   2.470 -2.6625  1.2903  1.3519
 3350TIP3   OH231684   4.592   0.377   2.708  0.1639 -0.5247 -0.6513
 3350TIP3    H131685   4.574   0.300   2.654  0.8157 -1.4305  0.3622
 3350TIP3    H231686   4.554   0.450   2.660 -1.2640 -1.5905 -1.2180
 3351TIP3   OH231687   6.219   6.421   0.734  0.2021 -0.0603  0.1452
 3351TIP3    H131688   6.266   6.457   0.659 -0.8751 -0.4943 -0.7656
 3351TIP3    H231689   6.131   6.456   0.726  0.2882  0.6024  1.7285
 3352TIP3   OH231690   0.342   1.563   0.517 -0.2192 -0.3258  0.6631
 3352TIP3    H131691   0.345   1.467   0.526  3.1097 -0.5913 -1.5910
 3352TIP3    H231692   0.394   1.581   0.439 -0.8806  3.3758  0.9253
 3353TIP3   OH231693   0.616   6.668   1.432  0.4787 -0.0610  0.1434
 3353TIP3    H131694   0.663   6.723   1.370  0.2151  0.0653  0.0502
 3353TIP3    H231695   0.680   6.646   1.500  0.0301  2.2447  1.4182
 3354TIP3   OH231696   5.191   1.377   1.515  0.3313  0.2669 -0.3631
 3354TIP3    H131697   5.207   1.310   1.581  0.4154  0.4408 -0.2087
 3354TIP3    H231698   5.097   1.371   1.497  0.5593 -0.8203 -1.3391
 3355TIP3   OH231699   6.333   3.356   7.220  1.0360 -0.5460 -0.0187
 3355TIP3    H131700   6.274   3.363   7.295  1.6396 -4.5247  1.1151
 3355TIP3    H231701   6.421   3.367   7.257  1.2724 -1.1587 -0.3720
 3356TIP3   OH231702   3.349   1.920   7.846  0.2407 -0.5873 -0.1187
 3356TIP3    H131703   3.340   1.985   7.776 -0.5937  0.2853  0.7592
 3356TIP3    H231704   3.443   1.916   7.863  0.4147 -0.4949 -0.9841
 3357TIP3   OH231705   6.367   4.693   0.484  0.4218  0.3559 -0.0898
 3357TIP3    H131706   6.402   4.698   0.395 -1.8938  0.8696 -1.0317
 3357TIP3    H231707   6.354   4.600   0.499 -0.0238  0.3275 -0.6373
 3358TIP3   OH231708   0.729   6.304   2.675  0.5613 -0.6869  0.6429
 3358TIP3    H131709   0.781   6.271   2.748  2.3061  1.6096  0.5540
 3358TIP3    H231710   0.792   6.319   2.605 -0.8430 -1.3815 -0.8358
 3359TIP3   OH231711   1.130   4.194   7.886  0.3377 -0.2156  0.0457
 3359TIP3    H131712   1.071   4.145   7.829 -0.3020 -0.0507  0.5461
 3359TIP3    H231713   1.071   4.246   7.941  1.0062  1.6896 -0.9679
 3360TIP3   OH231714   2.061   3.369   1.474 -0.4284  0.3442  0.1205
 3360TIP3    H131715   2.131   3.424   1.439  0.0902 -0.2427  0.2264
 3360TIP3    H231716   1.997   3.431   1.509  0.4665  0.8695  0.8596
 3361TIP3   OH231717   1.757   0.712   8.044  0.5617  0.3857 -0.6677
 3361TIP3    H131718   1.719   0.732   7.959 -1.0046  1.4868  0.2415
 3361TIP3    H231719   1.693   0.654   8.086  1.6300 -0.7006 -0.4556
 3362TIP3   OH231720   3.635   4.405   6.791 -0.0684 -0.0773 -0.0061
 3362TIP3    H131721   3.601   4.415   6.702 -2.2433  0.3734  0.8308
 3362TIP3    H231722   3.716   4.456   6.791 -1.7716  2.8712 -0.8365
 3363TIP3   OH231723   6.267   3.551   1.633 -0.4015 -0.1493  0.0840
 3363TIP3    H131724   6.250   3.598   1.715 -1.1884  2.6058 -1.5478
 3363TIP3    H231725   6.362   3.555   1.622 -0.1653 -1.4328  1.2739
 3364TIP3   OH231726   4.649   0.911   7.704 -0.3602 -0.2887  0.3643
 3364TIP3    H131727   4.703   0.989   7.716 -1.2775  0.4070  0.1179
 3364TIP3    H231728   4.591   0.910   7.780 -0.4985 -0.5985  0.2537
 3365TIP3   OH231729   4.637   3.750   0.654  0.6690  0.2561  0.0771
 3365TIP3    H131730   4.732   3.761   0.661  0.4984  2.2615 -0.1232
 3365TIP3    H231731   4.604   3.838   0.635 -1.2648 -0.3543  0.3876
 3366TIP3   OH231732   2.625   2.958   7.205  0.1171  0.1009  0.2272
 3366TIP3    H131733   2.702   3.014   7.220 -0.3927  0.9400 -0.2140
 3366TIP3    H231734   2.572   2.968   7.285  0.3148 -0.2374  0.4031
 3367TIP3   OH231735   0.865   0.599   2.402  0.1241  0.2993  0.4389
 3367TIP3    H131736   0.788   0.566   2.356  1.8138 -2.1730 -0.8345
 3367TIP3    H231737   0.892   0.528   2.460  1.5057  1.0388  0.7660
 3368TIP3   OH231738   6.233   3.730   1.848  0.2049 -0.2623 -0.5208
 3368TIP3    H131739   6.219   3.780   1.928 -1.0309 -1.4345  0.0409
 3368TIP3    H231740   6.234   3.796   1.778  2.6572  0.9346  0.5072
 3369TIP3   OH231741   2.775   0.489   1.470  0.1583 -0.2693  0.2202
 3369TIP3    H131742   2.838   0.520   1.405  0.7330 -0.9580  0.4315
 3369TIP3    H231743   2.745   0.568   1.514  1.7436  0.0064  0.8926
 3370TIP3   OH231744   4.024   2.668   3.070 -0.0025 -0.2486 -0.0417
 3370TIP3    H131745   4.003   2.612   3.145 -1.3767  0.2088 -0.0535
 3370TIP3    H231746   4.110   2.705   3.091 -0.6545  0.4116  1.6487
 3371TIP3   OH231747   3.700   6.630   2.139 -0.1103 -1.0408 -0.2928
 3371TIP3    H131748   3.748   6.705   2.174 -0.2020  0.1861 -2.5927
 3371TIP3    H231749   3.708   6.563   2.207 -1.2394  1.4518  2.5581
 3372TIP3   OH231750   1.205   1.544   0.376  0.3016 -0.2816  0.1067
 3372TIP3    H131751   1.119   1.583   0.365  0.3392 -0.3156 -0.3236
 3372TIP3    H231752   1.228   1.511   0.288  1.5907  1.4492 -0.2477
 3373TIP3   OH231753   3.663   3.934   7.895  0.1556 -0.1359  0.9568
 3373TIP3    H131754   3.669   3.843   7.868  2.0688  0.5405 -1.2101
 3373TIP3    H231755   3.599   3.973   7.834  1.8391  0.6249 -0.4167
 3374TIP3   OH231756   2.645   0.485   7.544 -0.4714 -0.1149 -0.1626
 3374TIP3    H131757   2.738   0.506   7.535 -0.1038 -1.6493 -0.1349
 3374TIP3    H231758   2.617   0.536   7.620  0.7686 -0.9013  0.8619
 3375TIP3   OH231759   2.666   5.311   0.579 -0.1625  0.2395  0.1661
 3375TIP3    H131760   2.667   5.306   0.483 -0.6554 -1.2464  0.2132
 3375TIP3    H231761   2.638   5.400   0.598 -1.3862  0.1570 -1.1008
 3376TIP3   OH231762   3.718   2.919   7.635 -0.1250 -1.1056 -0.3656
 3376TIP3    H131763   3.687   2.877   7.716  1.3721 -2.6330 -0.5441
 3376TIP3    H231764   3.725   3.012   7.658 -2.4250 -1.0428  0.3793
 3377TIP3   OH231765   5.000   1.817   7.303  0.0282 -0.0627 -1.3007
 3377TIP3    H131766   4.966   1.905   7.286  0.2568  0.6805  1.4900
 3377TIP3    H231767   5.092   1.832   7.326 -0.1560 -0.8728  0.0707
 3378TIP3   OH231768   6.805   2.098   0.878 -0.1812  0.0443 -0.4742
 3378TIP3    H131769   6.863   2.061   0.945  1.3649  2.7737 -0.1614
 3378TIP3    H231770   6.720   2.059   0.896  1.0288 -2.4338  0.4479
 3379TIP3   OH231771   2.445   4.323   0.594  0.3429 -0.1579 -0.6889
 3379TIP3    H131772   2.428   4.371   0.675 -0.3006 -1.5245  0.0121
 3379TIP3    H231773   2.529   4.357   0.563  0.1124  1.1058 -0.0061
 3380TIP3   OH231774   5.861   2.201   2.687  0.9634 -0.2758 -0.2107
 3380TIP3    H131775   5.870   2.236   2.599  0.7263  0.1983 -0.0528
 3380TIP3    H231776   5.950   2.185   2.717  1.0244 -1.0560 -0.7709
 3381TIP3   OH231777   5.567   6.486   7.514 -0.2369 -0.4974  0.3647
 3381TIP3    H131778   5.534   6.501   7.602  1.2409  1.6449  0.6346
 3381TIP3    H231779   5.489   6.489   7.458 -0.9718  0.1682  1.3965
 3382TIP3   OH231780   4.609   6.785   8.407  0.1297  0.2351 -0.5021
 3382TIP3    H131781   4.687   6.836   8.386 -0.7295  0.8303 -2.4641
 3382TIP3    H231782   4.587   6.741   8.325 -0.9649 -0.8185  0.3282
 3383TIP3   OH231783   3.602   4.924   0.020  0.3324  0.0330 -0.0927
 3383TIP3    H131784   3.585   4.887  -0.066  1.1491  2.1732 -1.2474
 3383TIP3    H231785   3.692   4.957   0.015  0.2917  0.4838  1.4868
 3384TIP3   OH231786   4.601   1.396   8.262 -0.1191  0.0772  0.1801
 3384TIP3    H131787   4.555   1.451   8.326 -4.0877 -2.5125 -0.0822
 3384TIP3    H231788   4.637   1.324   8.313  1.1457  0.5717  0.0153
 3385TIP3   OH231789   1.126   4.954   1.793  0.1272 -0.0184 -0.1560
 3385TIP3    H131790   1.093   4.866   1.772 -0.4888  0.1590  0.0255
 3385TIP3    H231791   1.056   4.993   1.845  0.3873  0.5930 -0.2577
 3386TIP3   OH231792   2.343   3.961   8.576  0.0429  0.2763  0.0160
 3386TIP3    H131793   2.405   4.027   8.607  1.4806 -1.2881  0.5646
 3386TIP3    H231794   2.294   3.936   8.654 -2.0686  2.1952 -0.5732
 3387TIP3   OH231795   1.099   2.081   2.266 -0.1368 -0.2974  0.8656
 3387TIP3    H131796   1.166   2.016   2.288 -0.5219 -0.8902  0.3350
 3387TIP3    H231797   1.113   2.099   2.173 -1.2044 -1.0339  0.5413
 3388TIP3   OH231798   2.752   3.915   2.329  0.1357 -0.0853  0.0112
 3388TIP3    H131799   2.697   3.839   2.307 -0.1890 -0.2945  1.4378
 3388TIP3    H231800   2.717   3.986   2.276  0.0044 -0.7730 -0.8466
 3389TIP3   OH231801   3.858   0.102   1.216 -0.2149  0.1491 -0.1496
 3389TIP3    H131802   3.937   0.059   1.247 -0.8131 -0.7769  0.1333
 3389TIP3    H231803   3.833   0.160   1.288 -0.8132 -0.9414  0.5414
 3390TIP3   OH231804   3.937   4.159   7.108  0.0861 -0.3133  0.4454
 3390TIP3    H131805   4.012   4.186   7.160  0.3697 -0.4923  0.1297
 3390TIP3    H231806   3.972   4.093   7.047 -0.1476  0.2390 -0.2966
 3391TIP3   OH231807   3.645   4.344   2.132 -0.0552  0.7631 -1.0775
 3391TIP3    H131808   3.559   4.316   2.162 -0.4050  1.2581 -1.6054
 3391TIP3    H231809   3.628   4.421   2.077  0.2753 -1.4649 -4.6206
 3392TIP3   OH231810   0.554   1.260   1.896  0.3965  0.0806  0.3099
 3392TIP3    H131811   0.570   1.354   1.885  0.0377  0.0924 -0.1324
 3392TIP3    H231812   0.609   1.219   1.829 -0.1025  0.0250 -0.0675
 3393TIP3   OH231813   4.260   4.020   7.404 -0.1638 -0.0591  0.1735
 3393TIP3    H131814   4.235   4.029   7.496 -0.5430 -0.3370  0.0990
 3393TIP3    H231815   4.187   3.973   7.364  1.3107 -2.6974  0.3548
 3394TIP3   OH231816   5.398   5.197   8.356  0.1786 -0.7962  0.2848
 3394TIP3    H131817   5.467   5.164   8.298 -1.4849 -2.5284 -0.8168
 3394TIP3    H231818   5.317   5.185   8.306 -1.2785 -1.8774  2.7296
 3395TIP3   OH231819   3.828   2.228   0.584 -0.2880  0.0667  0.0162
 3395TIP3    H131820   3.921   2.243   0.603 -0.4359 -0.5197  1.2719
 3395TIP3    H231821   3.822   2.133   0.570 -0.3299  0.3517 -2.3376
 3396TIP3   OH231822   0.245   0.251   1.669 -0.5488 -0.2903  0.0779
 3396TIP3    H131823   0.238   0.158   1.692  0.0585  0.2400  2.7689
 3396TIP3    H231824   0.300   0.288   1.738  0.0227  1.9112 -1.4670
 3397TIP3   OH231825   6.298   0.511   7.658  0.3794 -0.3532 -0.1465
 3397TIP3    H131826   6.385   0.482   7.633  0.3653  0.5181 -1.3025
 3397TIP3    H231827   6.242   0.487   7.584 -0.4084 -1.0837  0.6683
 3398TIP3   OH231828   1.841   2.266   7.930  0.5822 -0.1448 -0.1142
 3398TIP3    H131829   1.850   2.247   7.837 -0.1141  1.6449 -0.5955
 3398TIP3    H231830   1.794   2.350   7.933  1.1893  0.1830  1.8332
 3399TIP3   OH231831   5.047   1.572   1.698 -0.2675  0.3011  0.1393
 3399TIP3    H131832   4.989   1.555   1.623  0.5569  0.5201 -0.5587
 3399TIP3    H231833   5.022   1.506   1.763 -0.5929 -0.2741 -0.5595
 3400TIP3   OH231834   0.017   0.914   7.635  0.4682 -0.1441 -0.5267
 3400TIP3    H131835   0.022   0.885   7.726 -1.0022  1.7668  0.2136
 3400TIP3    H231836   0.108   0.928   7.609  0.8317  1.3424  1.3796
 3401TIP3   OH231837   1.604   1.501   1.763 -0.2359 -0.0682  0.1286
 3401TIP3    H131838   1.579   1.420   1.806 -1.4587  0.6307  0.8128
 3401TIP3    H231839   1.667   1.475   1.696  1.1768 -1.2880  1.8458
 3402TIP3   OH231840   2.733   2.045   2.045  0.5582 -0.0753 -0.3335
 3402TIP3    H131841   2.689   2.092   2.115 -1.1240 -1.8249 -0.1410
 3402TIP3    H231842   2.822   2.030   2.078 -0.1569 -0.7510  1.4003
 3403TIP3   OH231843   0.574   0.741   7.721 -0.2629 -0.1420 -0.4400
 3403TIP3    H131844   0.553   0.744   7.814  0.9056 -1.7694 -0.0848
 3403TIP3    H231845   0.570   0.833   7.693  1.6838  0.7225  1.7771
 3404TIP3   OH231846   5.333   4.255   8.312 -0.9039 -0.0280  0.1417
 3404TIP3    H131847   5.244   4.239   8.344 -0.9484  0.5246  0.3178
 3404TIP3    H231848   5.388   4.200   8.368 -0.8194  2.0631  2.3153
 3405TIP3   OH231849   3.389   4.345   0.374  0.2540  0.2786  0.5785
 3405TIP3    H131850   3.477   4.362   0.407  0.0523  1.0067  0.7590
 3405TIP3    H231851   3.392   4.254   0.343  0.3257 -0.6695  3.0835
 3406TIP3   OH231852   4.224   1.509   0.091 -0.1800 -0.2403 -0.6254
 3406TIP3    H131853   4.296   1.447   0.093 -0.9088 -1.1028 -0.0564
 3406TIP3    H231854   4.163   1.473   0.027 -0.3559  0.1844 -0.7005
 3407TIP3   OH231855   1.732   5.423   0.003 -0.5702 -0.1299  0.2490
 3407TIP3    H131856   1.822   5.420  -0.030 -1.2076  0.7342 -1.7196
 3407TIP3    H231857   1.734   5.370   0.082  1.4367 -1.0252 -0.3342
 3408TIP3   OH231858   6.306   1.602   0.856  0.1893 -0.1298 -0.1545
 3408TIP3    H131859   6.338   1.512   0.853  0.7071  0.0519 -0.1451
 3408TIP3    H231860   6.385   1.656   0.862 -0.1218  0.3188 -0.0026
 3409TIP3   OH231861   3.781   1.319   2.059 -0.3328  0.3506  0.0741
 3409TIP3    H131862   3.769   1.338   1.966  0.1002 -1.1751 -0.3198
 3409TIP3    H231863   3.697   1.283   2.087  0.4787 -2.2375 -0.5679
 3410TIP3   OH231864   3.079   6.683   0.420 -0.1658  0.3104 -0.1817
 3410TIP3    H131865   3.051   6.676   0.329  1.3861  0.9842 -0.7430
 3410TIP3    H231866   3.102   6.593   0.444  5.0873  0.7164 -2.4452
 3411TIP3   OH231867   3.929   4.611   7.427  0.0525 -0.4013 -0.9115
 3411TIP3    H131868   3.956   4.562   7.504  0.4706 -0.5144 -1.1266
 3411TIP3    H231869   3.941   4.703   7.451  1.1519 -0.4529 -1.1734
 3412TIP3   OH231870   0.702   5.670   0.966  0.2240  0.0202 -0.0477
 3412TIP3    H131871   0.644   5.679   1.042  2.6392 -0.6810  2.0085
 3412TIP3    H231872   0.729   5.578   0.966 -0.5553 -0.2973 -2.5115
 3413TIP3   OH231873   3.108   3.075   8.425  0.4417 -0.6318  0.2183
 3413TIP3    H131874   3.196   3.088   8.461  0.3646  2.1243 -0.3529
 3413TIP3    H231875   3.050   3.117   8.488 -0.4472 -2.0588  0.3784
 3414TIP3   OH231876   1.139   4.255   6.935  0.3007 -0.3253 -0.2538
 3414TIP3    H131877   1.121   4.341   6.898  0.5090 -1.0980 -2.3236
 3414TIP3    H231878   1.117   4.194   6.864  0.4570 -1.9477  1.0423
 3415TIP3   OH231879   5.544   1.116   6.721  0.6487  0.0153 -0.7513
 3415TIP3    H131880   5.549   1.211   6.722 -1.9170  0.2716 -2.1520
 3415TIP3    H231881   5.617   1.088   6.667  2.4546  1.0005  1.0538
 3416TIP3   OH231882   5.123   1.937   3.034  0.1801  0.1044  0.1341
 3416TIP3    H131883   5.152   1.850   3.009 -0.0615  0.6143 -2.1020
 3416TIP3    H231884   5.059   1.922   3.103 -1.0037 -1.6086 -1.2526
 3417TIP3   OH231885   4.551   0.267   0.097 -0.0049  0.0200 -0.0424
 3417TIP3    H131886   4.505   0.210   0.159  0.3319  0.2086  0.3910
 3417TIP3    H231887   4.636   0.225   0.085  0.3004  0.5011  0.3925
 3418TIP3   OH231888   4.902   5.362   0.175  0.0097  0.7345 -0.1073
 3418TIP3    H131889   4.829   5.359   0.113  0.0613  0.8998 -0.1763
 3418TIP3    H231890   4.977   5.390   0.122  0.4399 -0.7760 -0.3407
 3419TIP3   OH231891   3.869   0.641   1.878  0.0769 -0.4216  0.1469
 3419TIP3    H131892   3.950   0.642   1.827 -0.0071  1.9273 -0.0630
 3419TIP3    H231893   3.876   0.718   1.935 -1.9932 -0.1958  0.1523
 3420TIP3   OH231894   1.403   3.983   7.743 -0.4217  0.7435 -0.1252
 3420TIP3    H131895   1.347   3.906   7.751  0.4198  0.2111  0.9537
 3420TIP3    H231896   1.365   4.034   7.671 -2.1872  0.3371  0.4765
 3421TIP3   OH231897   2.256   3.536   1.323 -0.2292 -0.0818 -0.1617
 3421TIP3    H131898   2.288   3.623   1.347  0.5748 -1.0254  2.5660
 3421TIP3    H231899   2.320   3.503   1.261  0.2361  0.7501 -0.1381
 3422TIP3   OH231900   2.753   1.235   7.454 -0.7929 -0.5351 -0.0501
 3422TIP3    H131901   2.792   1.169   7.396 -1.5604 -0.5201 -0.5983
 3422TIP3    H231902   2.755   1.195   7.540 -0.5375 -0.9627 -0.2501
 3423TIP3   OH231903   3.080   6.864   1.649  0.0864 -0.7206  0.0344
 3423TIP3    H131904   3.050   6.936   1.704  1.7659 -0.0600  0.1388
 3423TIP3    H231905   3.080   6.788   1.708 -1.1025 -0.7127  0.0804
 3424TIP3   OH231906   5.873   0.718   0.974 -0.3557  0.0825 -0.2719
 3424TIP3    H131907   5.885   0.782   0.904  1.4385  0.9401  0.7455
 3424TIP3    H231908   5.842   0.769   1.049  0.7629 -0.2306  0.4491
 3425TIP3   OH231909   5.632   1.140   1.202 -0.8049 -0.6123 -0.2038
 3425TIP3    H131910   5.570   1.176   1.138  3.2631  4.1050 -2.1028
 3425TIP3    H231911   5.686   1.080   1.152  0.7978  1.1777 -0.7486
 3426TIP3   OH231912   3.446   2.695   2.827 -0.0895 -0.1056  0.7488
 3426TIP3    H131913   3.444   2.611   2.780 -2.8156 -0.1144  0.7058
 3426TIP3    H231914   3.487   2.756   2.766 -0.2130 -0.9119 -0.1660
 3427TIP3   OH231915   1.488   0.557   7.459 -0.5866  0.5644  0.1554
 3427TIP3    H131916   1.561   0.601   7.502  1.0744 -1.9302  0.1392
 3427TIP3    H231917   1.502   0.574   7.365 -0.1105  0.2839  0.1685
 3428TIP3   OH231918   1.120   6.368   0.801  0.2906  0.1821  0.1438
 3428TIP3    H131919   1.063   6.437   0.836 -1.0977 -1.5592  1.4836
 3428TIP3    H231920   1.084   6.350   0.714 -1.3545 -0.9830  1.0242
 3429TIP3   OH231921   6.685   1.392   8.573 -0.4081 -0.7571 -0.0957
 3429TIP3    H131922   6.779   1.377   8.573 -0.4847 -1.2458 -0.1051
 3429TIP3    H231923   6.650   1.324   8.630 -0.6668 -0.0089  0.6456
 3430TIP3   OH231924   3.612   6.329   1.904 -0.0997 -0.1224  0.0863
 3430TIP3    H131925   3.620   6.274   1.982  0.3612  0.5710  0.5381
 3430TIP3    H231926   3.629   6.418   1.936 -1.6429  0.3986 -0.4612
 3431TIP3   OH231927   4.117   2.289   0.667 -0.1297  0.0546  0.1170
 3431TIP3    H131928   4.179   2.236   0.716 -0.1646  0.6545  0.8214
 3431TIP3    H231929   4.089   2.357   0.728  0.6771  1.5065 -1.0704
 3432TIP3   OH231930   3.167   3.862   1.644  0.3719  0.2300 -0.0850
 3432TIP3    H131931   3.145   3.950   1.674  0.5810  0.4646 -0.6059
 3432TIP3    H231932   3.258   3.849   1.672  0.6641  0.5615 -0.8487
 3433TIP3   OH231933   5.403   4.041   1.329 -0.1542 -0.5905  0.4625
 3433TIP3    H131934   5.474   4.068   1.388 -0.6773 -0.7295  1.1587
 3433TIP3    H231935   5.436   4.063   1.242  0.3113  0.3239  0.8545
 3434TIP3   OH231936   4.841   3.921   0.991 -0.5836 -0.7173 -0.5316
 3434TIP3    H131937   4.907   3.912   1.060  0.7610 -1.0524 -1.8116
 3434TIP3    H231938   4.818   4.014   0.992 -0.2474 -0.6362  0.0662
 3435TIP3   OH231939   4.944   0.331   7.539 -0.0243  0.3139  0.2078
 3435TIP3    H131940   5.016   0.392   7.551 -1.5759  2.1389  0.7669
 3435TIP3    H231941   4.947   0.274   7.616  1.8452 -0.8496 -0.6487
 3436TIP3   OH231942   1.200   5.565   7.900  0.0552 -0.7576 -0.1262
 3436TIP3    H131943   1.122   5.620   7.904 -0.7679 -1.7515 -1.3165
 3436TIP3    H231944   1.264   5.608   7.956 -0.3690  1.6681 -1.3832
 3437TIP3   OH231945   2.214   4.885   7.926  0.1442  0.1006  0.6441
 3437TIP3    H131946   2.146   4.853   7.866 -0.4819 -0.9344  1.8388
 3437TIP3    H231947   2.165   4.908   8.005  0.8589  2.1212  0.5435
 3438TIP3   OH231948   0.772   2.846   0.748  0.3266 -0.6533  0.2736
 3438TIP3    H131949   0.738   2.759   0.728 -0.5928  0.0219 -1.2279
 3438TIP3    H231950   0.821   2.834   0.829 -2.4817 -1.9431  1.9359
 3439TIP3   OH231951   2.098   1.863   0.806  0.2267 -0.4254  0.1172
 3439TIP3    H131952   2.186   1.826   0.820  1.3973  2.7858  2.6104
 3439TIP3    H231953   2.058   1.863   0.893 -1.0272  0.9123 -0.4148
 3440TIP3   OH231954   0.950   1.161   8.213 -0.0327  0.1395 -0.1128
 3440TIP3    H131955   0.976   1.221   8.144 -0.2983 -0.7826 -1.0426
 3440TIP3    H231956   0.888   1.101   8.171  0.8494 -1.2967  0.5528
 3441TIP3   OH231957   0.504   4.184   8.340 -0.0205  0.2991  0.2405
 3441TIP3    H131958   0.462   4.148   8.418 -1.1842  3.8330  1.4433
 3441TIP3    H231959   0.586   4.136   8.333 -1.4935 -2.6723  1.3876
 3442TIP3   OH231960   1.232   1.644   1.221  0.2312 -0.3814  0.0894
 3442TIP3    H131961   1.190   1.618   1.139 -1.1527 -0.0109  0.6648
 3442TIP3    H231962   1.311   1.691   1.193  0.8522 -1.9596 -0.9891
 3443TIP3   OH231963   4.224   2.314   1.461 -0.5055  0.0401  0.0637
 3443TIP3    H131964   4.134   2.297   1.435 -0.1549 -0.0616 -1.1603
 3443TIP3    H231965   4.267   2.342   1.380  0.0276  2.3954  1.0590
 3444TIP3   OH231966   5.632   3.286   0.311 -0.2728 -0.1238 -0.4932
 3444TIP3    H131967   5.644   3.304   0.218 -2.2664 -2.1824 -1.2472
 3444TIP3    H231968   5.690   3.212   0.329  0.5455  0.6426  0.0633
 3445TIP3   OH231969   3.625   6.735   8.289 -0.1509  0.3098 -0.1920
 3445TIP3    H131970   3.562   6.733   8.362 -1.0239  0.0052 -0.9346
 3445TIP3    H231971   3.581   6.784   8.220  0.5462  0.3328 -0.6290
 3446TIP3   OH231972   4.146   6.404   0.447  0.1867 -0.0921  0.1740
 3446TIP3    H131973   4.149   6.500   0.453 -0.6155 -0.1223  1.6391
 3446TIP3    H231974   4.116   6.386   0.358  2.1408  0.9439 -0.7645
 3447TIP3   OH231975   5.101   3.960   6.612 -0.0140  0.3410 -0.2032
 3447TIP3    H131976   5.080   4.054   6.612  1.8719  0.8376  1.4631
 3447TIP3    H231977   5.182   3.954   6.561 -0.0888 -0.3828 -0.2395
 3448TIP3   OH231978   1.055   5.302   8.556 -0.5677 -0.4972  0.1200
 3448TIP3    H131979   1.095   5.298   8.469 -0.3885 -0.2629  0.1911
 3448TIP3    H231980   1.100   5.235   8.607 -0.4515 -0.4140  0.1251
 3449TIP3   OH231981   2.164   3.236   7.848 -0.2381  0.1020  0.7884
 3449TIP3    H131982   2.170   3.275   7.761 -1.3966 -2.1469 -0.3953
 3449TIP3    H231983   2.243   3.182   7.856 -0.8240 -0.8170  0.5026
 3450TIP3   OH231984   1.369   4.248   8.195 -0.3834  0.2274 -0.4573
 3450TIP3    H131985   1.421   4.221   8.119  0.2201 -0.7918  0.2947
 3450TIP3    H231986   1.310   4.175   8.212  1.0829 -0.5926  1.4425
 3451TIP3   OH231987   6.528   4.786   0.699  0.2954  0.0094 -0.2130
 3451TIP3    H131988   6.495   4.718   0.640  0.1408 -1.4785  1.5336
 3451TIP3    H231989   6.459   4.852   0.700  0.6284  0.4569 -2.2487
 3452TIP3   OH231990   1.980   4.708   0.134 -0.6822 -0.1530  0.1187
 3452TIP3    H131991   1.915   4.652   0.092  0.4493 -0.5221 -1.2342
 3452TIP3    H231992   2.064   4.677   0.100  0.1301  0.9734  1.0159
 3453TIP3   OH231993   3.722   4.076   7.261  0.1827 -0.0546 -0.0342
 3453TIP3    H131994   3.683   3.997   7.225 -1.1825  0.0727  1.0926
 3453TIP3    H231995   3.794   4.097   7.201  0.8165 -2.3312 -0.1639
 3454TIP3   OH231996   4.336   3.362   1.954 -0.3432 -0.6364 -0.1120
 3454TIP3    H131997   4.277   3.414   2.010  0.5776  0.2021  0.1087
 3454TIP3    H231998   4.349   3.281   2.003  0.4404  0.0811  0.9195
 3455TIP3   OH231999   3.345   0.454   1.825  0.2742  0.2646 -0.6467
 3455TIP3    H132000   3.310   0.486   1.742 -2.1546 -2.3435 -0.8055
 3455TIP3    H232001   3.425   0.504   1.838 -0.3111  2.2380 -3.4971
 3456TIP3   OH232002   1.704   2.569   7.749  0.2345  0.4242 -0.2575
 3456TIP3    H132003   1.762   2.639   7.780  0.6903  0.0047 -0.1576
 3456TIP3    H232004   1.717   2.567   7.655 -0.3172  0.9532 -0.3482
 3457TIP3   OH232005   4.954   6.634   6.602 -0.8698 -0.2279  0.5263
 3457TIP3    H132006   4.978   6.722   6.574  0.1530 -1.2426 -2.1222
 3457TIP3    H232007   5.033   6.582   6.589 -1.5784 -1.6529  1.5881
 3458TIP3   OH232008   5.364   0.644   0.899  0.1141 -0.2405  0.1838
 3458TIP3    H132009   5.415   0.623   0.977  0.9375 -2.3169 -0.8441
 3458TIP3    H232010   5.397   0.585   0.832  0.3538  2.3318 -2.1609
 3459TIP3   OH232011   4.808   5.327   7.367 -0.2632  0.0512 -0.8468
 3459TIP3    H132012   4.842   5.238   7.376  1.2897  0.6370 -0.6733
 3459TIP3    H232013   4.743   5.321   7.297  1.3259 -0.8338 -2.3232
 3460TIP3   OH232014   1.879   1.809   7.882  0.7303 -0.3719 -0.0020
 3460TIP3    H132015   1.826   1.830   7.959  0.4846 -0.5125 -0.1320
 3460TIP3    H232016   1.929   1.888   7.865 -0.7363  0.3874 -0.9427
 3461TIP3   OH232017   3.345   4.900   0.449 -0.5199 -0.0007 -0.1756
 3461TIP3    H132018   3.346   4.986   0.491 -0.5545 -0.2278  0.2969
 3461TIP3    H232019   3.386   4.914   0.364 -2.6885  1.0058 -1.1379
 3462TIP3   OH232020   1.306   3.903   8.092 -0.9332  0.2898 -0.1572
 3462TIP3    H132021   1.374   3.878   8.030 -0.4959 -0.7350  0.7088
 3462TIP3    H232022   1.290   3.825   8.144 -2.8730  0.4748 -0.4014
 3463TIP3   OH232023   2.139   0.583   2.132 -0.3302  0.2235 -0.3723
 3463TIP3    H132024   2.127   0.488   2.139  0.0881  0.2474  0.8170
 3463TIP3    H232025   2.138   0.614   2.222  1.2723  1.1267 -0.6243
 3464TIP3   OH232026   3.615   6.176   2.138 -0.6615 -0.8683 -0.0685
 3464TIP3    H132027   3.661   6.094   2.159  0.0290 -0.1942  1.1169
 3464TIP3    H232028   3.526   6.162   2.171  0.1378 -0.2080  2.5338
 3465TIP3   OH232029   6.298   6.832   8.414  0.2716  0.0816  0.6926
 3465TIP3    H132030   6.347   6.907   8.380 -0.6042 -0.0998 -1.1422
 3465TIP3    H232031   6.216   6.833   8.364 -0.3120 -1.3417  1.5638
 3466TIP3   OH232032   3.688   1.855   0.360 -0.6087  0.4384 -0.1787
 3466TIP3    H132033   3.765   1.797   0.360 -1.1794 -0.3442 -1.0504
 3466TIP3    H232034   3.720   1.937   0.323  0.0518  0.4726  0.4446
 3467TIP3   OH232035   1.880   5.768   8.583 -0.1277  0.0563  0.2869
 3467TIP3    H132036   1.849   5.679   8.600  1.0893 -0.2411  1.0664
 3467TIP3    H232037   1.917   5.797   8.666  1.3229  0.5208 -0.4875
 3468TIP3   OH232038   6.222   0.637   2.720  0.2447 -0.1959 -0.6318
 3468TIP3    H132039   6.315   0.636   2.742  0.2936  0.6335 -0.7838
 3468TIP3    H232040   6.212   0.711   2.660 -0.8217  0.9231  0.8303
 3469TIP3   OH232041   6.757   3.134   1.586 -0.0006 -0.0051 -0.3816
 3469TIP3    H132042   6.728   3.117   1.496  1.2811 -2.2875 -0.4625
 3469TIP3    H232043   6.843   3.175   1.576  0.1333 -0.2419 -0.2123
 3470TIP3   OH232044   3.186   5.493   0.348 -0.7768 -0.3873  0.1452
 3470TIP3    H132045   3.260   5.447   0.389 -0.5824 -0.9557 -0.8258
 3470TIP3    H232046   3.186   5.579   0.390 -0.2700 -0.7701  0.9744
 3471TIP3   OH232047   0.277   6.057   1.322  0.2594 -0.0821  0.5278
 3471TIP3    H132048   0.247   6.145   1.296  0.3605 -0.7214 -2.0271
 3471TIP3    H232049   0.372   6.062   1.316  0.2190 -0.6819 -0.8912
 3472TIP3   OH232050   2.292   0.793   1.964  0.2166  0.1352  0.2044
 3472TIP3    H132051   2.305   0.861   2.030  0.8126  1.3591 -1.1047
 3472TIP3    H232052   2.260   0.717   2.013  0.5280  1.0223  1.8583
 3473TIP3   OH232053   5.526   3.856   8.279 -0.4791  0.6702  0.1901
 3473TIP3    H132054   5.498   3.792   8.213 -0.5606 -0.4739  1.3009
 3473TIP3    H232055   5.445   3.899   8.306 -0.6095  0.3059  0.3900
 3474TIP3   OH232056   3.883   2.748   0.940  0.5388  1.2774  0.1412
 3474TIP3    H132057   3.836   2.714   1.016  1.8551  0.0629  0.4480
 3474TIP3    H232058   3.931   2.824   0.974  1.4955  0.4620  0.6733
 3475TIP3   OH232059   3.733   5.666   8.051 -0.6102  0.0208  0.0143
 3475TIP3    H132060   3.790   5.706   7.985 -1.1710  0.6214 -0.1178
 3475TIP3    H232061   3.645   5.693   8.026 -0.7470  1.2332  1.6660
 3476TIP3   OH232062   0.929   5.938   7.452 -0.1165 -0.0639 -0.1947
 3476TIP3    H132063   0.960   6.027   7.468  1.6196 -0.7588  0.6579
 3476TIP3    H232064   0.842   5.935   7.491  1.0992  0.3889  2.8037
 3477TIP3   OH232065   6.486   3.154   0.067  0.0609  0.3130  0.2361
 3477TIP3    H132066   6.467   3.064   0.093  1.9804  0.3677  2.0759
 3477TIP3    H232067   6.426   3.207   0.119 -0.6817  0.1376 -0.4285
 3478TIP3   OH232068   5.597   0.327   7.930  0.2471  1.0231  0.5619
 3478TIP3    H132069   5.584   0.234   7.949  0.5225  0.1365 -2.8378
 3478TIP3    H232070   5.688   0.333   7.901  0.1373  2.2859  0.4221
 3479TIP3   OH232071   4.133   3.869   1.139 -0.3333  0.0444  0.3908
 3479TIP3    H132072   4.187   3.841   1.212 -0.8607 -1.7640  0.1227
 3479TIP3    H232073   4.185   3.937   1.095  2.4830 -2.6250 -0.7654
 3480TIP3   OH232074   1.560   0.097   1.117 -0.0163  0.0306 -0.3549
 3480TIP3    H132075   1.611   0.017   1.129  0.2596  0.4514  1.5406
 3480TIP3    H232076   1.472   0.075   1.149  0.2206  0.6354  0.7628
 3481TIP3   OH232077   6.492   3.285   1.705 -0.4603 -0.0826  0.0747
 3481TIP3    H132078   6.488   3.370   1.663 -2.3269 -0.8679 -1.4858
 3481TIP3    H232079   6.581   3.254   1.688  0.1254  1.3874  0.3783
 3482TIP3   OH232080   3.765   1.878   7.446  0.2099  0.1863 -0.4760
 3482TIP3    H132081   3.698   1.891   7.513  0.6479 -0.9309  0.2075
 3482TIP3    H232082   3.729   1.919   7.368 -0.0280  2.1072  0.5887
 3483TIP3   OH232083   4.611   1.037   6.770 -0.1013 -0.3234  0.3869
 3483TIP3    H132084   4.629   0.981   6.695 -0.1092  1.4687 -1.0360
 3483TIP3    H232085   4.693   1.086   6.783 -0.5883  0.4583  0.5760
 3484TIP3   OH232086   0.715   2.025   2.481 -0.0280 -0.6089  0.6588
 3484TIP3    H132087   0.762   2.083   2.541 -1.1925  0.3276  0.7153
 3484TIP3    H232088   0.748   1.937   2.501  0.8875 -0.1076  1.4238
 3485TIP3   OH232089   4.432   2.456   0.292 -0.4416  0.0796 -0.0966
 3485TIP3    H132090   4.409   2.365   0.306 -1.3635  0.2062 -0.7230
 3485TIP3    H232091   4.348   2.502   0.284 -0.0626  0.5052 -2.7058
 3486TIP3   OH232092   5.477   2.394   7.966 -0.4900 -0.4532 -0.2809
 3486TIP3    H132093   5.468   2.367   8.058 -1.3958  0.2891 -0.1332
 3486TIP3    H232094   5.569   2.379   7.946  0.0932  0.7791  1.2300
 3487TIP3   OH232095   2.781   6.819   0.099  0.0523 -0.2195 -0.1348
 3487TIP3    H132096   2.855   6.879   0.112 -1.0432  0.7111  2.5271
 3487TIP3    H232097   2.763   6.823   0.006  1.0842  2.3501 -0.2948
 3488TIP3   OH232098   3.864   1.982   2.173  0.0808  0.2413 -0.1515
 3488TIP3    H132099   3.791   1.944   2.222  0.3722  1.2099  1.0979
 3488TIP3    H232100   3.826   2.059   2.131 -0.8727 -2.0114 -3.8432
 3489TIP3   OH232101   0.981   1.987   0.222 -0.1863 -0.3368 -0.1952
 3489TIP3    H132102   0.917   2.045   0.263  0.7217  0.1932  0.5072
 3489TIP3    H232103   0.954   1.982   0.130 -0.5383  0.8337 -0.1637
 3490TIP3   OH232104   6.293   1.492   1.915  0.2407 -0.0998  0.1504
 3490TIP3    H132105   6.286   1.417   1.974  1.0175 -0.4843 -0.2290
 3490TIP3    H232106   6.300   1.453   1.828  0.3937  0.4174 -0.0708
 3491TIP3   OH232107   4.988   2.728   0.866 -0.3367  0.4652 -0.1093
 3491TIP3    H132108   5.049   2.749   0.936  0.2767  0.1688 -0.5382
 3491TIP3    H232109   4.956   2.640   0.887  0.2796  0.1401 -0.4811
 3492TIP3   OH232110   3.854   4.141   8.650  0.1592 -0.5077  0.2370
 3492TIP3    H132111   3.898   4.204   8.708 -0.4898  0.2480 -0.0634
 3492TIP3    H232112   3.808   4.082   8.709 -0.1168 -0.0282  0.5052
 3493TIP3   OH232113   5.273   2.598   2.132 -0.1271 -0.7352 -0.3636
 3493TIP3    H132114   5.193   2.547   2.124 -0.5532  0.1358 -2.1623
 3493TIP3    H232115   5.248   2.686   2.105  1.7761 -0.7978 -2.6281
 3494TIP3   OH232116   6.692   4.601   7.584  0.2755  0.3753  0.3158
 3494TIP3    H132117   6.717   4.609   7.492 -1.4708  0.5121 -0.1875
 3494TIP3    H232118   6.699   4.691   7.619 -1.5302  0.8319 -0.4011
 3495TIP3   OH232119   5.007   6.732   2.124  0.1761  0.0130 -0.4671
 3495TIP3    H132120   5.053   6.731   2.208 -0.7098  0.4995  0.0383
 3495TIP3    H232121   5.063   6.784   2.067  0.7776 -0.3007 -0.1726
 3496TIP3   OH232122   4.439   0.930   0.359  0.2183 -0.4002 -0.5099
 3496TIP3    H132123   4.447   0.874   0.282 -1.4558 -0.3523 -0.7422
 3496TIP3    H232124   4.419   0.870   0.431  2.0338 -0.4779 -0.0031
 3497TIP3   OH232125   3.520   2.499   7.264  0.3340  0.0944  0.0186
 3497TIP3    H132126   3.485   2.443   7.334 -1.3577  0.4778 -0.4747
 3497TIP3    H232127   3.567   2.439   7.206  0.0192 -0.5442  0.4130
 3498TIP3   OH232128   1.639   3.808   0.346  0.0478  0.2536  0.3061
 3498TIP3    H132129   1.683   3.790   0.429  1.5985  0.3619 -0.4544
 3498TIP3    H232130   1.595   3.892   0.360  2.0275  1.3315  0.4015
 3499TIP3   OH232131   4.175   0.667   2.199 -0.1605  0.0329 -0.1145
 3499TIP3    H132132   4.252   0.719   2.176  0.0819 -0.6978 -1.0254
 3499TIP3    H232133   4.187   0.645   2.291 -1.4227  3.5171  1.0541
 3500TIP3   OH232134   0.381   2.652   6.857  0.0073 -0.4322 -0.1379
 3500TIP3    H132135   0.438   2.576   6.866  0.8178  0.1702 -0.0902
 3500TIP3    H232136   0.396   2.703   6.936 -2.1651 -1.2728  0.8900
 3501TIP3   OH232137   4.137   3.365   2.330 -0.1809  0.7147 -0.3939
 3501TIP3    H132138   4.072   3.354   2.399  0.4366 -0.7050 -0.0147
 3501TIP3    H232139   4.198   3.430   2.365  0.1314  0.0014  0.4129
 3502TIP3   OH232140   0.014   2.705   1.408 -0.1284 -0.0914  0.2983
 3502TIP3    H132141  -0.022   2.779   1.456  0.7518  0.7342 -0.2669
 3502TIP3    H232142   0.104   2.698   1.439 -0.5262 -1.6854  1.1967
 3503TIP3   OH232143   0.720   6.008   7.120  0.7917  0.5137  0.1450
 3503TIP3    H132144   0.688   5.928   7.078  0.3091  0.0252  1.3804
 3503TIP3    H232145   0.658   6.075   7.094  0.9664  0.4017 -0.5756
 3504TIP3   OH232146   2.562   2.753   7.045 -0.0743  0.5612  0.2544
 3504TIP3    H132147   2.577   2.805   7.123 -2.3535  0.3132  0.9537
 3504TIP3    H232148   2.466   2.750   7.037  0.0860  0.0731 -2.2064
 3505TIP3   OH232149   4.371   0.580   7.718 -0.0915  0.2638  0.3120
 3505TIP3    H132150   4.309   0.648   7.690 -2.0543 -1.8194 -0.7206
 3505TIP3    H232151   4.403   0.542   7.637  0.9874 -0.0465  0.8731
 3506TIP3   OH232152   4.630   4.799   7.719 -0.0750  0.0456 -0.1742
 3506TIP3    H132153   4.725   4.790   7.721  0.0425  1.0226 -0.9024
 3506TIP3    H232154   4.609   4.806   7.626 -0.8519 -0.0098 -0.0103
 3507TIP3   OH232155   1.446   3.410   7.878 -0.3343  0.2067 -0.0333
 3507TIP3    H132156   1.480   3.459   7.953 -1.0625  1.6032 -0.5757
 3507TIP3    H232157   1.463   3.318   7.899 -0.9732  0.5331  2.0643
 3508TIP3   OH232158   6.558   0.880   1.377 -0.4950  0.5127  0.0447
 3508TIP3    H132159   6.610   0.943   1.427 -0.1954 -0.0421  0.4414
 3508TIP3    H232160   6.610   0.862   1.299  0.0340 -0.2247  0.5566
 3509TIP3   OH232161   6.482   0.198   8.579 -0.0136  0.6464  0.1762
 3509TIP3    H132162   6.448   0.250   8.506 -0.8326 -0.8703 -0.5794
 3509TIP3    H232163   6.570   0.172   8.552 -0.1589  0.4344 -0.0971
 3510TIP3   OH232164   0.595   6.545   7.696 -0.0620  0.4293  0.1074
 3510TIP3    H132165   0.650   6.616   7.732  1.1034 -1.0764  1.4366
 3510TIP3    H232166   0.631   6.530   7.609  1.0974  0.0800  0.6181
 3511TIP3   OH232167   3.219   2.139   1.626  0.4075  0.3203 -0.0257
 3511TIP3    H132168   3.271   2.214   1.654 -1.3302  0.8948  1.9180
 3511TIP3    H232169   3.282   2.067   1.620  1.5712  1.1597  1.3814
 3512TIP3   OH232170   6.153   4.829   1.380 -0.0845 -0.2791 -0.1189
 3512TIP3    H132171   6.072   4.824   1.430  0.5284  0.2695  0.9839
 3512TIP3    H232172   6.209   4.761   1.419 -0.2300 -1.1094 -1.3065
 3513TIP3   OH232173   3.192   1.024   2.181 -0.2241 -0.1535  0.2338
 3513TIP3    H132174   3.112   0.972   2.195 -1.6837  1.8829 -0.0307
 3513TIP3    H232175   3.160   1.115   2.174  1.9731  0.5671 -1.4003
 3514TIP3   OH232176   4.831   4.055   1.558 -0.0621 -0.1424  0.6019
 3514TIP3    H132177   4.744   4.015   1.567  0.3229 -0.9783  0.6065
 3514TIP3    H232178   4.855   4.081   1.647 -0.2920  0.0825  0.6028
 3515TIP3   OH232179   2.438   2.382   7.977  0.4358 -0.5341 -0.0325
 3515TIP3    H132180   2.511   2.345   7.927  1.2137 -1.3748  1.6069
 3515TIP3    H232181   2.369   2.394   7.913  1.2158 -1.9805 -1.2333
 3516TIP3   OH232182   2.225   3.422   0.795  0.7692  0.1927 -0.1189
 3516TIP3    H132183   2.198   3.504   0.836 -0.9063  0.1810 -1.0897
 3516TIP3    H232184   2.144   3.386   0.758  1.4409 -1.9203  0.2950
 3517TIP3   OH232185   2.602   0.467   8.490  0.0432 -0.2344  0.2791
 3517TIP3    H132186   2.683   0.492   8.444 -0.3633 -2.2645 -1.7137
 3517TIP3    H232187   2.601   0.523   8.567  3.8342 -0.7471  0.9273
 3518TIP3   OH232188   4.283   6.858   8.281 -0.0682 -0.1039  0.0368
 3518TIP3    H132189   4.371   6.888   8.303  0.8881  0.1342 -3.4614
 3518TIP3    H232190   4.225   6.931   8.304  0.8241  0.3214  1.0001
 3519TIP3   OH232191   0.461   2.741   7.142  0.0471  0.6837 -0.0810
 3519TIP3    H132192   0.440   2.830   7.170  1.5324  0.6564  1.2659
 3519TIP3    H232193   0.418   2.685   7.207  1.0210  0.5172  0.4404
 3520TIP3   OH232194   3.688   5.099   7.013  0.3005 -0.3067  0.0261
 3520TIP3    H132195   3.714   5.166   6.951 -1.5066  0.1077 -0.3441
 3520TIP3    H232196   3.654   5.147   7.088  0.9618 -0.8108  0.6561
 3521TIP3   OH232197   5.353   6.739   1.732 -0.5108 -0.1325 -0.7946
 3521TIP3    H132198   5.425   6.801   1.718 -0.3219 -0.5780 -1.8386
 3521TIP3    H232199   5.361   6.676   1.661 -1.1828 -0.9134 -0.1959
 3522TIP3   OH232200   0.840   6.479   8.372 -0.0118 -0.5044 -0.5740
 3522TIP3    H132201   0.798   6.431   8.444 -0.8006  0.8502 -0.0883
 3522TIP3    H232202   0.926   6.503   8.406 -0.3586  0.0784 -0.0789
 3523TIP3   OH232203   2.638   5.792   2.797 -0.2238  0.5120  0.4562
 3523TIP3    H132204   2.693   5.791   2.876  1.5155 -0.7329 -0.6782
 3523TIP3    H232205   2.642   5.883   2.767  0.4802  0.6438  0.9074
 3524TIP3   OH232206   6.391   2.385   0.830  0.2824 -0.2785 -0.2885
 3524TIP3    H132207   6.454   2.446   0.868 -0.2432 -0.8604  1.6629
 3524TIP3    H232208   6.444   2.323   0.779  0.9029  1.2145 -1.5158
 3525TIP3   OH232209   2.479   6.856   8.471 -0.4459  0.4173  0.3659
 3525TIP3    H132210   2.420   6.813   8.533  1.6092  0.2185  2.3293
 3525TIP3    H232211   2.475   6.949   8.493 -0.4928  0.4797  0.0954
 3526TIP3   OH232212   3.103   4.180   0.996  0.2222  0.4163 -0.4252
 3526TIP3    H132213   3.064   4.265   1.016  0.5131  0.5654 -0.4708
 3526TIP3    H232214   3.031   4.127   0.964 -0.0217  0.5474 -0.0962
 3527TIP3   OH232215   1.143   6.879   8.317  0.4084 -0.6031  0.5199
 3527TIP3    H132216   1.091   6.821   8.260 -0.1533  2.9560 -3.0480
 3527TIP3    H232217   1.096   6.962   8.315  1.6729  0.4479  4.5791
 3528TIP3   OH232218   5.843   0.309   7.792 -0.0745 -0.5039 -0.1608
 3528TIP3    H132219   5.819   0.367   7.719 -0.8400 -1.7392 -0.9232
 3528TIP3    H232220   5.877   0.368   7.859  2.0248  0.5718 -2.0372
 3529TIP3   OH232221   0.034   5.552   7.188 -0.0430 -0.0850  0.5075
 3529TIP3    H132222  -0.046   5.513   7.153 -0.2314  0.6941  0.0437
 3529TIP3    H232223   0.091   5.478   7.206 -1.0875 -0.7024  1.4165
 3530TIP3   OH232224   5.576   6.664   2.720  0.2555  0.5871  0.0150
 3530TIP3    H132225   5.648   6.620   2.675 -1.4353 -0.4841 -1.7889
 3530TIP3    H232226   5.581   6.632   2.810  2.3727  1.0286  0.1030
 3531TIP3   OH232227   2.894   4.186   1.720  0.0019 -0.1609  0.0472
 3531TIP3    H132228   2.859   4.192   1.631  0.0074 -0.3901  0.0285
 3531TIP3    H232229   2.980   4.146   1.709  0.3809  0.6369  0.0670
 3532TIP3   OH232230   5.064   2.388   6.392  0.4781 -0.0103 -0.7028
 3532TIP3    H132231   5.025   2.474   6.383 -0.7625 -0.4999 -0.2483
 3532TIP3    H232232   5.016   2.347   6.464  0.6753 -1.2704 -1.2556
 3533TIP3   OH232233   2.445   3.239   2.471  0.0786 -0.3824 -0.0209
 3533TIP3    H132234   2.538   3.241   2.495  0.5767 -3.5553 -1.1971
 3533TIP3    H232235   2.399   3.252   2.554  1.5717 -0.3790  0.8494
 3534TIP3   OH232236   6.877   5.934   0.804 -0.0239  0.1235 -0.8383
 3534TIP3    H132237   6.846   5.873   0.737 -0.8671 -0.5111  0.0855
 3534TIP3    H232238   6.924   5.878   0.867  0.0497  0.5731 -0.4895
 3535TIP3   OH232239   0.174   2.358   0.760 -0.6028 -0.5963 -0.0821
 3535TIP3    H132240   0.268   2.378   0.758 -0.9111  1.1547  1.0756
 3535TIP3    H232241   0.143   2.378   0.671 -0.2805  1.0400  0.1567
 3536TIP3   OH232242   1.912   3.553   8.234 -0.6384  0.1005  0.0566
 3536TIP3    H132243   1.941   3.516   8.151  0.0702  0.2843  0.2155
 3536TIP3    H232244   1.961   3.503   8.300 -3.3140 -2.1063  0.5778
 3537TIP3   OH232245   5.360   0.691   2.024  0.2426 -0.1464 -0.3403
 3537TIP3    H132246   5.315   0.608   2.009  0.1720 -0.4101  1.2022
 3537TIP3    H232247   5.453   0.670   2.015  0.2047 -0.2804 -0.4199
 3538TIP3   OH232248   0.111   1.662   0.933  0.5330 -0.0010 -0.2670
 3538TIP3    H132249   0.130   1.716   1.010  0.1717 -1.1031  0.6367
 3538TIP3    H232250   0.037   1.608   0.960  0.9562 -1.0168 -1.0786
 3539TIP3   OH232251   3.723   0.709   7.562 -0.3749 -0.2355  0.2220
 3539TIP3    H132252   3.688   0.634   7.514  0.5479 -0.4527 -0.1335
 3539TIP3    H232253   3.774   0.758   7.497 -1.0760  0.7864  0.4091
 3540TIP3   OH232254   5.514   3.178   8.083  0.7272  0.3620  0.6205
 3540TIP3    H132255   5.552   3.134   8.159 -2.5626  0.0553  2.2666
 3540TIP3    H232256   5.563   3.260   8.076  3.2575 -1.0140  0.9656
 3541TIP3   OH232257   4.130   3.919   8.285 -0.1385 -0.0680 -0.2147
 3541TIP3    H132258   4.126   3.854   8.214 -0.4825 -0.3197  0.0330
 3541TIP3    H232259   4.218   3.907   8.323  0.2422  0.4233 -0.9278
 3542TIP3   OH232260   1.268   5.557   0.324 -0.0922 -0.9306 -0.4877
 3542TIP3    H132261   1.354   5.571   0.284  0.9552 -0.4374  1.7807
 3542TIP3    H232262   1.272   5.468   0.358 -0.6584 -1.0745 -0.7993
 3543TIP3   OH232263   6.449   4.124   7.315  0.1099 -0.1035 -0.3406
 3543TIP3    H132264   6.470   4.180   7.240 -0.1582 -0.4458 -0.6739
 3543TIP3    H232265   6.382   4.065   7.283 -0.1352 -0.1397  0.2264
 3544TIP3   OH232266   4.656   2.064   3.411 -0.3686  0.1893 -0.0063
 3544TIP3    H132267   4.662   2.157   3.432  0.0356  0.2057 -0.1718
 3544TIP3    H232268   4.674   2.019   3.493 -1.1613  0.2543  0.2109
 3545TIP3   OH232269   3.972   6.356   0.864  0.3890  0.0022 -0.2669
 3545TIP3    H132270   3.987   6.430   0.923  2.8738 -0.3646 -0.3249
 3545TIP3    H232271   3.919   6.393   0.793  0.7053  1.4731  0.2137
 3546TIP3   OH232272   0.994   1.880   0.577  0.1409  0.3537  0.0362
 3546TIP3    H132273   0.920   1.935   0.552  0.1475  0.4873  0.3129
 3546TIP3    H232274   0.954   1.794   0.592  0.4501 -0.3772 -2.7495
 3547TIP3   OH232275   5.221   2.779   1.039  0.2923  0.3999  0.3592
 3547TIP3    H132276   5.268   2.829   0.972  1.6796  0.9547  1.6629
 3547TIP3    H232277   5.291   2.744   1.094 -0.8088  0.3419  1.7586
 3548TIP3   OH232278   5.474   3.460   6.879 -0.4289  0.4941 -0.0717
 3548TIP3    H132279   5.511   3.398   6.943 -0.4051  0.3434 -0.2288
 3548TIP3    H232280   5.462   3.407   6.800  0.0775  0.8086 -0.3693
 3549TIP3   OH232281   0.324   2.565   7.289  0.0264  0.1679 -0.1268
 3549TIP3    H132282   0.240   2.608   7.303 -0.2309  0.5981 -2.6012
 3549TIP3    H232283   0.309   2.505   7.216  2.1504  1.2371 -1.5565
 3550TIP3   OH232284   2.068   0.928   8.458  0.2629  0.2039 -0.4566
 3550TIP3    H132285   2.159   0.901   8.460  0.5060  0.8692  2.6373
 3550TIP3    H232286   2.071   1.019   8.428  1.0526  1.1638  2.2037
 3551TIP3   OH232287   5.389   2.191   7.762  0.0653 -0.1812  0.2907
 3551TIP3    H132288   5.409   2.239   7.843  1.6156 -0.8636  0.3597
 3551TIP3    H232289   5.468   2.200   7.709 -1.0729  0.5858 -1.3617
 3552TIP3   OH232290   2.285   2.897   1.442 -0.0718 -0.0199  0.0013
 3552TIP3    H132291   2.358   2.905   1.380 -0.4110  0.6408 -0.3212
 3552TIP3    H232292   2.321   2.845   1.515  0.6577  0.1237 -0.2488
 3553TIP3   OH232293   0.422   2.464   8.170 -0.7256  0.2151  0.2682
 3553TIP3    H132294   0.445   2.555   8.189  0.0010  0.1255 -0.1723
 3553TIP3    H232295   0.348   2.471   8.110 -1.9593  0.4999  1.7508
 3554TIP3   OH232296   5.017   3.512   6.911  0.0263 -0.2577 -0.0617
 3554TIP3    H132297   5.034   3.431   6.957 -1.1081 -0.6351 -0.2766
 3554TIP3    H232298   4.935   3.545   6.949 -0.3273 -0.0071 -1.0069
 3555TIP3   OH232299   1.247   6.120   0.898  0.3770  0.2766  0.8276
 3555TIP3    H132300   1.216   6.049   0.842 -0.5270  0.4084  1.1536
 3555TIP3    H232301   1.219   6.200   0.854  0.0396  0.3908  1.2364
 3556TIP3   OH232302   2.838   2.773   0.517 -0.4554 -0.1563  0.7682
 3556TIP3    H132303   2.892   2.845   0.549 -0.4928  0.3569 -0.2758
 3556TIP3    H232304   2.888   2.694   0.538 -0.3219  0.1827  1.7379
 3557TIP3   OH232305   1.649   3.959   7.607  0.0073  0.2185  0.4685
 3557TIP3    H132306   1.566   3.987   7.646  0.2304  0.7030  0.5935
 3557TIP3    H232307   1.685   4.037   7.566 -0.3458 -0.3451 -0.9650
 3558TIP3   OH232308   0.375   4.519   0.375 -0.0883  0.3090 -0.6187
 3558TIP3    H132309   0.314   4.547   0.307  1.0663  3.7884 -0.3918
 3558TIP3    H232310   0.461   4.546   0.343  0.5516  1.5923  1.9068
 3559TIP3   OH232311   6.574   5.072   1.853 -0.0137  0.3856  0.7891
 3559TIP3    H132312   6.650   5.076   1.795 -0.1199 -2.0980  0.3837
 3559TIP3    H232313   6.505   5.033   1.799  0.2993 -3.4611  2.8534
 3560TIP3   OH232314   1.864   2.038   2.740  0.1449 -0.0241 -0.2358
 3560TIP3    H132315   1.903   1.984   2.809  0.6560 -1.4110 -1.5437
 3560TIP3    H232316   1.911   2.122   2.745  2.4617 -1.1833 -0.8857
 3561TIP3   OH232317   6.665   6.135   0.557 -0.1601  0.8316 -0.0686
 3561TIP3    H132318   6.742   6.080   0.547 -0.9398  0.0969 -2.7564
 3561TIP3    H232319   6.698   6.215   0.599  1.7656 -0.0324  0.1630
 3562TIP3   OH232320   4.541   3.265   0.504  0.0101 -0.6785  0.3102
 3562TIP3    H132321   4.560   3.189   0.449  0.1511 -0.1939 -0.3191
 3562TIP3    H232322   4.467   3.308   0.462  0.1299 -0.2914  0.4869
 3563TIP3   OH232323   2.220   5.740   7.908  0.4500 -0.0138 -0.0122
 3563TIP3    H132324   2.278   5.815   7.917 -0.9100  1.3717 -2.0644
 3563TIP3    H232325   2.205   5.732   7.814 -1.7568 -1.0159  0.3605
 3564TIP3   OH232326   3.939   4.382   0.818  0.4984  0.2215 -0.1239
 3564TIP3    H132327   3.909   4.464   0.857  2.1798  0.5560  0.5504
 3564TIP3    H232328   4.026   4.403   0.783  0.4112 -0.9527 -1.1049
 3565TIP3   OH232329   5.013   2.773   0.348 -0.3293  0.6487 -1.2045
 3565TIP3    H132330   5.012   2.765   0.443 -0.1447  0.3382 -1.2283
 3565TIP3    H232331   4.925   2.805   0.326 -0.2818  0.9856 -0.9076
 3566TIP3   OH232332   5.956   1.776   0.524 -0.0021  0.5097 -0.3973
 3566TIP3    H132333   6.013   1.840   0.482  1.8528  0.3067  1.6447
 3566TIP3    H232334   5.942   1.810   0.612 -1.3279 -0.5143 -0.1817
 3567TIP3   OH232335   6.419   0.751   0.718  0.1480  0.0724 -0.1728
 3567TIP3    H132336   6.344   0.742   0.659  0.3133 -0.1276 -0.3591
 3567TIP3    H232337   6.483   0.801   0.667  0.1597  0.1933 -0.0367
 3568TIP3   OH232338   4.206   4.022   7.690  0.0087 -0.1065  0.2951
 3568TIP3    H132339   4.171   3.933   7.692 -2.0707  0.6573  0.5747
 3568TIP3    H232340   4.250   4.033   7.775 -1.6778 -0.1620  1.2047
 3569TIP3   OH232341   6.456   1.104   1.814 -0.3931 -0.2855 -0.0135
 3569TIP3    H132342   6.449   1.011   1.838  0.9877 -0.6805 -1.0330
 3569TIP3    H232343   6.365   1.132   1.803 -0.8358 -1.5385  0.2022
 3570TIP3   OH232344   0.901   0.576   8.010  0.5241  0.3420 -0.5817
 3570TIP3    H132345   0.905   0.484   7.981  1.1891  1.0838 -3.1469
 3570TIP3    H232346   0.823   0.611   7.967 -0.3937  0.7317  1.3241
 3571TIP3   OH232347   5.199   4.784   2.028 -0.1880 -0.2084 -0.1989
 3571TIP3    H132348   5.294   4.787   2.020 -0.1639 -0.9428 -0.2349
 3571TIP3    H232349   5.172   4.876   2.034  0.4009  0.0670 -1.5929
 3572TIP3   OH232350   2.661   5.543   6.498  0.3017 -0.1671 -0.1915
 3572TIP3    H132351   2.741   5.595   6.491  0.1445  0.2835  1.0565
 3572TIP3    H232352   2.692   5.454   6.513  0.6833  0.4607  3.6306
 3573TIP3   OH232353   0.033   1.847   0.121 -0.1325 -0.4656  0.0281
 3573TIP3    H132354   0.008   1.878   0.208  0.5729  0.0990  0.0415
 3573TIP3    H232355   0.039   1.927   0.068 -1.7849 -0.8956 -0.8848
 3574TIP3   OH232356   0.305   1.157   0.905 -0.4585 -0.5924 -0.5696
 3574TIP3    H132357   0.380   1.183   0.958 -0.8087  1.8360 -1.1392
 3574TIP3    H232358   0.232   1.207   0.941 -0.9319  0.2571 -2.5691
 3575TIP3   OH232359   6.464   5.477   6.854 -0.2028 -0.7071 -0.2424
 3575TIP3    H132360   6.537   5.532   6.824  0.1756 -0.3417  1.2503
 3575TIP3    H232361   6.387   5.533   6.845  0.0931 -0.1269  0.6747
 3576TIP3   OH232362   1.261   0.754   0.949  0.3882 -0.0809  0.4438
 3576TIP3    H132363   1.167   0.764   0.965  0.1915 -2.2414  0.8727
 3576TIP3    H232364   1.302   0.785   1.030  0.0131  0.1622  0.5478
 3577TIP3   OH232365   3.836   5.706   1.761 -0.1789  0.0684  0.3066
 3577TIP3    H132366   3.864   5.619   1.733  2.0847  0.6032  0.6777
 3577TIP3    H232367   3.805   5.748   1.680  0.1162 -0.5928 -0.1564
 3578TIP3   OH232368   0.195   1.850   7.413  0.1864 -0.1824  0.5035
 3578TIP3    H132369   0.147   1.805   7.344  0.5123 -0.0065  0.1602
 3578TIP3    H232370   0.214   1.936   7.376 -1.8869  0.8904  1.7415
 3579TIP3   OH232371   1.050   1.859   1.707 -0.4152 -0.4173 -0.5512
 3579TIP3    H132372   1.105   1.911   1.649  1.1394 -1.4209 -0.0435
 3579TIP3    H232373   1.045   1.773   1.665 -2.7554 -0.0235 -1.2646
 3580TIP3   OH232374   2.811   1.821   0.843  0.0906 -0.3275  0.6665
 3580TIP3    H132375   2.739   1.830   0.781 -0.0265  0.4908  0.9084
 3580TIP3    H232376   2.890   1.830   0.789 -0.0081  0.0624  0.5844
 3581TIP3   OH232377   5.449   5.294   6.451  0.2284  0.6340 -0.1196
 3581TIP3    H132378   5.376   5.260   6.503 -0.5984 -0.7515 -2.0730
 3581TIP3    H232379   5.511   5.326   6.516 -0.3911 -1.6917  1.7651
 3582TIP3   OH232380   4.631   3.920   7.519  0.5048 -0.5553 -0.2006
 3582TIP3    H132381   4.628   4.003   7.472 -1.0238 -0.6552 -0.3113
 3582TIP3    H232382   4.669   3.859   7.457  2.5463  0.2218  0.1967
 3583TIP3   OH232383   5.694   5.286   7.401 -0.2394  0.0008 -0.4524
 3583TIP3    H132384   5.784   5.258   7.387 -0.4349 -0.9214  0.0870
 3583TIP3    H232385   5.664   5.315   7.315  0.3721 -0.2570 -0.7578
 3584TIP3   OH232386   2.916   3.934   8.367  0.4571 -0.3178 -0.4263
 3584TIP3    H132387   2.845   3.925   8.430  1.1717 -0.0309  0.4419
 3584TIP3    H232388   2.948   3.845   8.353  0.6770 -0.3182  0.0721
 3585TIP3   OH232389   6.026   4.759   7.610  0.7104 -0.0945 -0.5530
 3585TIP3    H132390   6.019   4.850   7.638  2.8262 -0.1689  0.3782
 3585TIP3    H232391   6.046   4.764   7.516  2.6089  0.5090 -0.1578
 3586TIP3   OH232392   3.800   6.154   1.328  0.5331  0.3527 -0.5500
 3586TIP3    H132393   3.893   6.149   1.348  0.3646 -1.4621 -0.0877
 3586TIP3    H232394   3.766   6.220   1.389  1.3118  0.1941  0.0710
 3587TIP3   OH232395   4.537   6.390   0.738  0.2945  0.0278  0.5552
 3587TIP3    H132396   4.479   6.427   0.805 -1.1593 -0.7328 -0.2399
 3587TIP3    H232397   4.589   6.464   0.708 -0.9553  0.9584  0.5966
 3588TIP3   OH232398   4.397   3.527   7.841  0.2707  0.3604 -0.3864
 3588TIP3    H132399   4.385   3.529   7.746 -3.0052  0.5274 -0.1068
 3588TIP3    H232400   4.432   3.614   7.862  0.9826  0.3378 -1.4307
 3589TIP3   OH232401   2.389   6.164   1.588 -0.3847  0.5438 -0.5903
 3589TIP3    H132402   2.371   6.075   1.557 -1.9160  0.9963 -1.1163
 3589TIP3    H232403   2.307   6.211   1.574  0.6567  2.2858 -1.1442
 3590TIP3   OH232404   3.956   3.646   2.279  0.4442  0.0697  0.1667
 3590TIP3    H132405   3.937   3.724   2.332 -0.1750 -0.3497  0.5819
 3590TIP3    H232406   4.027   3.673   2.221 -1.0523  1.5651 -1.0558
 3591TIP3   OH232407   3.811   0.964   2.406  0.3367  0.1619 -0.0639
 3591TIP3    H132408   3.902   0.988   2.423  0.7968  0.6760 -2.7690
 3591TIP3    H232409   3.779   0.930   2.490  1.9693  3.0530  1.9014
 3592TIP3   OH232410   6.360   3.817   0.424  0.0155 -0.1442 -0.3355
 3592TIP3    H132411   6.376   3.910   0.414 -1.6018  0.2346  0.2098
 3592TIP3    H232412   6.446   3.779   0.438  0.6256  1.4058  0.3706
 3593TIP3   OH232413   1.771   0.289   2.114  0.3737 -0.3540  0.3222
 3593TIP3    H132414   1.718   0.250   2.044  0.2718 -0.1998  0.3139
 3593TIP3    H232415   1.729   0.259   2.195  1.9814 -2.7038  0.4012
 3594TIP3   OH232416   6.430   3.911   8.384  0.9116  0.1583  0.2483
 3594TIP3    H132417   6.447   3.967   8.460 -0.2933  2.7811 -1.2739
 3594TIP3    H232418   6.471   3.956   8.311 -1.2719 -0.1733 -1.2845
 3595TIP3   OH232419   3.932   4.177   1.498  0.4820  0.1414 -0.1810
 3595TIP3    H132420   4.016   4.211   1.530  0.4094 -0.9493  1.2460
 3595TIP3    H232421   3.866   4.216   1.556  0.2263 -0.8608  0.2190
 3596TIP3   OH232422   2.451   3.561   8.423 -0.2303 -0.3349  0.1180
 3596TIP3    H132423   2.370   3.610   8.441  0.8103  0.7542  2.1733
 3596TIP3    H232424   2.474   3.586   8.334 -1.2246  0.7426  0.1297
 3597TIP3   OH232425   1.864   4.461   0.978  0.5130 -0.0233  0.1471
 3597TIP3    H132426   1.837   4.404   0.906  0.8313 -0.6675  0.5250
 3597TIP3    H232427   1.826   4.421   1.056 -0.4564  1.0771  0.2723
 3598TIP3   OH232428   6.706   5.343   8.084 -0.9790  0.3843 -0.1636
 3598TIP3    H132429   6.683   5.430   8.050 -1.3652  0.0633 -0.7432
 3598TIP3    H232430   6.800   5.350   8.104 -0.6759  0.5376 -1.5214
 3599TIP3   OH232431   0.174   1.621   8.044  0.4741  0.2148 -0.7140
 3599TIP3    H132432   0.226   1.548   8.077  2.0615  1.2431 -0.8790
 3599TIP3    H232433   0.180   1.613   7.949 -0.2292 -0.0323 -0.7450
 3600TIP3   OH232434   5.749   6.834   2.407 -0.3378  0.3802  0.1295
 3600TIP3    H132435   5.794   6.774   2.466  1.5429  0.1289 -1.4364
 3600TIP3    H232436   5.807   6.910   2.401  0.2798 -0.1922 -2.4123
 3601TIP3   OH232437   2.674   6.652   2.132 -0.3608  0.8413  0.4789
 3601TIP3    H132438   2.591   6.609   2.156  0.2094 -0.2273  0.6085
 3601TIP3    H232439   2.650   6.713   2.062 -0.8647 -1.3008 -1.3178
 3602TIP3   OH232440   3.531   3.818   8.624  0.0232  0.0326 -0.2142
 3602TIP3    H132441   3.442   3.853   8.629  0.2555  0.7335 -0.7923
 3602TIP3    H232442   3.558   3.806   8.715 -0.5579  0.0806 -0.0323
 3603TIP3   OH232443   2.690   1.295   7.140 -0.3394  0.3768 -0.4134
 3603TIP3    H132444   2.764   1.350   7.165 -0.4324  0.6117 -0.6472
 3603TIP3    H232445   2.725   1.235   7.075  0.0488 -0.6341  0.6949
 3604TIP3   OH232446   5.294   1.536   1.814  0.6046  0.6695 -0.0782
 3604TIP3    H132447   5.358   1.551   1.745  0.0303  1.1347 -0.5182
 3604TIP3    H232448   5.209   1.543   1.771  0.1844  2.6250  0.9511
 3605TIP3   OH232449   0.252   5.252   8.328 -0.1838  0.7553 -0.3219
 3605TIP3    H132450   0.232   5.169   8.371  0.2057  0.7324 -0.1791
 3605TIP3    H232451   0.240   5.318   8.396 -3.2670  1.1626 -1.1205
 3606TIP3   OH232452   6.179   4.532   8.046 -0.5953 -0.0366 -0.1065
 3606TIP3    H132453   6.169   4.584   7.966 -1.5021  1.6799  1.0551
 3606TIP3    H232454   6.214   4.448   8.016  3.8282  2.1101 -1.8565
 3607TIP3   OH232455   2.795   1.800   2.168  0.1620  0.5216 -0.4302
 3607TIP3    H132456   2.709   1.817   2.129 -0.1042  0.3586  0.0832
 3607TIP3    H232457   2.778   1.737   2.238  0.3033  2.3331  1.3291
 3608TIP3   OH232458   2.029   6.249   0.304  0.8751  0.1929  0.3156
 3608TIP3    H132459   2.029   6.335   0.344  1.1607  1.6349 -2.5351
 3608TIP3    H232460   2.102   6.203   0.345  0.8023  1.3234  1.7793
 3609TIP3   OH232461   2.167   3.125   0.723  0.0016 -0.1319  0.5404
 3609TIP3    H132462   2.241   3.186   0.726 -1.3326  1.5947 -0.1203
 3609TIP3    H232463   2.204   3.045   0.685  1.6221  0.5230  0.6568
 3610TIP3   OH232464   6.617   0.170   7.223  0.3798  0.1902  0.2087
 3610TIP3    H132465   6.564   0.093   7.243  0.4872  0.2539  0.7463
 3610TIP3    H232466   6.707   0.141   7.236  0.3802  0.7311  1.6110
 3611TIP3   OH232467   0.639   1.010   0.503 -0.3518  0.1480 -0.3234
 3611TIP3    H132468   0.616   1.001   0.411 -0.8610  2.1498 -0.4416
 3611TIP3    H232469   0.559   0.990   0.551 -0.4271  0.3188 -0.3787
 3612TIP3   OH232470   1.774   3.783   0.594  0.0098  0.3954  0.2043
 3612TIP3    H132471   1.829   3.861   0.585  0.5978  0.1662  1.4786
 3612TIP3    H232472   1.703   3.811   0.651  0.7406 -0.2119  1.4659
 3613TIP3   OH232473   2.137   5.973   0.058 -0.2494  0.5754 -0.0532
 3613TIP3    H132474   2.173   5.989  -0.030  0.3957 -0.1664  0.0654
 3613TIP3    H232475   2.043   5.988   0.048 -0.2194  0.2303 -0.9444
 3614TIP3   OH232476   5.121   4.004   2.484  0.2906 -0.2482  0.0306
 3614TIP3    H132477   5.136   4.075   2.547 -1.3986 -0.8298  1.1466
 3614TIP3    H232478   5.178   3.934   2.514  0.7304  0.0436 -0.1012
 3615TIP3   OH232479   0.514   3.265   1.456  0.1168  0.9221  0.2687
 3615TIP3    H132480   0.549   3.212   1.528 -0.0823  0.5867  0.1160
 3615TIP3    H232481   0.571   3.343   1.455  1.1269  0.1933 -0.2436
 3616TIP3   OH232482   1.390   6.194   1.116  0.0650  0.8252  0.7667
 3616TIP3    H132483   1.338   6.180   1.037  1.3708 -1.5676  0.2132
 3616TIP3    H232484   1.423   6.106   1.138  3.5512  2.1171  1.2591
 3617TIP3   OH232485   0.190   3.645   0.767  0.5249  0.5303 -0.0612
 3617TIP3    H132486   0.266   3.600   0.731  0.4839  1.0535 -0.8254
 3617TIP3    H232487   0.166   3.594   0.845  2.2305  0.8941  0.7440
 3618TIP3   OH232488   3.043   5.585   1.491  0.2722 -0.3855  0.4878
 3618TIP3    H132489   3.033   5.604   1.398  2.2610  0.4553  0.3990
 3618TIP3    H232490   3.012   5.495   1.501  0.0626 -0.5030 -0.9851
 3619TIP3   OH232491   3.460   2.109   1.428  0.1102 -1.0156 -0.0880
 3619TIP3    H132492   3.387   2.151   1.384 -0.4297  0.6554  2.2701
 3619TIP3    H232493   3.536   2.130   1.373 -0.5359  0.9010 -0.3036
 3620TIP3   OH232494   1.966   2.340   1.887  0.1021 -0.1282  0.0608
 3620TIP3    H132495   1.927   2.263   1.845  1.1897  0.4296 -2.1801
 3620TIP3    H232496   1.922   2.414   1.846 -0.0939  0.4722  1.3145
 3621TIP3   OH232497   2.873   1.566   7.278 -0.4918 -0.2531  0.2886
 3621TIP3    H132498   2.812   1.632   7.245 -0.8423 -0.6830  0.0703
 3621TIP3    H232499   2.824   1.520   7.347 -0.9936 -1.6383 -0.9389
 3622TIP3   OH232500   6.292   6.555   1.970 -0.1481 -0.3874  0.3920
 3622TIP3    H132501   6.255   6.571   1.883 -1.7193 -1.9330  0.7170
 3622TIP3    H232502   6.375   6.509   1.953 -0.4850 -0.7531 -0.2945
 3623TIP3   OH232503   2.202   6.073   1.368  0.3569 -0.4985  0.4867
 3623TIP3    H132504   2.194   5.983   1.336 -2.1398 -0.0008 -0.4394
 3623TIP3    H232505   2.170   6.127   1.297 -2.7701  0.8162  2.6593
 3624TIP3   OH232506   2.259   3.365   0.200 -0.4758 -0.4886  0.3807
 3624TIP3    H132507   2.297   3.283   0.168 -0.8149 -0.3624 -0.3666
 3624TIP3    H232508   2.224   3.342   0.286 -1.0008 -1.2591 -0.0242
 3625TIP3   OH232509   5.555   0.144   1.947 -0.6464  1.0992  0.2978
 3625TIP3    H132510   5.486   0.090   1.986 -0.1558  0.2898  0.0585
 3625TIP3    H232511   5.637   0.108   1.981 -0.2912  1.4836 -0.1296
 3626TIP3   OH232512   6.097   3.814   0.502 -0.2540  0.1146 -0.5706
 3626TIP3    H132513   6.181   3.781   0.470  0.6675  0.8434  0.9638
 3626TIP3    H232514   6.113   3.906   0.522 -1.1621  0.0687  0.4991
 3627TIP3   OH232515   3.505   5.325   8.173 -0.2510  0.0405  0.3373
 3627TIP3    H132516   3.597   5.323   8.199  0.1019 -2.0608 -0.8609
 3627TIP3    H232517   3.504   5.379   8.094 -0.0786  0.1774  0.4278
 3628TIP3   OH232518   1.253   2.488   8.004  0.1021  0.2593 -0.4107
 3628TIP3    H132519   1.190   2.453   7.941  0.3902 -0.2237 -0.4398
 3628TIP3    H232520   1.324   2.524   7.950  1.0889 -1.5266 -0.3861
 3629TIP3   OH232521   1.478   3.749   2.490  0.3878 -0.6803 -0.6610
 3629TIP3    H132522   1.457   3.681   2.554  1.7049 -0.3223  0.1933
 3629TIP3    H232523   1.456   3.831   2.534 -0.7061 -0.5008 -1.4924
 3630TIP3   OH232524   4.735   0.151   7.507  1.1832  0.9920 -0.2751
 3630TIP3    H132525   4.691   0.176   7.426 -1.6475  0.4995  0.9950
 3630TIP3    H232526   4.779   0.230   7.537  0.8029  1.6466 -1.4045
 3631TIP3   OH232527   0.667   4.774   1.316 -0.0639  0.2223 -0.0857
 3631TIP3    H132528   0.753   4.811   1.334 -0.9862  2.0253  0.8987
 3631TIP3    H232529   0.614   4.849   1.288 -1.5216 -0.6912  0.1259
 3632TIP3   OH232530   2.659   4.549   2.080 -0.3302  0.1964 -0.2005
 3632TIP3    H132531   2.729   4.572   2.141 -0.2661 -0.2159 -0.1218
 3632TIP3    H232532   2.686   4.589   1.997  0.8442 -1.3683 -0.6174
 3633TIP3   OH232533   4.990   6.283   6.648  1.1845 -0.4304 -0.5425
 3633TIP3    H132534   4.935   6.318   6.578  1.6429  0.7690 -0.3137
 3633TIP3    H232535   5.064   6.343   6.653  0.0269  0.9399  2.5340
 3634TIP3   OH232536   2.878   0.550   0.787  0.1689 -0.1831  0.1165
 3634TIP3    H132537   2.837   0.634   0.808  0.0151 -0.1003 -0.5018
 3634TIP3    H232538   2.806   0.495   0.756  0.2128 -0.6572  0.8249
 3635TIP3   OH232539   5.168   5.368   7.854  0.1782  0.2727  0.2820
 3635TIP3    H132540   5.190   5.330   7.769 -0.1668  0.4600  0.1064
 3635TIP3    H232541   5.238   5.431   7.871  0.1419  0.3785  0.0434
 3636TIP3   OH232542   3.847   0.782   0.627 -0.1076  0.1711  0.0713
 3636TIP3    H132543   3.759   0.750   0.649  0.0667 -0.7950 -0.5434
 3636TIP3    H232544   3.896   0.702   0.605  0.9875  0.6815  0.6117
 3637TIP3   OH232545   0.342   1.069   1.962  0.8166  0.1009  0.6866
 3637TIP3    H132546   0.386   1.154   1.970 -1.0376  1.1873 -0.1658
 3637TIP3    H232547   0.379   1.030   1.883  0.2998  0.9830 -0.0035
 3638TIP3   OH232548   6.559   6.137   1.757 -0.4311  0.0875  0.1944
 3638TIP3    H132549   6.582   6.159   1.667 -1.3181  2.8219  0.5357
 3638TIP3    H232550   6.635   6.162   1.808 -0.8521  0.9847  0.4171
 3639TIP3   OH232551   2.370   0.961   2.178 -0.0081 -0.0220  0.4473
 3639TIP3    H132552   2.462   0.968   2.203  0.3126  0.0658 -0.7142
 3639TIP3    H232553   2.326   1.031   2.226  0.3901 -0.5391  1.6020
 3640TIP3   OH232554   0.557   6.881   0.526 -0.2713 -0.4891 -0.1179
 3640TIP3    H132555   0.584   6.973   0.518  2.8878 -1.1585  1.2576
 3640TIP3    H232556   0.569   6.844   0.439  0.3278 -0.0080 -0.2460
 3641TIP3   OH232557   3.712   0.210   0.275  0.4945  0.5900  0.0729
 3641TIP3    H132558   3.730   0.300   0.250 -1.8166  1.0992 -0.0261
 3641TIP3    H232559   3.731   0.206   0.369  1.9077  0.7764 -0.1941
 3642TIP3   OH232560   5.587   5.209   1.347 -0.5196 -0.2553  0.6730
 3642TIP3    H132561   5.529   5.199   1.422  0.0978 -3.1178  0.9032
 3642TIP3    H232562   5.662   5.154   1.367  0.4979  0.2997 -1.2889
 3643TIP3   OH232563   0.771   2.029   1.263 -0.1392 -0.0758 -0.1355
 3643TIP3    H132564   0.836   1.963   1.238 -1.1585 -1.4957  0.8746
 3643TIP3    H232565   0.824   2.103   1.295  1.0140 -1.7781  2.1683
 3644TIP3   OH232566   3.721   5.917   1.483  0.4114 -0.3675  0.3511
 3644TIP3    H132567   3.767   5.996   1.455 -1.9260  1.5189  1.4866
 3644TIP3    H232568   3.703   5.870   1.401  1.4546  0.4773 -0.3901
 3645TIP3   OH232569   3.232   5.019   8.398  0.4121 -0.0080 -0.5289
 3645TIP3    H132570   3.270   5.102   8.367 -1.2514  0.6828 -0.8234
 3645TIP3    H232571   3.211   4.971   8.318  0.2718 -0.1968 -0.3797
 3646TIP3   OH232572   6.717   2.091   6.835 -0.1213 -0.1995 -0.5136
 3646TIP3    H132573   6.685   2.076   6.924  1.3131  0.5484  0.1627
 3646TIP3    H232574   6.692   2.181   6.815  2.8083  1.0041  0.6733
 3647TIP3   OH232575   0.866   6.084   0.269  0.7557  0.0856 -0.0093
 3647TIP3    H132576   0.895   6.055   0.355  1.8492  0.9869 -0.0465
 3647TIP3    H232577   0.872   6.180   0.273 -2.7655  0.4107  0.1298
 3648TIP3   OH232578   3.040   4.358   1.909 -0.1254  0.8635  0.1645
 3648TIP3    H132579   3.024   4.346   2.002 -1.4792  1.7000  0.0769
 3648TIP3    H232580   2.986   4.292   1.866 -1.6453  2.2119 -0.0785
 3649TIP3   OH232581   0.767   0.060   0.044 -0.1676  0.5059  0.4060
 3649TIP3    H132582   0.744   0.070  -0.049 -0.8522 -1.6294  0.2870
 3649TIP3    H232583   0.814   0.141   0.066  0.9257  0.6408 -2.0597
 3650TIP3   OH232584   0.991   3.751   2.053  0.1952 -0.0647 -0.3369
 3650TIP3    H132585   0.977   3.753   2.148  0.3887 -0.8107 -0.2908
 3650TIP3    H232586   1.002   3.659   2.032  1.5577  0.1936 -0.8794
 3651TIP3   OH232587   3.930   2.521   7.722 -0.0130 -0.3177 -0.4688
 3651TIP3    H132588   3.889   2.586   7.664 -2.7852  0.4904  2.1429
 3651TIP3    H232589   4.022   2.547   7.726 -0.5818  2.1167 -1.2573
 3652TIP3   OH232590   0.803   2.739   0.374 -0.0479  0.1615 -0.1636
 3652TIP3    H132591   0.861   2.800   0.421  0.2441  0.7112 -1.2191
 3652TIP3    H232592   0.715   2.773   0.390  0.1759  1.5248 -1.6341
 3653TIP3   OH232593   1.486   4.300   1.263 -0.4707  0.0501  0.0054
 3653TIP3    H132594   1.474   4.206   1.276  2.4843 -0.4052  0.0564
 3653TIP3    H232595   1.530   4.329   1.343 -0.5698  1.3031 -0.3774
 3654TIP3   OH232596   1.780   3.500   0.321  0.5019  0.0948  0.1917
 3654TIP3    H132597   1.852   3.558   0.346 -0.3782  2.4265 -2.2044
 3654TIP3    H232598   1.706   3.530   0.373  0.2850  0.4522 -0.3211
 3655TIP3   OH232599   3.802   1.263   0.235  0.8948  0.0890 -0.0227
 3655TIP3    H132600   3.820   1.255   0.141  0.1764 -0.0749 -0.1550
 3655TIP3    H232601   3.728   1.204   0.250  1.2945 -0.2182  0.7359
 3656TIP3   OH232602   3.403   6.561   2.574  0.5582  0.0274  0.0185
 3656TIP3    H132603   3.495   6.582   2.562  1.0612 -1.1589  1.4837
 3656TIP3    H232604   3.392   6.476   2.531  0.3118 -0.1380  0.4013
 3657TIP3   OH232605   2.826   2.905   8.572  0.1515  0.0942  0.0603
 3657TIP3    H132606   2.804   2.874   8.484 -0.8225  0.4200  0.1817
 3657TIP3    H232607   2.853   2.996   8.560  1.0026 -0.1625 -0.0251
 3658TIP3   OH232608   5.479   2.654   8.582  0.0478 -0.2015  0.0099
 3658TIP3    H132609   5.496   2.685   8.493  2.0872 -2.5375 -0.5306
 3658TIP3    H232610   5.394   2.610   8.576 -0.0646  0.0964 -0.6417
 3659TIP3   OH232611   4.809   3.985   0.118  0.1946  0.0200  0.1564
 3659TIP3    H132612   4.755   3.948   0.048  0.0885 -3.0829  1.7149
 3659TIP3    H232613   4.839   3.909   0.168  2.0084  1.9664  2.2531
 3660TIP3   OH232614   2.924   3.179   8.592 -0.4231 -0.3651  0.9835
 3660TIP3    H132615   2.872   3.197   8.514  1.0347 -0.6821 -0.1014
 3660TIP3    H232616   2.863   3.191   8.665 -1.6846  0.4391 -0.1613
 3661TIP3   OH232617   3.417   6.183   8.520 -0.2348 -0.3032 -0.1512
 3661TIP3    H132618   3.440   6.232   8.442  0.5595  0.3373  0.4748
 3661TIP3    H232619   3.457   6.231   8.592  0.5717 -1.8515  0.4977
 3662TIP3   OH232620   4.488   1.940   2.738 -0.1238 -0.2362 -0.2312
 3662TIP3    H132621   4.514   1.884   2.810 -2.6578 -2.8261 -1.1452
 3662TIP3    H232622   4.445   2.015   2.779  3.4372  1.3736  1.0143
 3663TIP3   OH232623   2.368   6.296   0.613 -0.0124  0.2243  0.4732
 3663TIP3    H132624   2.423   6.279   0.690  0.3779  0.2134  0.1941
 3663TIP3    H232625   2.423   6.352   0.557 -0.4963  0.6847  0.4479
 3664TIP3   OH232626   4.001   2.060   7.572 -0.4370 -0.4820  0.2538
 3664TIP3    H132627   3.988   2.135   7.515 -0.2510 -1.2900 -0.8810
 3664TIP3    H232628   3.935   1.997   7.545  1.4121 -1.9832 -1.0272
 3665TIP3   OH232629   5.483   6.880   7.680  0.4601  0.3127 -0.5344
 3665TIP3    H132630   5.565   6.837   7.657  0.3159  0.1946 -0.8296
 3665TIP3    H232631   5.416   6.813   7.668  0.4267  0.1202  0.6460
 3666TIP3   OH232632   4.699   1.461   8.018  0.2280 -0.4103  0.0453
 3666TIP3    H132633   4.673   1.550   7.993 -1.4406 -0.5304  1.1696
 3666TIP3    H232634   4.681   1.456   8.112  4.8591 -0.4384  1.1704
 3667TIP3   OH232635   3.637   0.015   1.009  0.5938  0.1001 -0.0432
 3667TIP3    H132636   3.601  -0.070   1.033  3.4549 -0.9297  1.1005
 3667TIP3    H232637   3.626   0.068   1.088  0.3938  0.2299 -0.1567
 3668TIP3   OH232638   0.916   2.794   0.960 -0.0931  0.0434 -0.1804
 3668TIP3    H132639   0.978   2.843   1.014 -1.9293 -0.0269  2.1552
 3668TIP3    H232640   0.948   2.704   0.963 -0.0042  0.0957  0.5493
 3669TIP3   OH232641   0.147   4.655   1.765  0.0760 -0.0293  0.0080
 3669TIP3    H132642   0.193   4.584   1.721  0.9448  0.9619 -0.7416
 3669TIP3    H232643   0.113   4.615   1.846  2.3042 -0.8121  0.6404
 3670TIP3   OH232644   4.188   2.681   7.626 -0.3405 -0.0041 -0.5142
 3670TIP3    H132645   4.158   2.676   7.535 -0.5577  2.9932 -0.7148
 3670TIP3    H232646   4.261   2.742   7.624 -0.4956  0.2996  1.3523
 3671TIP3   OH232647   3.857   5.714   7.304  0.2164 -0.0143 -0.0410
 3671TIP3    H132648   3.874   5.787   7.364  0.2765 -0.5741  0.6466
 3671TIP3    H232649   3.912   5.732   7.228 -0.4494  1.1163 -0.2736
 3672TIP3   OH232650   5.302   2.941   1.619  0.3829  0.4556  0.1442
 3672TIP3    H132651   5.261   3.027   1.616 -0.9866 -0.1643  0.4237
 3672TIP3    H232652   5.241   2.887   1.669  0.4541 -1.0871 -1.3547
 3673TIP3   OH232653   4.202   5.165   8.061 -0.2326 -0.3452 -0.1371
 3673TIP3    H132654   4.260   5.241   8.068  1.8920 -2.0206  3.2214
 3673TIP3    H232655   4.224   5.126   7.976  2.8890 -0.2882  0.5248
 3674TIP3   OH232656   5.306   3.548   1.578  0.2301 -0.9592  0.0230
 3674TIP3    H132657   5.376   3.607   1.605 -0.7492  0.0017  0.4967
 3674TIP3    H232658   5.300   3.559   1.484  2.8336 -3.4265 -0.6001
 3675TIP3   OH232659   5.064   0.237   7.291  0.0191  0.7320 -0.4104
 3675TIP3    H132660   5.014   0.260   7.369  0.6879  0.2031  0.2011
 3675TIP3    H232661   5.000   0.202   7.230 -0.2734 -0.6796  0.6520
 3676TIP3   OH232662   5.327   2.320   2.301 -0.2342 -0.3146  0.8750
 3676TIP3    H132663   5.237   2.312   2.270  0.2906 -0.1811 -0.7857
 3676TIP3    H232664   5.342   2.239   2.351 -0.0787 -2.4025 -2.2074
 3677TIP3   OH232665   2.771   1.317   2.456  0.3494  0.2452 -0.0666
 3677TIP3    H132666   2.746   1.350   2.369  2.5507 -0.6608 -1.1191
 3677TIP3    H232667   2.703   1.350   2.514 -0.3770  2.1805 -1.8751
 3678TIP3   OH232668   3.311   0.873   7.972  0.2495 -0.1899  0.1200
 3678TIP3    H132669   3.262   0.792   7.984 -0.4866  0.4258  1.5443
 3678TIP3    H232670   3.403   0.848   7.987  0.0250 -0.7560  0.6131
 3679TIP3   OH232671   0.834   3.245   7.287  0.5579 -0.2161  0.1313
 3679TIP3    H132672   0.825   3.301   7.210  1.0989  0.5385  0.6095
 3679TIP3    H232673   0.790   3.163   7.262  0.3129  0.1871 -0.8007
 3680TIP3   OH232674   0.872   3.704   0.169 -0.5494  0.3337  0.3375
 3680TIP3    H132675   0.783   3.738   0.157 -0.7980 -0.3952  0.1085
 3680TIP3    H232676   0.905   3.691   0.080 -0.3360  0.2699  0.4255
 3681TIP3   OH232677   5.773   4.588   1.820 -0.6648 -0.3649  0.2046
 3681TIP3    H132678   5.800   4.535   1.745  0.4815  0.0526  0.3051
 3681TIP3    H232679   5.738   4.668   1.781 -0.3090 -0.2563  0.1048
 3682TIP3   OH232680   6.797   4.615   0.566 -0.1625 -0.0087  0.3078
 3682TIP3    H132681   6.831   4.641   0.651  0.3036  0.7338 -0.0938
 3682TIP3    H232682   6.820   4.687   0.508  1.0380 -1.2505 -0.8358
 3683TIP3   OH232683   6.701   4.576   0.068 -0.1920  0.4391  0.2345
 3683TIP3    H132684   6.771   4.620   0.021 -0.5915  0.0028 -0.8044
 3683TIP3    H232685   6.735   4.489   0.086 -0.2196  0.4440  0.3085
 3684TIP3   OH232686   1.096   1.612   8.280  0.5345  0.4200 -0.5278
 3684TIP3    H132687   1.110   1.647   8.368 -0.4405  2.6583 -1.1719
 3684TIP3    H232688   1.158   1.540   8.272 -1.2537 -1.8057  2.9812
 3685TIP3   OH232689   5.571   3.732   8.573 -0.3379 -0.1000  0.1419
 3685TIP3    H132690   5.606   3.817   8.600  0.6037 -0.4482  0.0357
 3685TIP3    H232691   5.587   3.728   8.479  0.2818 -0.6860  0.2616
 3686TIP3   OH232692   5.310   0.750   8.157 -0.6103  0.0285 -0.5073
 3686TIP3    H132693   5.226   0.781   8.122  0.4880  1.5743 -1.9471
 3686TIP3    H232694   5.294   0.739   8.250 -2.5212 -0.1169 -0.8090
 3687TIP3   OH232695   5.455   2.663   1.700  0.4501  0.3438 -0.5387
 3687TIP3    H132696   5.431   2.577   1.734 -2.3514  0.8575 -1.0485
 3687TIP3    H232697   5.421   2.665   1.611  0.1321  2.0935 -0.4140
 3688TIP3   OH232698   4.936   6.087   7.794 -0.2898  0.0891  0.2255
 3688TIP3    H132699   4.933   6.181   7.777 -0.8295  0.1689  0.7501
 3688TIP3    H232700   4.983   6.051   7.718  0.0450  0.7919  0.0903
 3689TIP3   OH232701   1.668   4.460   2.451  0.3309  0.2565  0.5863
 3689TIP3    H132702   1.731   4.395   2.481 -0.7606 -1.7116 -1.1636
 3689TIP3    H232703   1.583   4.427   2.480 -0.3374  0.4084 -1.1071
 3690TIP3   OH232704   0.698   2.829   2.064 -0.2372 -0.0585  0.3924
 3690TIP3    H132705   0.734   2.791   2.144 -0.0839  0.3718  0.5288
 3690TIP3    H232706   0.648   2.905   2.093 -0.0835  0.1684  0.0657
 3691TIP3   OH232707   2.220   0.466   8.150  0.1478  0.1264  0.0595
 3691TIP3    H132708   2.128   0.465   8.123  0.2881 -1.2081 -0.4568
 3691TIP3    H232709   2.217   0.475   8.245 -0.5204 -0.0095  0.0591
 3692TIP3   OH232710   3.240   5.943   0.652 -0.7500 -0.2175 -0.3986
 3692TIP3    H132711   3.229   5.870   0.590  0.7474 -0.8179  0.0025
 3692TIP3    H232712   3.320   5.987   0.623 -0.3547 -0.1478  0.7450
 3693TIP3   OH232713   1.708   3.834   8.402 -0.4361 -0.4846 -0.1999
 3693TIP3    H132714   1.722   3.925   8.426 -1.3402 -0.4353  0.1815
 3693TIP3    H232715   1.722   3.785   8.483  2.0488 -0.9327 -0.8218
 3694TIP3   OH232716   4.533   2.552   3.369  0.0014 -0.0517 -0.0268
 3694TIP3    H132717   4.465   2.531   3.433 -1.1290 -0.3826 -1.2639
 3694TIP3    H232718   4.525   2.646   3.355  0.1340 -0.0083  0.1873
 3695TIP3   OH232719   0.861   2.766   8.295  0.2083 -0.3163 -0.2356
 3695TIP3    H132720   0.835   2.765   8.203 -1.5548 -0.6348  0.2381
 3695TIP3    H232721   0.845   2.856   8.324  1.9928  0.1354 -0.5362
 3696TIP3   OH232722   6.208   1.932   0.665  0.0623 -0.1724 -1.0250
 3696TIP3    H132723   6.267   1.856   0.658  1.3058  0.8346 -1.8866
 3696TIP3    H232724   6.196   1.943   0.759  0.5279 -0.9349 -0.8616
 3697TIP3   OH232725   3.879   3.759   0.585  0.1895 -0.8115  0.5680
 3697TIP3    H132726   3.892   3.716   0.500  1.2579 -0.6875  0.6610
 3697TIP3    H232727   3.901   3.851   0.569 -1.5829 -0.3580  0.5006
 3698TIP3   OH232728   5.737   0.094   8.258 -0.0267  0.0126 -0.1726
 3698TIP3    H132729   5.671   0.045   8.308 -0.4711 -0.4791 -1.2087
 3698TIP3    H232730   5.706   0.184   8.261 -0.8295 -0.2293 -0.7394
 3699TIP3   OH232731   0.200   3.128   2.255 -0.0084  0.1053  0.2161
 3699TIP3    H132732   0.191   3.111   2.349  2.3676 -2.7521  0.0679
 3699TIP3    H232733   0.294   3.137   2.240 -0.3600  0.9351 -1.8498
 3700TIP3   OH232734   2.362   2.583   7.743  0.1545  0.4612  0.1710
 3700TIP3    H132735   2.324   2.497   7.725 -1.2547  1.0308  0.3290
 3700TIP3    H232736   2.291   2.645   7.727  1.4626  1.7192 -1.0916
 3701TIP3   OH232737   1.612   1.075   1.381 -0.4009  0.1291  0.8647
 3701TIP3    H132738   1.698   1.035   1.367  0.5223  2.2338  0.1750
 3701TIP3    H232739   1.560   1.047   1.306  0.1524  0.0717  0.4974
 3702TIP3   OH232740   2.582   5.652   2.504 -0.0977 -0.1893  0.4248
 3702TIP3    H132741   2.592   5.655   2.599 -1.6469  1.9529  0.5813
 3702TIP3    H232742   2.507   5.594   2.489  0.1679 -0.5544  0.4807
 3703TIP3   OH232743   5.600   5.627   2.321 -0.0669  0.0196 -0.1432
 3703TIP3    H132744   5.670   5.629   2.387  0.0382  0.8535 -0.2777
 3703TIP3    H232745   5.522   5.602   2.371 -0.4549  2.7175  0.7663
 3704TIP3   OH232746   0.263   2.711   1.562 -0.5079 -0.0724  0.4786
 3704TIP3    H132747   0.228   2.799   1.578 -0.0803  0.1298  0.3040
 3704TIP3    H232748   0.355   2.716   1.587 -0.0240  0.0335 -1.1713
 3705TIP3   OH232749   2.666   2.937   1.687 -0.2063  0.0320  0.5489
 3705TIP3    H132750   2.633   2.937   1.777 -0.9910  0.7765  0.2781
 3705TIP3    H232751   2.601   2.988   1.638  1.9896  2.7312  0.2423
 3706TIP3   OH232752   2.860   2.273   0.971 -0.0344 -0.7418 -0.3894
 3706TIP3    H132753   2.898   2.187   0.989  1.2052 -0.1541 -0.1144
 3706TIP3    H232754   2.924   2.315   0.913 -1.2483 -0.4819 -1.5812
 3707TIP3   OH232755   1.414   4.119   8.466 -0.1133  0.1840  0.0283
 3707TIP3    H132756   1.319   4.124   8.468 -0.2561 -0.2459 -2.3398
 3707TIP3    H232757   1.439   4.162   8.384  1.6536 -0.4467  0.1770
 3708TIP3   OH232758   6.165   1.637   7.116 -0.1973 -0.0626  0.0374
 3708TIP3    H132759   6.179   1.622   7.210 -0.7588  0.6959  0.2577
 3708TIP3    H232760   6.139   1.729   7.110  2.4668  0.7166 -1.1742
 3709TIP3   OH232761   5.008   5.180   1.109 -0.2542 -0.1317 -0.2157
 3709TIP3    H132762   4.937   5.134   1.154  0.8359 -1.0785  0.5822
 3709TIP3    H232763   5.057   5.222   1.180  1.9422 -2.2666 -0.3552
 3710TIP3   OH232764   6.284   6.021   0.002  0.1728 -0.0183 -0.8282
 3710TIP3    H132765   6.309   6.057   0.087  1.1641  0.7060 -1.4096
 3710TIP3    H232766   6.307   5.928   0.007 -2.3761 -0.6780  0.6695
 3711TIP3   OH232767   0.979   0.795   0.016 -0.3280 -0.8035  0.4423
 3711TIP3    H132768   0.957   0.862   0.081 -2.2398 -1.0329  0.0741
 3711TIP3    H232769   0.995   0.845  -0.065 -2.1071 -0.7521  0.0766
 3712TIP3   OH232770   6.665   5.940   7.973  0.1849 -0.1095  0.3950
 3712TIP3    H132771   6.596   6.007   7.976  0.8623  0.5958  0.3885
 3712TIP3    H232772   6.676   5.921   7.880  0.9545  0.7878  0.2935
 3713TIP3   OH232773   0.579   0.278   7.741 -0.7838  0.3938  0.1490
 3713TIP3    H132774   0.619   0.202   7.783 -2.4036 -2.3787 -2.8750
 3713TIP3    H232775   0.502   0.296   7.794 -0.5580 -0.2814  0.7319
 3714TIP3   OH232776   5.576   2.369   0.342 -0.2202  0.0833 -0.9081
 3714TIP3    H132777   5.544   2.408   0.261 -1.2860  0.4117 -0.3341
 3714TIP3    H232778   5.511   2.302   0.365 -0.1482  0.2790 -0.1023
 3715TIP3   OH232779   4.456   1.817   6.824  0.5307 -0.0163  0.1381
 3715TIP3    H132780   4.426   1.727   6.810  0.8233 -0.1983  0.6438
 3715TIP3    H232781   4.378   1.870   6.811  0.0586 -0.4524  1.0340
 3716TIP3   OH232782   3.684   0.915   2.914  0.4955 -0.5452  0.0716
 3716TIP3    H132783   3.675   0.904   2.819 -1.1315 -0.2168  0.1544
 3716TIP3    H232784   3.716   1.004   2.925  0.5352 -0.5274 -0.1704
 3717TIP3   OH232785   4.120   2.721   2.246 -0.3266 -0.0218  0.1704
 3717TIP3    H132786   4.141   2.630   2.269 -0.7004 -0.1591 -0.0150
 3717TIP3    H232787   4.026   2.719   2.227 -0.4482  0.5110  0.6825
 3718TIP3   OH232788   6.403   6.372   7.968  0.0669  0.3808  0.4871
 3718TIP3    H132789   6.333   6.359   8.033 -0.4602 -1.4879 -0.3798
 3718TIP3    H232790   6.358   6.406   7.891  0.2896  0.2248  0.2870
 3719TIP3   OH232791   3.507   4.092   8.397 -0.3705 -0.2041  0.4023
 3719TIP3    H132792   3.413   4.097   8.384 -0.4245  1.2726  1.1206
 3719TIP3    H232793   3.517   4.085   8.492  0.2510 -0.0086  0.3557
 3720TIP3   OH232794   6.801   0.380   0.658  0.6093 -0.4302 -0.5717
 3720TIP3    H132795   6.740   0.439   0.702 -0.1210 -1.5404 -0.0436
 3720TIP3    H232796   6.875   0.372   0.718  0.3223 -0.7150 -0.2545
 3721TIP3   OH232797   5.164   2.531   1.327 -0.2887 -0.5462  0.0195
 3721TIP3    H132798   5.069   2.529   1.316 -0.2480 -1.1149 -0.2432
 3721TIP3    H232799   5.178   2.505   1.418 -0.3836 -0.4729  0.0558
 3722TIP3   OH232800   4.036   5.300   1.168  0.0962 -0.6188 -0.5073
 3722TIP3    H132801   4.084   5.367   1.217 -0.3963  0.0196 -0.9008
 3722TIP3    H232802   3.945   5.328   1.172  0.2046  0.3583 -3.2037
 3723TIP3   OH232803   2.353   4.873   0.889  0.0077 -0.0630  0.0974
 3723TIP3    H132804   2.390   4.960   0.904  0.2888 -0.0657 -0.5531
 3723TIP3    H232805   2.321   4.876   0.799 -0.6096 -0.4162  0.2948
 3724TIP3   OH232806   1.106   6.074   1.183 -0.2709  0.0297  0.4551
 3724TIP3    H132807   1.164   6.047   1.112 -0.1085 -2.0530  1.3196
 3724TIP3    H232808   1.083   6.165   1.161  2.7116  0.7247 -0.2998
 3725TIP3   OH232809   5.807   6.383   8.245  0.0790  0.4331  0.4242
 3725TIP3    H132810   5.724   6.342   8.273  1.0630 -1.8836  0.1638
 3725TIP3    H232811   5.866   6.367   8.318  0.9435 -0.0559 -0.3720
 3726TIP3   OH232812   4.587   6.753   0.176 -0.6965  0.0467  0.5824
 3726TIP3    H132813   4.571   6.659   0.169 -0.2645  0.0344 -0.4314
 3726TIP3    H232814   4.510   6.793   0.134 -0.4542  0.1119  0.1912
 3727TIP3   OH232815   6.653   5.442   1.365 -0.3784  0.1983 -0.4350
 3727TIP3    H132816   6.687   5.471   1.449 -3.5244  1.0196  0.7237
 3727TIP3    H232817   6.693   5.501   1.301  1.2630  0.2470  0.6034
 3728TIP3   OH232818   4.872   3.325   1.744 -0.6181  0.1495  0.0110
 3728TIP3    H132819   4.802   3.332   1.809 -1.8635  1.4300 -1.3602
 3728TIP3    H232820   4.856   3.241   1.702 -1.3245  0.3902 -0.2328
 3729TIP3   OH232821   4.689   1.249   2.290 -0.8140 -0.7001 -0.3716
 3729TIP3    H132822   4.703   1.159   2.321  0.3113 -1.0319 -1.7290
 3729TIP3    H232823   4.613   1.242   2.232 -0.4881 -0.8604 -0.7833
 3730TIP3   OH232824   4.569   4.244   2.493  0.1721  0.0924 -0.5658
 3730TIP3    H132825   4.511   4.278   2.562  0.0111 -0.2497 -0.5308
 3730TIP3    H232826   4.642   4.306   2.491 -0.4410  0.8211 -0.9648
 3731TIP3   OH232827   5.163   3.196   8.610  0.3332  0.3127 -0.0957
 3731TIP3    H132828   5.231   3.142   8.569  0.9285  0.9057  0.1011
 3731TIP3    H232829   5.209   3.249   8.675 -0.0368  1.9121 -1.0715
 3732TIP3   OH232830   0.055   2.713   6.857  0.2861 -0.2391 -0.0950
 3732TIP3    H132831   0.064   2.756   6.943  0.0052  0.4563 -0.4042
 3732TIP3    H232832  -0.022   2.754   6.818  1.0524  0.2696 -1.1403
 3733TIP3   OH232833   2.019   1.167   8.023 -0.3955  0.9149 -0.1546
 3733TIP3    H132834   2.050   1.107   7.955 -1.6506 -0.8501  0.7334
 3733TIP3    H232835   1.977   1.110   8.088  0.1983  2.5800  1.8103
 3734TIP3   OH232836   0.648   6.835   0.784 -0.2633 -0.1966  0.5641
 3734TIP3    H132837   0.660   6.831   0.689  0.1327  0.3415  0.5899
 3734TIP3    H232838   0.555   6.812   0.797 -0.2422 -0.5829  0.0783
 3735TIP3   OH232839   4.932   0.201   1.466  0.2991 -0.4534  0.4924
 3735TIP3    H132840   4.991   0.147   1.413 -0.6512 -0.5131 -0.5305
 3735TIP3    H232841   4.848   0.156   1.461 -0.1735  0.3884  0.7810
 3736TIP3   OH232842   2.247   2.853   0.032  0.3861  0.3121 -0.7372
 3736TIP3    H132843   2.304   2.876   0.104  0.9811 -1.8649 -0.4393
 3736TIP3    H232844   2.159   2.879   0.061  0.4926 -1.1908  1.1637
 3737TIP3   OH232845   6.416   4.718   1.266 -0.0335  0.0050  0.2324
 3737TIP3    H132846   6.326   4.684   1.270 -0.6294  1.4504 -0.1533
 3737TIP3    H232847   6.413   4.798   1.318  0.6472  0.8910 -1.0500
 3738TIP3   OH232848   4.379   3.154   2.110  0.2221  0.1158  0.4285
 3738TIP3    H132849   4.450   3.090   2.120  1.6015  1.7061  1.2028
 3738TIP3    H232850   4.385   3.209   2.188 -1.2226  0.9220  0.0000
 3739TIP3   OH232851   1.610   2.585   1.619  0.1373 -1.0739  0.0849
 3739TIP3    H132852   1.557   2.654   1.660 -0.5590 -1.3371 -0.3704
 3739TIP3    H232853   1.548   2.534   1.567  0.8333 -1.4021 -0.4381
 3740TIP3   OH232854   2.030   4.793   7.725  0.2394 -0.1294  0.1889
 3740TIP3    H132855   1.954   4.783   7.783 -0.2215 -4.1023 -0.7700
 3740TIP3    H232856   1.999   4.851   7.655 -0.5777  1.3203  1.6752
 3741TIP3   OH232857   4.625   1.171   8.398  0.5195  0.0181  0.2822
 3741TIP3    H132858   4.721   1.176   8.398  0.5565 -0.6376  1.0275
 3741TIP3    H232859   4.603   1.129   8.481 -0.3676 -0.7656 -0.3386
 3742TIP3   OH232860   4.742   2.947   2.339 -0.4621 -0.3310  0.4137
 3742TIP3    H132861   4.775   3.023   2.387 -2.4909 -0.1919  1.7339
 3742TIP3    H232862   4.760   2.873   2.397  0.7690 -0.7775 -0.5032
 3743TIP3   OH232863   3.598   4.073   1.637  0.1357 -0.2790  0.6816
 3743TIP3    H132864   3.602   4.131   1.561  0.8799  0.5389  1.3128
 3743TIP3    H232865   3.663   4.006   1.619 -0.2261 -0.5213  0.2619
 3744TIP3   OH232866   5.306   3.051   8.207  0.1050  0.0931  0.1952
 3744TIP3    H132867   5.345   3.136   8.189 -4.0357  2.5174  1.4289
 3744TIP3    H232868   5.313   3.041   8.302  0.5981 -1.0447  0.0627
 3745TIP3   OH232869   6.618   1.852   7.956  0.5363  0.2143 -0.0646
 3745TIP3    H132870   6.589   1.935   7.991 -1.4632 -0.3395 -0.2782
 3745TIP3    H232871   6.639   1.799   8.033 -1.2776 -0.1169  0.2423
 3746TIP3   OH232872   2.024   0.313   0.427 -0.1203 -0.1608 -0.3132
 3746TIP3    H132873   2.078   0.323   0.505 -1.7919 -1.1971  1.0604
 3746TIP3    H232874   1.935   0.335   0.456 -0.5569  1.0608 -2.3635
 3747TIP3   OH232875   3.930   0.537   6.898 -0.1219  0.0722  0.2083
 3747TIP3    H132876   4.023   0.557   6.908 -0.1158  0.4355 -0.5493
 3747TIP3    H232877   3.925   0.481   6.821 -0.5081 -0.1856  0.4106
 3748TIP3   OH232878   0.641   1.987   0.012 -0.0438  0.4017  0.0171
 3748TIP3    H132879   0.640   1.974   0.107 -1.7202  1.0672  0.1245
 3748TIP3    H232880   0.733   1.980  -0.012  0.2146 -2.2568  1.3340
 3749TIP3   OH232881   5.540   6.332   8.326  0.2870 -0.0606 -0.4197
 3749TIP3    H132882   5.543   6.427   8.336  1.2329  0.0708 -1.7624
 3749TIP3    H232883   5.495   6.301   8.405 -0.6122  1.5375 -0.2670
 3750TIP3   OH232884   1.106   3.585   1.146  0.9358  0.5714 -0.6446
 3750TIP3    H132885   1.030   3.604   1.201  0.7321  0.2600 -0.8208
 3750TIP3    H232886   1.099   3.492   1.124  0.5640  0.8691 -1.8770
 3751TIP3   OH232887   6.198   6.089   1.673 -0.0940 -0.0680  0.3389
 3751TIP3    H132888   6.129   6.096   1.740 -0.4035  0.1803 -0.0045
 3751TIP3    H232889   6.165   6.022   1.613 -0.6132  0.9263 -0.5057
 3752TIP3   OH232890   3.036   3.152   0.687  0.5183 -0.8216  0.2995
 3752TIP3    H132891   3.025   3.178   0.778  1.0450  2.0818 -0.3778
 3752TIP3    H232892   2.964   3.194   0.641  1.6846 -0.1157 -0.9583
 3753TIP3   OH232893   4.231   5.787   6.855 -1.4901  0.1586  0.1837
 3753TIP3    H132894   4.177   5.866   6.850 -2.3063 -0.1155  3.1494
 3753TIP3    H232895   4.172   5.720   6.887  0.1169 -0.6347  1.6361
 3754TIP3   OH232896   6.556   2.539   6.936 -0.1070 -0.5785 -0.7821
 3754TIP3    H132897   6.553   2.634   6.941  1.0757 -0.5809  0.8649
 3754TIP3    H232898   6.647   2.519   6.913 -0.1940 -1.3056 -0.5262
 3755TIP3   OH232899   6.303   6.673   1.253 -0.7220 -0.5635 -0.0469
 3755TIP3    H132900   6.329   6.753   1.299 -0.7036 -0.1758 -0.7174
 3755TIP3    H232901   6.236   6.701   1.192  0.8544 -0.6125 -1.8961
 3756TIP3   OH232902   6.363   5.904   1.773  0.2109  0.2161  0.5029
 3756TIP3    H132903   6.280   5.939   1.740  0.0716  0.4986  1.1376
 3756TIP3    H232904   6.422   5.979   1.775  0.8636 -0.2122 -1.0773
 3757TIP3   OH232905   6.612   5.625   7.963  0.6199  1.0608  0.3164
 3757TIP3    H132906   6.527   5.598   7.998 -0.1950  1.4439 -1.2685
 3757TIP3    H232907   6.608   5.720   7.962  0.2916  1.0595 -1.4972
 3758TIP3   OH232908   0.564   5.513   1.284  0.0784 -0.1543 -0.0373
 3758TIP3    H132909   0.574   5.608   1.277 -1.1296 -0.0129  0.0089
 3758TIP3    H232910   0.618   5.489   1.359 -1.7656  0.8946  1.7430
 3759TIP3   OH232911   5.358   1.881   0.029 -0.3030  0.7670 -0.5249
 3759TIP3    H132912   5.319   1.954   0.077 -0.9005  2.5952 -3.5640
 3759TIP3    H232913   5.364   1.811   0.094 -4.5679  1.7733  1.3488
 3760TIP3   OH232914   5.051   5.986   8.049 -0.6769  0.0156  0.5073
 3760TIP3    H132915   5.016   6.027   7.969 -1.1467 -2.3406 -0.5896
 3760TIP3    H232916   4.975   5.977   8.106 -1.0951 -1.3862 -0.2180
 3761TIP3   OH232917   6.294   4.656   7.531  0.1907 -0.0232 -0.2911
 3761TIP3    H132918   6.218   4.692   7.485 -1.1177 -2.3970 -0.1610
 3761TIP3    H232919   6.361   4.723   7.523 -1.1055  1.1116 -2.5994
 3762TIP3   OH232920   4.712   3.180   7.813  0.4111  0.1048  0.0101
 3762TIP3    H132921   4.723   3.275   7.815 -0.5525  0.4133 -3.5221
 3762TIP3    H232922   4.617   3.167   7.807  0.6192 -0.9804 -1.1915
 3763TIP3   OH232923   2.654   2.058   7.571  0.0504  0.1976  0.1175
 3763TIP3    H132924   2.730   2.014   7.532 -1.3024 -0.8460 -1.4435
 3763TIP3    H232925   2.611   1.991   7.623 -0.4491  0.4590  0.0461
 3764TIP3   OH232926   0.932   1.773   2.587  0.3102 -0.0703  0.4789
 3764TIP3    H132927   0.853   1.763   2.640  1.0761 -0.5943  1.5649
 3764TIP3    H232928   0.947   1.685   2.551 -0.2065  0.2822 -0.6468
 3765TIP3   OH232929   3.726   3.368   1.089 -0.3425  0.2133 -0.2016
 3765TIP3    H132930   3.795   3.370   1.155  1.2760 -0.8413 -1.7571
 3765TIP3    H232931   3.708   3.275   1.076 -0.2596  0.3681 -1.5740
 3766TIP3   OH232932   2.987   2.522   0.971 -0.9928  0.3946 -0.0769
 3766TIP3    H132933   3.002   2.548   0.881 -1.5287 -3.2621 -1.3831
 3766TIP3    H232934   3.067   2.549   1.017  0.6053 -0.2688 -2.3038
 3767TIP3   OH232935   2.339   4.570   0.205  0.3118 -0.3237  0.0864
 3767TIP3    H132936   2.261   4.513   0.203  0.4300 -0.4614 -0.5586
 3767TIP3    H232937   2.383   4.554   0.122  0.1557  0.9862 -0.2608
 3768TIP3   OH232938   3.148   0.518   0.780  0.3315  0.7153 -0.5384
 3768TIP3    H132939   3.160   0.592   0.840  1.1381 -0.8904  1.3889
 3768TIP3    H232940   3.054   0.509   0.772  0.2213  1.5892 -0.3399
 3769TIP3   OH232941   4.783   5.687   1.788  0.2107  0.1248 -0.2531
 3769TIP3    H132942   4.835   5.715   1.863 -0.4562  1.0402 -0.1051
 3769TIP3    H232943   4.696   5.668   1.825  0.4898 -1.6927 -0.4363
 3770TIP3   OH232944   5.625   3.521   1.289 -0.2384 -0.6856 -0.5822
 3770TIP3    H132945   5.641   3.427   1.277  1.7938 -0.5017  0.2675
 3770TIP3    H232946   5.596   3.552   1.203  2.2701 -1.5161 -1.8049
 3771TIP3   OH232947   5.101   6.020   1.869 -0.1577  0.2044  0.0891
 3771TIP3    H132948   5.129   6.016   1.960 -1.4929 -0.0149  0.5110
 3771TIP3    H232949   5.106   6.112   1.845 -1.6040  0.5536  1.0024
 3772TIP3   OH232950   6.271   5.043   7.976 -0.2030  0.0570  0.1048
 3772TIP3    H132951   6.188   5.089   7.958  0.1995  0.3071 -1.2870
 3772TIP3    H232952   6.311   5.033   7.889  1.3063  0.0948  0.7702
 3773TIP3   OH232953   2.111   2.239   0.230 -0.1353 -0.2980  0.1984
 3773TIP3    H132954   2.025   2.204   0.250  0.3629 -0.1975  2.8005
 3773TIP3    H232955   2.095   2.330   0.205 -0.8039 -0.3426  0.4417
 3774TIP3   OH232956   2.117   0.868   1.763  0.2128  0.1661  0.2724
 3774TIP3    H132957   2.204   0.835   1.785 -0.8576 -2.9084  0.3381
 3774TIP3    H232958   2.069   0.867   1.845 -0.1073  1.1796  0.1108
 3775TIP3   OH232959   5.179   0.095   8.242 -0.6865  0.8358 -0.2680
 3775TIP3    H132960   5.156   0.011   8.202 -0.7742  1.1472 -0.8850
 3775TIP3    H232961   5.270   0.109   8.216  0.3654 -0.4983  2.3436
 3776TIP3   OH232962   3.566   4.967   2.586 -0.1510 -0.4573  0.1217
 3776TIP3    H132963   3.640   4.931   2.635  1.7593 -0.1104 -2.3302
 3776TIP3    H232964   3.600   5.046   2.544 -2.7846  1.3936  1.2081
 3777TIP3   OH232965   6.813   4.025   0.437 -0.4778 -0.0706  0.1454
 3777TIP3    H132966   6.839   3.944   0.481 -0.2901 -0.5318 -0.8095
 3777TIP3    H232967   6.895   4.068   0.414 -0.4501  1.9131  3.2656
 3778TIP3   OH232968   0.744   3.132   2.104 -0.1349  0.6180 -0.2600
 3778TIP3    H132969   0.703   3.156   2.021  0.0983 -0.7796 -0.7981
 3778TIP3    H232970   0.751   3.215   2.152  1.0385  1.6843 -2.1873
 3779TIP3   OH232971   4.072   4.189   1.129 -0.1517 -0.0174 -0.0668
 3779TIP3    H132972   4.140   4.134   1.090  0.1987  0.3352  0.0476
 3779TIP3    H232973   4.095   4.278   1.101 -0.3344  0.1482  0.3151
 3780TIP3   OH232974   3.951   3.615   1.053 -0.1771  0.3543 -0.0131
 3780TIP3    H132975   4.039   3.591   1.083 -0.4609  0.8034  1.2144
 3780TIP3    H232976   3.924   3.542   0.997  0.0334 -0.9452  1.5191
 3781TIP3   OH232977   6.474   6.530   1.473  0.3307  0.2630 -0.0977
 3781TIP3    H132978   6.417   6.484   1.410  1.5414 -1.5466  0.0424
 3781TIP3    H232979   6.460   6.623   1.455 -2.3538 -0.1038 -0.3134
 3782TIP3   OH232980   0.941   6.795   0.776  0.1627 -0.2398  0.5223
 3782TIP3    H132981   1.017   6.773   0.722 -0.5495  0.0071 -0.6073
 3782TIP3    H232982   0.866   6.764   0.725 -0.5456  0.1907  1.2834
 3783TIP3   OH232983   0.089   2.210   8.443 -0.6936 -0.1517  0.0789
 3783TIP3    H132984   0.151   2.215   8.370  0.7094  0.6205  1.2750
 3783TIP3    H232985   0.038   2.291   8.437 -1.9228 -0.9662 -1.1396
 3784TIP3   OH232986   1.976   2.601   7.899  0.2334  0.0157 -0.2636
 3784TIP3    H132987   1.972   2.679   7.953  0.4805  0.7809 -1.3129
 3784TIP3    H232988   2.015   2.534   7.955  1.2599  1.0105  0.2344
 3785TIP3   OH232989   3.031   1.488   1.817  0.2265  0.2176  0.2764
 3785TIP3    H132990   3.110   1.444   1.849  0.0927 -0.4271 -0.2509
 3785TIP3    H232991   3.034   1.576   1.856  0.8777 -0.0147  0.7573
 3786TIP3   OH232992   6.351   5.955   7.248 -0.2157  0.4217  0.8540
 3786TIP3    H132993   6.261   5.927   7.268 -0.4203  2.2684  2.8143
 3786TIP3    H232994   6.340   6.032   7.193  0.2071  0.3690  0.6898
 3787TIP3   OH232995   5.765   5.876   0.290 -0.3906  0.4035 -0.1910
 3787TIP3    H132996   5.689   5.920   0.329 -1.3050 -2.2576  1.3408
 3787TIP3    H232997   5.731   5.834   0.211  0.1862  1.3890 -0.9873
 3788TIP3   OH232998   3.198   0.519   7.056  0.0447  0.3777  0.4553
 3788TIP3    H132999   3.105   0.510   7.035  0.6145  0.2223 -2.2948
 3788TIP3    H233000   3.213   0.614   7.058 -0.2962  0.4298  1.7701
 3789TIP3   OH233001   1.970   1.524   2.224 -0.0259  0.0298 -0.2945
 3789TIP3    H133002   1.958   1.540   2.318  0.4032  1.3302 -0.4423
 3789TIP3    H233003   2.000   1.433   2.219  1.5086  0.4182  0.9696
 3790TIP3   OH233004   5.419   6.552   0.471  0.3100  0.5341 -0.2152
 3790TIP3    H133005   5.361   6.626   0.488 -0.3964 -0.2077  0.7265
 3790TIP3    H233006   5.368   6.494   0.414  0.4887  0.3256 -0.1661
 3791TIP3   OH233007   5.832   5.341   8.525 -0.0067  0.0809 -0.1715
 3791TIP3    H133008   5.902   5.283   8.555 -0.7445 -0.9190 -0.3125
 3791TIP3    H233009   5.874   5.426   8.514  0.9090 -0.2079  0.9202
 3792TIP3   OH233010   2.883   0.363   1.047  0.5590  0.4952  0.0629
 3792TIP3    H133011   2.905   0.419   0.973  1.1145  3.2187  2.1445
 3792TIP3    H233012   2.847   0.284   1.007  0.9112  1.7841 -3.0823
 3793TIP3   OH233013   0.963   0.215   7.783 -0.0573  0.1787 -0.7713
 3793TIP3    H133014   0.898   0.262   7.834 -1.2078 -0.8167 -1.2695
 3793TIP3    H233015   1.046   0.259   7.803 -0.9315  1.7384 -0.4613
 3794TIP3   OH233016   5.240   1.866   7.435 -0.0839  0.4883  0.2176
 3794TIP3    H133017   5.269   1.955   7.456  0.7524  0.0270  1.1193
 3794TIP3    H233018   5.318   1.813   7.449 -0.3337 -0.2790 -1.1701
 3795TIP3   OH233019   5.109   4.938   7.672 -0.4576  0.0861  0.1131
 3795TIP3    H133020   5.147   5.016   7.631 -2.0635  1.2223  0.6700
 3795TIP3    H233021   5.146   4.937   7.760  0.0498 -0.1527 -0.1005
 3796TIP3   OH233022   2.535   4.405   1.267 -0.1544 -0.3547  0.2289
 3796TIP3    H133023   2.599   4.376   1.332  0.4016 -2.2545 -1.0916
 3796TIP3    H233024   2.453   4.414   1.317  0.7283  0.4124  1.5976
 3797TIP3   OH233025   3.761   0.184   8.425  0.0712 -0.2811  0.1552
 3797TIP3    H133026   3.823   0.181   8.352 -0.3997  1.6738 -0.3925
 3797TIP3    H233027   3.768   0.274   8.459 -1.4035 -0.4583  1.0106
 3798TIP3   OH233028   2.865   1.030   7.329  0.3178  0.4376  0.1065
 3798TIP3    H133029   2.858   0.940   7.361 -0.8895  0.4489 -0.0698
 3798TIP3    H233030   2.903   1.022   7.242  2.6059  0.3221  1.0373
 3799TIP3   OH233031   3.534   0.718   7.803  0.4248 -0.0655  0.7171
 3799TIP3    H133032   3.594   0.693   7.732 -0.6680 -0.6813 -0.0220
 3799TIP3    H233033   3.511   0.808   7.784 -2.6358 -1.1993 -1.8745
 3800TIP3   OH233034   1.054   3.351   0.997 -0.2683 -0.1463 -0.1080
 3800TIP3    H133035   0.961   3.373   0.993 -0.1255  0.4945 -0.0720
 3800TIP3    H233036   1.082   3.347   0.905 -0.7949 -2.4614 -0.2060
 3801TIP3   OH233037   2.724   2.192   0.294 -0.0934 -0.1370 -0.3509
 3801TIP3    H133038   2.815   2.222   0.293  0.0561 -0.5860 -1.6133
 3801TIP3    H233039   2.704   2.173   0.202 -1.5339  0.1596 -0.1129
 3802TIP3   OH233040   2.607   4.519   1.026  0.5636 -0.0129  0.2835
 3802TIP3    H133041   2.649   4.598   1.062  0.8343 -0.6393  1.4012
 3802TIP3    H233042   2.577   4.472   1.103 -0.9166 -0.2972 -0.4450
 3803TIP3   OH233043   5.112   1.890   1.625  0.3578  0.7586  0.4674
 3803TIP3    H133044   5.134   1.807   1.583  0.5892  0.1604  1.7236
 3803TIP3    H233045   5.039   1.924   1.574  1.4187  0.6862 -1.1743
 3804TIP3   OH233046   5.639   0.333   0.828  0.1704  0.3916  0.0240
 3804TIP3    H133047   5.669   0.421   0.806 -0.7139  0.7841  0.3415
 3804TIP3    H233048   5.611   0.340   0.919 -1.5253  0.2322 -0.4567
 3805TIP3   OH233049   5.405   3.079   0.627  0.5320  0.1378  0.6557
 3805TIP3    H133050   5.435   2.998   0.586  2.1809  0.2261  1.5943
 3805TIP3    H233051   5.486   3.127   0.645 -0.3203  1.2403  1.6581
 3806TIP3   OH233052   3.948   0.664   1.172  0.6113  0.4280  0.2988
 3806TIP3    H133053   4.003   0.740   1.152  1.0541  0.2645  0.8717
 3806TIP3    H233054   3.873   0.701   1.219  0.5377  0.5792  0.0628
 3807TIP3   OH233055   2.208   5.036   7.135 -0.3908 -0.2494  0.2900
 3807TIP3    H133056   2.144   5.051   7.204 -1.4665  2.7447 -1.1539
 3807TIP3    H233057   2.169   4.968   7.080 -1.6996  0.5297  0.2120
 3808TIP3   OH233058   0.177   3.891   7.512  0.2735 -1.1930  0.1727
 3808TIP3    H133059   0.123   3.926   7.583  0.9620 -1.1909  0.6955
 3808TIP3    H233060   0.114   3.847   7.454 -0.8423  1.9240 -1.2114
 3809TIP3   OH233061   1.541   2.165   8.307  0.2316  0.3647 -0.1559
 3809TIP3    H133062   1.620   2.123   8.273  0.5530  0.0691  0.9348
 3809TIP3    H233063   1.563   2.190   8.396 -1.2318 -0.6579  0.5281
 3810TIP3   OH233064   1.444   0.851   2.646  0.3362 -0.9144  0.0139
 3810TIP3    H133065   1.474   0.930   2.691  1.3976  0.0582 -2.2200
 3810TIP3    H233066   1.354   0.839   2.675 -0.0107  1.4080  0.0799
 3811TIP3   OH233067   2.159   6.606   8.485  0.5613  0.0683  0.6880
 3811TIP3    H133068   2.133   6.542   8.419  1.7845 -0.5434  0.7602
 3811TIP3    H233069   2.095   6.597   8.555  0.6492 -0.9943  0.6395
 3812TIP3   OH233070   1.226   1.040   2.430  0.0131  0.3325  0.1979
 3812TIP3    H133071   1.211   0.953   2.466  1.6778 -0.2072 -0.3491
 3812TIP3    H233072   1.259   1.091   2.504 -0.6365  0.4145  0.4361
 3813TIP3   OH233073   0.834   2.829   1.280 -0.0693 -0.8360  0.0457
 3813TIP3    H133074   0.830   2.875   1.364  0.0732  2.0608 -1.3903
 3813TIP3    H233075   0.927   2.816   1.264 -0.0566 -0.7533  0.0491
 3814TIP3   OH233076   0.184   0.199   2.286 -0.2467 -0.0706  0.7839
 3814TIP3    H133077   0.128   0.228   2.358  0.2755 -0.3624  1.3174
 3814TIP3    H233078   0.268   0.178   2.327  0.6242  1.4081 -0.1436
 3815TIP3   OH233079   4.129   2.701   7.359  0.2530 -0.5635 -0.7329
 3815TIP3    H133080   4.152   2.643   7.286 -2.0122 -0.8713 -1.2845
 3815TIP3    H233081   4.121   2.787   7.319  0.0984 -0.5276 -0.6236
 3816TIP3   OH233082   2.268   3.321   6.766  0.2529  0.5325 -0.3151
 3816TIP3    H133083   2.280   3.352   6.676  0.2996  1.8195  0.1076
 3816TIP3    H233084   2.316   3.384   6.819  0.1295 -0.1446  0.6300
 3817TIP3   OH233085   3.650   0.484   2.157  0.1824 -0.2422 -0.1290
 3817TIP3    H133086   3.645   0.390   2.175 -0.0614 -0.1290  0.4133
 3817TIP3    H233087   3.743   0.505   2.165  0.1989 -0.3818  0.0415
 3818TIP3   OH233088   3.408   3.696   0.858 -0.5841 -0.3282 -0.5828
 3818TIP3    H133089   3.378   3.780   0.823  0.8072  0.9035  1.0234
 3818TIP3    H233090   3.503   3.701   0.854 -0.4706 -1.6934 -0.1385
 3819TIP3   OH233091   3.338   4.119   8.004  0.2538 -0.4906 -0.1169
 3819TIP3    H133092   3.312   4.159   7.921  0.7697 -0.7990 -0.4354
 3819TIP3    H233093   3.309   4.181   8.071  2.4331  1.2373 -0.6610
 3820TIP3   OH233094   1.539   0.236   2.302 -0.3550  0.0556 -0.0575
 3820TIP3    H133095   1.475   0.211   2.369  0.0057 -0.3567  0.1417
 3820TIP3    H233096   1.544   0.331   2.309  1.0151 -0.0948  1.7780
 3821TIP3   OH233097   4.575   4.322   8.059 -0.2021  0.1330  0.0360
 3821TIP3    H133098   4.639   4.251   8.049 -0.9029 -0.5168  0.1029
 3821TIP3    H233099   4.601   4.367   8.139  0.5865  0.3178 -0.3109
 3822TIP3   OH233100   5.852   5.592   1.297  0.1261  0.0051  0.0027
 3822TIP3    H133101   5.932   5.539   1.296 -0.7433 -1.3421  0.0438
 3822TIP3    H233102   5.782   5.531   1.275 -0.9158  1.1534  0.0209
 3823TIP3   OH233103   4.739   3.767   1.592  0.3724  0.5147 -0.0392
 3823TIP3    H133104   4.801   3.722   1.649  2.9581  3.7665  0.0350
 3823TIP3    H233105   4.661   3.778   1.646  0.4857 -1.6901  0.6905
 3824TIP3   OH233106   6.341   6.350   1.753  0.6030 -0.5087 -0.0768
 3824TIP3    H133107   6.367   6.307   1.671 -0.4279 -1.2685 -0.0109
 3824TIP3    H233108   6.391   6.305   1.821 -0.2959 -1.4856 -0.0347
 3825TIP3   OH233109   0.064   6.159   8.312  0.4938  0.6080 -0.2050
 3825TIP3    H133110   0.101   6.106   8.382  1.3282  0.2194 -0.9274
 3825TIP3    H233111  -0.026   6.177   8.341  0.2439 -1.0271  0.1544
 3826TIP3   OH233112   4.962   4.538   7.977 -0.2161 -0.4691  0.4288
 3826TIP3    H133113   5.040   4.584   8.007  0.1871  1.5029 -3.1614
 3826TIP3    H233114   4.891   4.602   7.990 -0.2448 -0.0981 -1.3547
 3827TIP3   OH233115   4.555   4.540   1.938 -0.0177 -0.4122 -0.4331
 3827TIP3    H133116   4.581   4.631   1.927 -0.1972 -0.2501  0.4157
 3827TIP3    H233117   4.493   4.541   2.011  0.7830 -1.3549  0.2726
 3828TIP3   OH233118   6.184   6.662   7.612 -0.0823  0.2770 -1.2411
 3828TIP3    H133119   6.105   6.675   7.560 -0.5163  1.8176 -0.2703
 3828TIP3    H233120   6.207   6.750   7.643  0.8963 -0.4069  0.0730
 3829TIP3   OH233121   6.491   6.692   8.575  0.3183 -0.2569 -0.1375
 3829TIP3    H133122   6.420   6.720   8.517 -1.3152 -0.4460  1.6623
 3829TIP3    H233123   6.567   6.685   8.517 -1.1386 -0.2254 -2.2017
 3830TIP3   OH233124   0.869   0.729   1.589  0.2401 -0.0643  0.6547
 3830TIP3    H133125   0.813   0.652   1.577  0.8443 -0.0860 -4.3571
 3830TIP3    H233126   0.954   0.693   1.616 -0.0963 -0.9373  0.5717
 3831TIP3   OH233127   2.134   2.096   1.574 -0.1038  0.0629  0.3982
 3831TIP3    H133128   2.166   2.109   1.663 -0.9572  3.2474  0.3572
 3831TIP3    H233129   2.041   2.121   1.577 -0.1800  0.1668 -1.3585
 3832TIP3   OH233130   3.279   2.648   1.848  0.0650 -0.6949  0.3855
 3832TIP3    H133131   3.196   2.608   1.825  0.3835 -0.9266 -0.3759
 3832TIP3    H233132   3.268   2.740   1.825 -0.8320 -0.1732  2.5632
 3833TIP3   OH233133   1.624   6.333   1.138  0.9231  0.4895 -0.0213
 3833TIP3    H133134   1.636   6.393   1.064  1.1817  0.3677 -0.0801
 3833TIP3    H233135   1.542   6.288   1.120  1.8460 -0.8230 -1.1510
 3834TIP3   OH233136   2.441   6.152   6.768  0.1355 -0.1542  0.0027
 3834TIP3    H133137   2.405   6.089   6.831  0.5357 -1.6037 -1.1766
 3834TIP3    H233138   2.478   6.221   6.823 -0.4497 -0.8528  1.3289
 3835TIP3   OH233139   6.835   1.121   0.033 -0.1866  0.5079  0.1647
 3835TIP3    H133140   6.764   1.078  -0.014  1.2240 -4.0636  1.7381
 3835TIP3    H233141   6.792   1.160   0.110 -1.3039 -0.0766 -0.1387
 3836TIP3   OH233142   5.645   1.397   6.930  0.1057 -0.1061 -0.1268
 3836TIP3    H133143   5.675   1.488   6.936  0.0012 -0.1085  0.4141
 3836TIP3    H233144   5.596   1.394   6.847  0.6066  0.1837 -0.4403
 3837TIP3   OH233145   0.295   1.187   0.128 -0.5028 -0.1434 -0.1737
 3837TIP3    H133146   0.389   1.172   0.139 -0.2763  0.3100 -1.2759
 3837TIP3    H233147   0.281   1.276   0.161 -0.3630  0.1306 -0.8320
 3838TIP3   OH233148   5.735   0.709   7.215  0.2844 -0.5556  0.8178
 3838TIP3    H133149   5.693   0.628   7.243 -0.7629 -0.6105 -0.7469
 3838TIP3    H233150   5.719   0.712   7.120 -2.3505  2.8651  1.1492
 3839TIP3   OH233151   4.463   1.360   8.649  0.3088  0.1923 -0.1847
 3839TIP3    H133152   4.447   1.266   8.643  0.0426  0.1912  0.4008
 3839TIP3    H233153   4.487   1.387   8.561 -2.7519  0.1565 -1.1610
 3840TIP3   OH233154   3.825   1.560   7.202  0.0894  0.1004  0.4759
 3840TIP3    H133155   3.759   1.514   7.150 -0.2416  0.8917  0.1655
 3840TIP3    H233156   3.905   1.509   7.191 -0.4792 -0.9015  0.8980
 3841TIP3   OH233157   2.100   6.009   8.216  0.0042  0.5739 -0.6089
 3841TIP3    H133158   2.046   5.948   8.167 -2.5982  1.7367  0.6242
 3841TIP3    H233159   2.115   6.082   8.155 -0.1377  0.4029 -0.8482
 3842TIP3   OH233160   3.002   6.560   2.770 -0.4855  0.3035 -0.2396
 3842TIP3    H133161   3.088   6.519   2.756  0.2456  0.7005  2.5346
 3842TIP3    H233162   2.957   6.501   2.830 -1.5399  0.9067 -0.4209
 3843TIP3   OH233163   2.472   6.155   8.552  0.0752  0.0859  0.4118
 3843TIP3    H133164   2.414   6.086   8.520  0.3678  0.4340 -0.9360
 3843TIP3    H233165   2.434   6.183   8.635 -1.2149 -0.2650 -0.0510
 3844TIP3   OH233166   3.567   5.325   7.536  0.0113 -0.6860 -0.6936
 3844TIP3    H133167   3.584   5.237   7.503 -0.4376 -0.4739 -1.5209
 3844TIP3    H233168   3.608   5.383   7.472 -0.0346 -0.2854 -0.3606
 3845TIP3   OH233169   3.623   2.985   2.353 -0.4529 -0.3500 -0.0833
 3845TIP3    H133170   3.644   2.896   2.324 -0.2447 -0.7267  1.1833
 3845TIP3    H233171   3.537   2.977   2.394 -1.3977  0.4544 -1.7867
 3846TIP3   OH233172   4.766   5.764   1.328  0.3219 -0.4032 -0.1220
 3846TIP3    H133173   4.827   5.735   1.260 -0.7700  1.6450 -2.0861
 3846TIP3    H233174   4.679   5.744   1.292 -0.2773 -1.3020  1.6935
 3847TIP3   OH233175   3.173   2.467   1.493  0.1232  0.4926  0.0405
 3847TIP3    H133176   3.158   2.543   1.550 -0.9500  1.1427 -1.0620
 3847TIP3    H233177   3.258   2.433   1.520 -0.1889  0.9877  1.7793
 3848TIP3   OH233178   5.829   1.585   7.107  0.8465 -0.1573  0.3238
 3848TIP3    H133179   5.891   1.658   7.101 -1.6805  2.0844 -0.4080
 3848TIP3    H233180   5.745   1.623   7.082 -0.3084 -3.7974 -2.1152
 3849TIP3   OH233181   1.114   0.066   0.046  0.3880 -0.5015  0.3384
 3849TIP3    H133182   1.102   0.130  -0.023  1.4453  0.5346  1.0582
 3849TIP3    H233183   1.140  -0.014   0.001 -1.5645 -0.6396 -0.6178
 3850TIP3   OH233184   4.045   0.971   1.553  0.3311  0.1902  0.0184
 3850TIP3    H133185   4.121   1.015   1.592  0.6292 -0.9351  0.7543
 3850TIP3    H233186   4.082   0.899   1.503 -0.1589  0.7092 -1.1396
 3851TIP3   OH233187   0.073   1.146   0.652 -0.0838 -0.1258  0.1023
 3851TIP3    H133188   0.008   1.180   0.714 -1.6666  0.1229 -1.5813
 3851TIP3    H233189   0.136   1.100   0.706 -0.7990  0.9791  1.9830
 3852TIP3   OH233190   4.517   4.731   0.161  0.0790  0.2411  0.3280
 3852TIP3    H133191   4.526   4.824   0.177  0.1619  0.0783  1.2849
 3852TIP3    H233192   4.591   4.709   0.104 -0.3475  0.8782 -0.5020
 3853TIP3   OH233193   3.754   5.496   7.713  0.3112 -0.4101  0.2232
 3853TIP3    H133194   3.746   5.447   7.631 -1.2146  1.0273 -0.5475
 3853TIP3    H233195   3.707   5.444   7.777 -0.0424 -0.6707 -0.2390
 3854TIP3   OH233196   1.939   1.371   0.202 -0.3551  0.2137 -0.1261
 3854TIP3    H133197   1.875   1.442   0.204  0.7724  1.2685 -0.3346
 3854TIP3    H233198   1.891   1.296   0.167 -1.3226  1.1349 -0.8314
 3855TIP3   OH233199   1.016   2.950   7.349 -0.1807  0.1949 -0.0733
 3855TIP3    H133200   0.976   2.967   7.264  0.6373 -3.2094 -1.2875
 3855TIP3    H233201   1.109   2.970   7.336 -0.1580  0.3073  0.2520
 3856TIP3   OH233202   0.208   1.389   1.663  0.2630  0.1150  0.8612
 3856TIP3    H133203   0.246   1.423   1.582  1.3908 -1.9370  0.4817
 3856TIP3    H233204   0.201   1.466   1.720 -4.3449  2.6380 -2.3940
 3857TIP3   OH233205   3.019   5.433   8.283 -0.0855  0.2724 -0.1239
 3857TIP3    H133206   3.113   5.449   8.290 -0.1018  0.4919 -0.3619
 3857TIP3    H233207   2.995   5.471   8.198  0.0752 -1.9865 -1.2489
 3858TIP3   OH233208   1.219   1.976   0.347 -0.0509 -0.4098  0.2106
 3858TIP3    H133209   1.132   1.954   0.315 -0.3721 -0.3252  1.0084
 3858TIP3    H233210   1.245   1.902   0.401  0.5550 -0.6224 -0.3471
 3859TIP3   OH233211   6.209   3.526   1.376 -0.2705  0.0891  0.2267
 3859TIP3    H133212   6.118   3.518   1.349 -0.5820 -0.6716  1.4324
 3859TIP3    H233213   6.207   3.523   1.472  0.9410  0.9755  0.3076
 3860TIP3   OH233214   4.139   2.960   0.072 -0.1703 -0.3168 -0.1414
 3860TIP3    H133215   4.126   2.913   0.154  0.3823  1.3463  0.9473
 3860TIP3    H233216   4.234   2.959   0.060 -0.1051  0.9105  0.1639
 3861TIP3   OH233217   0.788   3.981   8.216  0.4190 -0.3368 -0.2323
 3861TIP3    H133218   0.814   4.072   8.228 -2.9636  1.1457 -2.5894
 3861TIP3    H233219   0.817   3.958   8.128 -1.3694 -0.3913 -0.8601
 3862TIP3   OH233220   6.690   4.806   7.878  0.2636 -0.7234  0.6068
 3862TIP3    H133221   6.611   4.762   7.846  0.8710 -0.7185 -1.0459
 3862TIP3    H233222   6.661   4.856   7.953 -1.0976 -1.5036  0.6445
 3863TIP3   OH233223   1.976   5.834   1.772 -0.0887 -0.0327 -0.2837
 3863TIP3    H133224   1.945   5.747   1.794  0.6936 -0.1276  0.4626
 3863TIP3    H233225   2.029   5.822   1.693 -0.3562 -0.1632 -0.4430
 3864TIP3   OH233226   5.786   6.120   8.636  0.5672 -0.2423  0.1032
 3864TIP3    H133227   5.786   6.026   8.621 -0.4325 -0.2881  0.3546
 3864TIP3    H233228   5.876   6.139   8.664  1.5495 -0.6847 -2.4460
 3865TIP3   OH233229   4.087   2.518   1.677 -0.3534 -0.0174  0.0136
 3865TIP3    H133230   4.117   2.587   1.737  2.9186 -0.9479 -0.3381
 3865TIP3    H233231   4.025   2.467   1.729  0.7226  0.5020  1.9127
 3866TIP3   OH233232   2.323   3.912   7.371  0.3151  0.3922 -0.3483
 3866TIP3    H133233   2.409   3.886   7.338 -0.0838 -1.2268 -0.2144
 3866TIP3    H233234   2.300   3.989   7.320  1.6432  0.5839 -0.7033
 3867TIP3   OH233235   2.436   0.471   7.071 -0.2595 -0.2868  0.1877
 3867TIP3    H133236   2.348   0.508   7.068  0.3236  1.1171 -0.9227
 3867TIP3    H233237   2.439   0.409   6.999  0.1187  0.8403 -0.7991
 3868TIP3   OH233238   3.935   3.520   7.661  0.1943 -0.9473  0.4868
 3868TIP3    H133239   3.960   3.566   7.580 -0.3046 -2.4316 -0.5669
 3868TIP3    H233240   3.982   3.566   7.730  0.4368  0.5460 -0.6119
 3869TIP3   OH233241   3.891   1.694   7.602 -0.1427 -0.4314 -0.2870
 3869TIP3    H133242   3.833   1.737   7.539 -0.1333  0.1692  0.0974
 3869TIP3    H233243   3.926   1.618   7.556  1.1462  0.8946 -1.5928
 3870TIP3   OH233244   4.734   2.371   7.102  0.4838 -0.6084  0.4656
 3870TIP3    H133245   4.789   2.438   7.143 -0.1211  0.2188 -0.0306
 3870TIP3    H233246   4.650   2.416   7.087  0.7043 -0.8376 -1.7108
 3871TIP3   OH233247   4.491   2.664   7.830 -0.0763 -0.0244 -0.3583
 3871TIP3    H133248   4.439   2.603   7.881 -2.2534  1.5471 -0.5528
 3871TIP3    H233249   4.460   2.653   7.740  0.6602  0.2356 -0.6566
 3872TIP3   OH233250   6.298   4.647   1.527  0.9176 -0.0083 -0.6370
 3872TIP3    H133251   6.326   4.680   1.613 -2.8966  0.3608  0.6420
 3872TIP3    H233252   6.314   4.553   1.532  3.4237  0.3379 -0.7587
 3873TIP3   OH233253   0.442   3.881   1.844  0.0304  0.0661 -0.0490
 3873TIP3    H133254   0.470   3.802   1.890 -1.0894 -0.8520 -0.8981
 3873TIP3    H233255   0.403   3.849   1.762  0.4158  1.5562 -0.8578
 3874TIP3   OH233256   6.075   0.597   7.816  0.0923 -0.0495 -0.2844
 3874TIP3    H133257   6.105   0.570   7.730 -0.8801 -0.8258 -0.4014
 3874TIP3    H233258   6.054   0.690   7.806 -0.5413 -0.2611 -1.0477
 3875TIP3   OH233259   6.223   3.228   7.800  0.1063  0.8566 -0.2232
 3875TIP3    H133260   6.231   3.238   7.895 -0.5006 -2.4126  0.2630
 3875TIP3    H233261   6.145   3.176   7.787  0.5400  0.6645 -2.5099
 3876TIP3   OH233262   6.193   4.318   7.833 -0.3073  0.4739  0.2586
 3876TIP3    H133263   6.199   4.253   7.903  0.3770  1.3882  1.0773
 3876TIP3    H233264   6.254   4.288   7.766 -0.7449 -0.2463  0.1704
 3877TIP3   OH233265   5.748   6.808   7.583 -0.6428 -0.2641  0.0250
 3877TIP3    H133266   5.793   6.871   7.527  0.9338 -0.4745  0.9634
 3877TIP3    H233267   5.804   6.802   7.661 -1.9731 -1.0880  0.9549
 3878TIP3   OH233268   6.521   5.602   2.436  0.6327  0.2705  0.2220
 3878TIP3    H133269   6.441   5.637   2.475 -0.4635 -1.7684 -0.0578
 3878TIP3    H233270   6.493   5.562   2.354  2.1249  0.4202 -0.3980
 3879TIP3   OH233271   0.367   6.373   1.829 -0.2192 -0.3397  0.3480
 3879TIP3    H133272   0.398   6.379   1.920  0.1221  0.5179  0.1845
 3879TIP3    H233273   0.272   6.379   1.835 -0.1479  0.8435  0.5798
 3880TIP3   OH233274   6.679   5.967   6.899  0.1006 -0.2245 -0.4609
 3880TIP3    H133275   6.710   6.026   6.831  0.5915 -0.0652 -0.1012
 3880TIP3    H233276   6.712   6.005   6.981 -0.4221 -0.4498 -0.1362
 3881TIP3   OH233277   6.199   2.449   1.545 -0.2253  0.3661 -0.0794
 3881TIP3    H133278   6.216   2.520   1.606 -1.3938  0.5436  0.0752
 3881TIP3    H233279   6.277   2.444   1.490  0.0443  1.4719  0.1884
 3882TIP3   OH233280   6.498   4.661   0.235 -0.4051  0.3150  0.5695
 3882TIP3    H133281   6.556   4.635   0.164  1.5873 -0.7165  2.4387
 3882TIP3    H233282   6.496   4.757   0.231 -0.1399  0.2842 -0.6937
 3883TIP3   OH233283   5.428   0.024   1.400 -0.1400  0.2610 -0.3060
 3883TIP3    H133284   5.417  -0.069   1.378  0.6155  0.4184 -1.4320
 3883TIP3    H233285   5.401   0.070   1.321 -0.8127  1.0314  0.3548
 3884TIP3   OH233286   5.418   6.830   8.214 -0.1503 -0.0055  0.2148
 3884TIP3    H133287   5.366   6.761   8.255 -0.8752  0.1499 -0.4269
 3884TIP3    H233288   5.488   6.785   8.167 -1.4396 -0.4176 -1.3885
 3885TIP3   OH233289   4.804   0.203   0.066 -0.1572 -0.2021 -0.2667
 3885TIP3    H133290   4.859   0.219  -0.011 -1.4974  0.8627 -1.0561
 3885TIP3    H233291   4.860   0.226   0.140  1.0843 -1.0139 -0.9210
 3886TIP3   OH233292   6.188   6.714   8.112  0.1150 -0.1142 -0.6526
 3886TIP3    H133293   6.178   6.664   8.032 -1.3982  0.6413 -0.9646
 3886TIP3    H233294   6.116   6.685   8.168 -0.8555  1.7379 -0.8752
 3887TIP3   OH233295   4.913   1.407   0.597  0.0293 -0.3059  0.3331
 3887TIP3    H133296   4.822   1.404   0.627 -0.1586 -0.3747 -0.2138
 3887TIP3    H233297   4.961   1.447   0.669 -0.8380  2.0018 -0.2779
 3888TIP3   OH233298   0.240   5.408   0.565 -0.0931  0.4037 -0.2858
 3888TIP3    H133299   0.204   5.416   0.477  0.7170 -0.5669 -0.7208
 3888TIP3    H233300   0.334   5.416   0.554 -0.0592  2.1186  0.7485
 3889TIP3   OH233301   3.375   5.235   0.012  0.3032  0.2826 -0.0027
 3889TIP3    H133302   3.310   5.182   0.059 -0.3341  2.1174  1.3526
 3889TIP3    H233303   3.446   5.247   0.076  0.9189  0.1898 -0.6626
 3890TIP3   OH233304   1.480   3.167   0.989 -0.1633 -0.0404 -0.4110
 3890TIP3    H133305   1.475   3.253   1.031 -2.1337  1.0880 -2.6599
 3890TIP3    H233306   1.559   3.171   0.936  0.4683 -0.1558  0.5031
 3891TIP3   OH233307   0.409   1.741   2.526 -0.4061  0.0558 -0.2651
 3891TIP3    H133308   0.362   1.822   2.502 -0.5834  0.4201  1.2036
 3891TIP3    H233309   0.501   1.763   2.513 -0.5419 -0.5191 -2.7450
 3892TIP3   OH233310   0.450   5.619   1.584  0.3302  0.0098  0.5081
 3892TIP3    H133311   0.397   5.672   1.524  0.3598 -1.3909 -0.8393
 3892TIP3    H233312   0.533   5.667   1.592  0.6137 -0.1151 -1.2066
 3893TIP3   OH233313   1.936   2.319   1.141 -0.1607 -0.1380  0.2232
 3893TIP3    H133314   1.909   2.395   1.192  0.8283  1.5419 -1.6434
 3893TIP3    H233315   1.951   2.251   1.207  2.6098  2.3541  2.4276
 3894TIP3   OH233316   0.775   3.015   8.478 -0.2127 -0.1809 -0.4609
 3894TIP3    H133317   0.812   3.102   8.491 -0.4484 -0.2275  0.6888
 3894TIP3    H233318   0.714   3.025   8.405  2.0155 -0.1096 -2.4303
 3895TIP3   OH233319   3.657   3.397   8.123 -0.1522 -0.1432 -0.4217
 3895TIP3    H133320   3.731   3.457   8.130 -1.9863  2.1154  0.9931
 3895TIP3    H233321   3.651   3.379   8.029  1.6437  0.2748 -0.6626
 3896TIP3   OH233322   2.308   2.704   2.811  0.2258  0.2662  0.1755
 3896TIP3    H133323   2.388   2.691   2.759 -0.1417 -3.3859  0.2692
 3896TIP3    H233324   2.340   2.711   2.901  0.5241  0.4948  0.0554
 3897TIP3   OH233325   6.638   3.504   0.987 -0.1677 -0.1952 -0.4370
 3897TIP3    H133326   6.586   3.500   0.907  1.0583 -0.2756 -1.2578
 3897TIP3    H233327   6.689   3.424   0.987 -0.2808 -0.2763  0.5266
 3898TIP3   OH233328   6.719   0.425   2.720  0.0500 -0.4401 -0.3309
 3898TIP3    H133329   6.776   0.355   2.752  0.3191 -0.8556 -1.6340
 3898TIP3    H233330   6.778   0.485   2.674 -0.0393  1.1628  1.5042
 3899TIP3   OH233331   0.710   1.480   1.375  0.1466  0.0052 -0.1099
 3899TIP3    H133332   0.650   1.554   1.377 -1.2103 -1.0574 -0.0089
 3899TIP3    H233333   0.794   1.517   1.403 -0.1168  1.7893 -1.5018
 3900TIP3   OH233334   1.010   5.665   0.182 -0.0705  0.1526  0.2335
 3900TIP3    H133335   1.095   5.650   0.224  0.0996  1.2286  0.2903
 3900TIP3    H233336   0.948   5.663   0.255 -0.1162 -0.6905  0.1857
 3901TIP3   OH233337   3.850   5.971   0.768  0.3779 -0.0648  0.4572
 3901TIP3    H133338   3.904   5.949   0.693  0.5140 -2.2477  1.1364
 3901TIP3    H233339   3.764   5.991   0.732  0.9282  0.8597 -0.4014
 3902TIP3   OH233340   6.057   6.728   6.802 -0.0265  0.5048  0.0035
 3902TIP3    H133341   6.047   6.805   6.746  1.8380  0.4557 -0.4420
 3902TIP3    H233342   6.123   6.675   6.758 -0.8357 -1.0769  0.6318
 3903TIP3   OH233343   0.232   6.576   7.226 -0.2302  0.3325 -0.0390
 3903TIP3    H133344   0.314   6.624   7.217  0.5919 -0.8381  0.9961
 3903TIP3    H233345   0.233   6.542   7.316 -1.4377 -0.4307 -0.2868
 3904TIP3   OH233346   6.069   2.863   2.399  0.2936  0.5503 -0.3094
 3904TIP3    H133347   6.028   2.832   2.318  1.4972 -2.9635  0.2778
 3904TIP3    H233348   6.012   2.831   2.469  1.0069  0.6235  0.3250
 3905TIP3   OH233349   4.126   4.245   7.313 -0.1378 -0.3089 -0.1443
 3905TIP3    H133350   4.186   4.310   7.277  0.7789 -0.0705  1.6837
 3905TIP3    H233351   4.180   4.167   7.325 -0.5262 -0.5161  0.2679
 3906TIP3   OH233352   3.719   4.892   1.430  0.0129 -0.0200  0.3303
 3906TIP3    H133353   3.729   4.987   1.430 -0.4464  0.0316  0.3191
 3906TIP3    H233354   3.805   4.858   1.406 -0.0714  0.4232 -0.6360
 3907TIP3   OH233355   2.544   0.371   8.222  0.2572  0.3044 -0.1341
 3907TIP3    H133356   2.511   0.286   8.250  3.0803 -1.2390 -1.0991
 3907TIP3    H233357   2.578   0.411   8.301 -0.6659  0.3506  0.2479
 3908TIP3   OH233358   1.046   2.579   7.723 -0.2691  0.0780 -0.0691
 3908TIP3    H133359   1.081   2.490   7.724 -3.4666 -1.3619 -1.6630
 3908TIP3    H233360   0.952   2.568   7.708 -0.8481  3.7376 -0.1025
 3909TIP3   OH233361   5.566   0.741   8.488 -0.2325 -0.1965  0.5373
 3909TIP3    H133362   5.501   0.682   8.450 -0.3123  0.7700 -0.8968
 3909TIP3    H233363   5.534   0.759   8.577 -1.3566 -0.5591  0.2209
 3910TIP3   OH233364   0.543   6.026   2.335 -0.4041 -0.2523 -0.2522
 3910TIP3    H133365   0.486   6.071   2.273 -0.3220 -0.8707 -0.7965
 3910TIP3    H233366   0.576   5.950   2.286  0.4844 -0.1793  0.2185
 3911TIP3   OH233367   0.024   1.468   2.836 -0.5282 -0.0840  0.3965
 3911TIP3    H133368   0.090   1.527   2.872  1.7318 -1.5278 -1.1342
 3911TIP3    H233369   0.016   1.399   2.901  0.8408 -0.8027 -0.1501
 3912TIP3   OH233370   6.593   4.983   8.067  0.1714  0.7457  0.0340
 3912TIP3    H133371   6.506   5.022   8.064 -0.3837 -0.4707 -0.5098
 3912TIP3    H233372   6.646   5.045   8.116 -1.6714  0.2495  2.8977
 3913TIP3   OH233373   0.813   4.873   2.304 -0.1181  0.4963 -0.4867
 3913TIP3    H133374   0.790   4.923   2.226 -1.1009  0.0256 -0.5162
 3913TIP3    H233375   0.839   4.938   2.369 -0.1024  0.9457 -0.9439
 3914TIP3   OH233376   0.512   1.012   7.141 -0.2491  0.6820  0.6360
 3914TIP3    H133377   0.529   1.095   7.097  0.4205 -0.3409 -1.1854
 3914TIP3    H233378   0.476   0.956   7.072  0.1542 -0.8018  1.5769
 3915TIP3   OH233379   6.496   5.277   2.032 -0.3684 -0.3968  0.4274
 3915TIP3    H133380   6.529   5.203   1.982 -1.1787 -0.0730 -0.6085
 3915TIP3    H233381   6.574   5.312   2.076  0.4373 -0.4711 -0.8832
 3916TIP3   OH233382   3.653   4.530   7.705 -0.2603  0.4879  0.0182
 3916TIP3    H133383   3.637   4.589   7.631 -0.6222 -0.0784 -0.3616
 3916TIP3    H233384   3.736   4.487   7.683 -0.6042 -0.0228 -0.2864
 3917TIP3   OH233385   0.734   5.406   0.951  0.0033  0.1711  0.1083
 3917TIP3    H133386   0.665   5.345   0.925  0.7918 -0.7028  0.0178
 3917TIP3    H233387   0.814   5.355   0.947  0.4096  0.5153  2.5100
 3918TIP3   OH233388   6.716   3.815   2.860  0.1112 -0.6993 -0.5378
 3918TIP3    H133389   6.767   3.849   2.934  0.5408  0.0539 -1.1708
 3918TIP3    H233390   6.634   3.785   2.899 -0.9142  2.3406 -0.1020
 3919TIP3   OH233391   6.542   5.569   0.302  0.3726 -0.3383 -0.1097
 3919TIP3    H133392   6.556   5.489   0.353  2.9005  0.0351 -0.1097
 3919TIP3    H233393   6.534   5.538   0.212  2.7090 -0.6050 -0.3028
 3920TIP3   OH233394   0.619   4.186   1.411 -0.0338  0.2286  0.1405
 3920TIP3    H133395   0.614   4.235   1.329 -1.8727  0.8014  0.5584
 3920TIP3    H233396   0.664   4.246   1.471  0.3121  0.2460 -0.1280
 3921TIP3   OH233397   2.487   2.892   1.224 -0.2935 -0.8409 -0.3550
 3921TIP3    H133398   2.437   2.949   1.165 -0.0217  1.0964  1.1889
 3921TIP3    H233399   2.577   2.897   1.191 -0.1161  0.3480  0.2770
 3922TIP3   OH233400   3.347   3.640   7.954 -0.1307 -0.3012 -0.0766
 3922TIP3    H133401   3.415   3.614   7.892 -0.6335 -1.8987 -0.0213
 3922TIP3    H233402   3.317   3.725   7.923 -1.4497 -1.6856 -3.0477
 3923TIP3   OH233403   1.693   6.305   1.727  0.0301  0.6035  0.2679
 3923TIP3    H133404   1.658   6.217   1.714  1.2788  0.3845 -2.4177
 3923TIP3    H233405   1.623   6.353   1.772 -1.5280 -1.1974 -0.1180
 3924TIP3   OH233406   0.213   0.859   0.205  0.1723 -0.2065 -0.3110
 3924TIP3    H133407   0.207   0.851   0.110  0.7859 -2.6880 -0.1925
 3924TIP3    H233408   0.127   0.890   0.232 -0.5413 -1.0193 -1.5490
 3925TIP3   OH233409   4.201   6.434   7.584  0.2426 -0.2729 -0.2693
 3925TIP3    H133410   4.252   6.399   7.511 -1.5645  0.0062 -1.7634
 3925TIP3    H233411   4.126   6.476   7.542  0.2629  1.8739  1.6670
 3926TIP3   OH233412   6.738   4.640   1.494  0.2320  0.2375 -0.2744
 3926TIP3    H133413   6.826   4.677   1.488  0.9243 -1.2711 -0.0411
 3926TIP3    H233414   6.704   4.644   1.405  0.2635  1.4190 -0.2494
 3927TIP3   OH233415   1.660   2.900   0.952 -0.1361  0.3142 -0.0717
 3927TIP3    H133416   1.729   2.884   0.888  1.1727 -0.6205  1.4825
 3927TIP3    H233417   1.648   2.995   0.952 -0.1030  0.3369 -1.5948
 3928TIP3   OH233418   5.200   6.326   0.436  0.6334 -0.0971  0.3678
 3928TIP3    H133419   5.158   6.377   0.506  0.7020 -0.8270  0.9473
 3928TIP3    H233420   5.160   6.240   0.443  1.0656 -0.3363 -0.1236
 3929TIP3   OH233421   4.388   0.610   7.234 -0.3854  0.4446  0.5434
 3929TIP3    H133422   4.393   0.517   7.212 -1.9854  0.5735 -0.4956
 3929TIP3    H233423   4.296   0.633   7.221  0.2007  2.4604 -0.4163
 3930TIP3   OH233424   2.018   0.085   7.885 -0.3723  0.2499  0.0247
 3930TIP3    H133425   2.097   0.136   7.900 -0.6210  1.6108 -2.6712
 3930TIP3    H233426   1.946   0.143   7.911 -0.6587 -1.6374  4.2944
 3931TIP3   OH233427   5.709   4.863   1.342  0.2547 -0.8503  0.0251
 3931TIP3    H133428   5.740   4.938   1.394  0.6062 -0.7752 -0.2929
 3931TIP3    H233429   5.764   4.863   1.264 -0.3907 -0.8508 -0.4405
 3932TIP3   OH233430   4.610   5.033   0.200 -0.1498 -0.0679  0.2695
 3932TIP3    H133431   4.550   5.082   0.257  1.5259  0.1534  1.9639
 3932TIP3    H233432   4.592   5.067   0.112 -2.4862 -0.0554  0.6828
 3933TIP3   OH233433   5.753   2.529   0.472 -0.1319  0.4005  0.2676
 3933TIP3    H133434   5.733   2.521   0.565  0.5956 -0.0837  0.3891
 3933TIP3    H233435   5.692   2.469   0.429  0.0987 -0.0248  0.5176
 3934TIP3   OH233436   3.388   6.788   8.494 -0.0908 -0.2910 -0.4723
 3934TIP3    H133437   3.410   6.865   8.442 -3.3463  1.3127  0.2915
 3934TIP3    H233438   3.403   6.815   8.584 -2.1652 -0.1355 -0.1306
 3935TIP3   OH233439   4.689   0.295   0.433  0.3490  0.0420  0.2202
 3935TIP3    H133440   4.683   0.286   0.338 -2.0567  0.5617  0.2454
 3935TIP3    H233441   4.777   0.329   0.449  0.7654  0.0243 -1.8202
 3936TIP3   OH233442   2.352   2.532   2.369  0.6907  0.2740  0.8962
 3936TIP3    H133443   2.379   2.622   2.383 -0.9531  0.7583  1.1945
 3936TIP3    H233444   2.327   2.500   2.456 -0.2044  0.0610  0.5766
 3937TIP3   OH233445   3.999   3.096   7.042  0.1941  0.2934 -0.3737
 3937TIP3    H133446   3.926   3.071   6.984 -1.2544 -0.7136  1.7400
 3937TIP3    H233447   3.957   3.144   7.113  1.2524 -1.8725  1.8612
 3938TIP3   OH233448   6.423   3.470   1.238 -0.0621 -0.0374 -0.3305
 3938TIP3    H133449   6.354   3.447   1.299  0.6460 -0.5812  0.2842
 3938TIP3    H233450   6.458   3.553   1.270 -0.9205  0.6394 -1.0848
 3939TIP3   OH233451   3.854   5.034   0.022  0.1405 -0.6804  0.4996
 3939TIP3    H133452   3.880   5.098   0.088 -0.9424 -0.5596  0.8357
 3939TIP3    H233453   3.851   5.083  -0.060 -1.4491 -0.0687  0.8821
 3940TIP3   OH233454   3.382   2.694   8.453  0.3816  0.1561  0.5747
 3940TIP3    H133455   3.385   2.636   8.529 -0.3839  0.8643  1.1595
 3940TIP3    H233456   3.291   2.723   8.448  0.4761  0.3202 -0.4682
 3941TIP3   OH233457   1.697   4.841   1.329  0.0590  0.2981 -0.5254
 3941TIP3    H133458   1.623   4.816   1.385 -0.2750  0.7019 -0.7827
 3941TIP3    H233459   1.699   4.774   1.261 -0.1777  0.3716 -0.6091
 3942TIP3   OH233460   6.326   0.621   1.160 -0.2865  0.9296  0.2372
 3942TIP3    H133461   6.245   0.669   1.141 -1.5002 -0.8992  0.5195
 3942TIP3    H233462   6.312   0.535   1.121  0.5457 -0.2078  2.2851
 3943TIP3   OH233463   2.334   1.470   7.460 -0.5550  0.2658 -0.4163
 3943TIP3    H133464   2.270   1.449   7.391  0.6157 -0.2074 -1.3936
 3943TIP3    H233465   2.321   1.563   7.478 -3.0699 -0.2728  1.0750
 3944TIP3   OH233466   6.074   3.156   7.032 -0.5332  0.5999  0.4630
 3944TIP3    H133467   5.981   3.133   7.022 -0.2294 -0.4789  0.0422
 3944TIP3    H233468   6.076   3.251   7.018 -1.5352  0.5952  0.1725
 3945TIP3   OH233469   5.348   0.345   6.984  0.5231 -0.1701 -0.8651
 3945TIP3    H133470   5.432   0.387   6.966 -0.1152  0.6209 -2.1301
 3945TIP3    H233471   5.355   0.259   6.942  1.1226 -0.5901  0.0659
 3946TIP3   OH233472   4.871   5.895   8.254 -0.0899  0.0219  0.7094
 3946TIP3    H133473   4.906   5.806   8.262 -2.0554 -0.7526  1.3184
 3946TIP3    H233474   4.776   5.882   8.243 -0.2937  2.0150 -0.2979
 3947TIP3   OH233475   2.542   1.513   0.760 -0.3399  0.4272 -0.7428
 3947TIP3    H133476   2.610   1.454   0.790 -0.1969  1.2203  0.5507
 3947TIP3    H233477   2.568   1.536   0.671  0.7907  0.3087 -0.4551
 3948TIP3   OH233478   2.744   4.733   7.697  0.0100  0.5420  0.0327
 3948TIP3    H133479   2.753   4.682   7.616  0.0758  0.2653  0.2133
 3948TIP3    H233480   2.776   4.675   7.766  1.0132  1.1855  0.1271
 3949TIP3   OH233481   2.554   6.665   1.827  0.0695 -0.1414 -0.3854
 3949TIP3    H133482   2.463   6.634   1.833 -0.0758  0.2265 -0.6633
 3949TIP3    H233483   2.603   6.588   1.799 -0.1980 -0.2775 -0.4871
 3950TIP3   OH233484   5.680   2.008   7.785  0.0968 -0.1992  0.1209
 3950TIP3    H133485   5.775   2.013   7.771 -0.1759  1.5844 -1.5319
 3950TIP3    H233486   5.658   1.918   7.763  1.1536 -0.0813 -1.6354
 3951TIP3   OH233487   1.646   6.087   7.998 -0.3081  0.7686 -0.8355
 3951TIP3    H133488   1.602   6.020   8.051 -1.6614  1.5642 -0.9001
 3951TIP3    H233489   1.708   6.039   7.944  0.0041 -0.2340  0.3733
 3952TIP3   OH233490   6.649   2.612   8.219 -0.0782  0.1007 -0.2300
 3952TIP3    H133491   6.610   2.692   8.253 -0.2373 -0.3747  0.7482
 3952TIP3    H233492   6.738   2.638   8.194 -0.1206  0.5788  0.0937
 3953TIP3   OH233493   0.026   6.271   1.628 -0.0181 -0.1048  0.0816
 3953TIP3    H133494   0.022   6.242   1.536 -1.1969 -1.2570  0.4606
 3953TIP3    H233495   0.073   6.354   1.625  0.1406 -0.2194 -1.5458
 3954TIP3   OH233496   6.002   5.436   6.931 -0.4907 -0.4955  0.3532
 3954TIP3    H133497   6.018   5.531   6.935 -1.7745 -0.2914  1.3009
 3954TIP3    H233498   6.025   5.412   6.842 -0.3151  0.7535  0.0366
 3955TIP3   OH233499   0.992   3.719   8.328 -0.4476  0.0866  0.2236
 3955TIP3    H133500   0.971   3.678   8.412 -1.9136  0.9115  0.2865
 3955TIP3    H233501   0.930   3.681   8.266  0.2428 -0.0834 -0.3849
 3956TIP3   OH233502   2.502   3.505   0.184 -0.7399  0.1707 -0.6065
 3956TIP3    H133503   2.549   3.481   0.105  2.5278  1.6397  0.6936
 3956TIP3    H233504   2.428   3.445   0.188  0.2487 -1.4289 -3.5565
 3957TIP3   OH233505   5.094   6.171   2.341 -0.0942 -0.1445 -0.1992
 3957TIP3    H133506   5.097   6.197   2.249 -1.2040 -3.1927 -1.2245
 3957TIP3    H233507   5.175   6.120   2.354  0.4777  0.9803  0.7930
 3958TIP3   OH233508   1.227   0.698   7.806  0.1317 -0.0654  0.1224
 3958TIP3    H133509   1.283   0.775   7.791  1.4965 -1.0448 -0.0610
 3958TIP3    H233510   1.284   0.636   7.851  0.5556 -2.6644 -3.5530
 3959TIP3   OH233511   2.014   4.462   2.249 -1.2707 -0.2214 -0.0213
 3959TIP3    H133512   2.090   4.518   2.266 -3.1046  2.4812 -0.0395
 3959TIP3    H233513   1.965   4.463   2.331 -3.0989  1.2151 -1.0462
 3960TIP3   OH233514   6.887   0.507   7.680 -0.0277 -0.0048 -0.1046
 3960TIP3    H133515   6.926   0.556   7.607 -1.4493  0.1336 -0.8137
 3960TIP3    H233516   6.794   0.530   7.677 -0.7373 -2.5829 -0.3515
 3961TIP3   OH233517   1.345   0.607   0.724  0.1207 -0.5096 -0.0577
 3961TIP3    H133518   1.325   0.657   0.804  0.8390 -0.3368  0.0186
 3961TIP3    H233519   1.392   0.529   0.756  1.2152  0.0004 -0.3678
 3962TIP3   OH233520   6.597   0.784   6.838  0.2432  0.4604 -0.1557
 3962TIP3    H133521   6.591   0.734   6.757  0.2457  0.2458 -0.0247
 3962TIP3    H233522   6.513   0.829   6.845  0.0123  0.0060  0.0290
 3963TIP3   OH233523   3.829   2.947   2.641  0.1874  0.5001 -0.2407
 3963TIP3    H133524   3.869   2.961   2.727 -0.3033  0.6777 -0.0358
 3963TIP3    H233525   3.866   3.016   2.586  0.7971  0.1473 -0.2754
 3964TIP3   OH233526   2.252   3.070   1.803 -0.1304  0.2080 -0.1784
 3964TIP3    H133527   2.284   3.088   1.715  1.1599 -2.4796 -0.3630
 3964TIP3    H233528   2.188   3.000   1.792  0.2272 -0.3469  0.9908
 3965TIP3   OH233529   1.534   6.480   0.194  0.4890 -0.2878  0.1706
 3965TIP3    H133530   1.515   6.389   0.171  1.2771 -0.4039 -0.0491
 3965TIP3    H233531   1.610   6.475   0.251  1.2019  0.3059 -0.7083
 3966TIP3   OH233532   4.394   4.076   7.929 -0.6249 -0.0555 -0.1879
 3966TIP3    H133533   4.481   4.039   7.939 -0.9689 -1.0794 -0.9039
 3966TIP3    H233534   4.409   4.171   7.928  0.3045 -0.1530  1.1727
 3967TIP3   OH233535   5.354   3.095   2.011 -0.0950  0.4856 -0.3713
 3967TIP3    H133536   5.333   3.003   1.996 -1.7280  0.8378 -0.3435
 3967TIP3    H233537   5.420   3.115   1.945  0.5961 -0.7960 -0.1185
 3968TIP3   OH233538   0.886   4.072   7.660 -0.4942 -0.0944 -0.2138
 3968TIP3    H133539   0.917   4.047   7.573  0.1233 -0.9992  0.2488
 3968TIP3    H233540   0.842   4.156   7.647 -1.5338 -0.8079 -1.6274
 3969TIP3   OH233541   4.240   0.255   8.231 -0.2371  0.1372  0.2120
 3969TIP3    H133542   4.227   0.268   8.137  0.0751 -0.4947  0.0726
 3969TIP3    H233543   4.331   0.282   8.246 -1.1097  3.0480  0.8934
 3970TIP3   OH233544   2.851   6.190   0.826 -0.3703  0.0700 -0.3929
 3970TIP3    H133545   2.935   6.175   0.781  0.4419 -0.3689  1.1855
 3970TIP3    H233546   2.874   6.246   0.900 -1.7388  1.0881 -0.7118
 3971TIP3   OH233547   2.305   6.339   7.813 -0.4269 -0.2395  0.2067
 3971TIP3    H133548   2.247   6.303   7.881 -0.0522  0.0848  0.7093
 3971TIP3    H233549   2.393   6.314   7.841 -0.3557 -1.4355 -0.9794
 3972TIP3   OH233550   2.624   0.506   1.095  0.0046  0.3523 -0.2113
 3972TIP3    H133551   2.713   0.484   1.124  0.1401 -0.8965 -1.4279
 3972TIP3    H233552   2.625   0.489   1.000 -1.8044 -0.6768 -0.0890
 3973TIP3   OH233553   5.694   1.716   0.440  0.8868 -0.0739  0.5254
 3973TIP3    H133554   5.642   1.723   0.520  0.4121  0.5621  0.1719
 3973TIP3    H233555   5.785   1.728   0.469  0.5647  2.2147  0.7350
 3974TIP3   OH233556   0.140   0.443   8.431 -0.3965  0.0493  0.1102
 3974TIP3    H133557   0.068   0.418   8.490 -0.1034 -0.9497  0.0620
 3974TIP3    H233558   0.171   0.526   8.466 -0.2179 -0.5299  1.3950
 3975TIP3   OH233559   1.119   3.918   8.643 -0.1807  0.7065 -0.3092
 3975TIP3    H133560   1.157   3.997   8.682 -0.8920  1.1157 -0.4228
 3975TIP3    H233561   1.161   3.911   8.557  0.8261  0.2311  0.1992
 3976TIP3   OH233562   4.100   5.260   0.417 -0.0578 -0.5982 -0.0669
 3976TIP3    H133563   4.044   5.218   0.482  0.2242  0.3764  0.8461
 3976TIP3    H233564   4.134   5.338   0.462  0.5386 -0.1659 -1.2242
 3977TIP3   OH233565   1.158   1.189   2.041  0.6089 -0.0571  0.0180
 3977TIP3    H133566   1.064   1.186   2.058  0.7083 -1.6075  0.4033
 3977TIP3    H233567   1.165   1.193   1.945  0.1600  0.2181 -0.0063
 3978TIP3   OH233568   0.249   6.456   2.764  0.6642  0.0552 -0.3063
 3978TIP3    H133569   0.214   6.377   2.806  0.8515  0.8615  1.4367
 3978TIP3    H233570   0.320   6.423   2.708  0.9172 -0.9993  0.5843
 3979TIP3   OH233571   0.133   2.428   0.470  0.4108  0.0499 -0.1694
 3979TIP3    H133572   0.050   2.475   0.479  0.3930  0.1581 -0.8533
 3979TIP3    H233573   0.109   2.345   0.428  0.5551 -0.2141  0.2660
 3980TIP3   OH233574   3.539   0.118   1.979 -0.0118 -0.9845  0.0298
 3980TIP3    H133575   3.574   0.151   2.063 -0.4524 -0.7146  0.1091
 3980TIP3    H233576   3.614   0.123   1.919  0.2414 -0.9463  0.3438
 3981TIP3   OH233577   0.166   5.986   7.889  0.8056 -0.1266  0.0427
 3981TIP3    H133578   0.256   5.969   7.917  0.4323 -0.5095  1.0635
 3981TIP3    H233579   0.112   5.945   7.957 -0.1372  0.5325 -0.2950
 3982TIP3   OH233580   4.382   0.876   2.170 -0.4719 -0.1278  0.1651
 3982TIP3    H133581   4.434   0.866   2.250  0.8172 -0.6565 -0.6943
 3982TIP3    H233582   4.366   0.970   2.164 -2.8060 -0.2992  2.3433
 3983TIP3   OH233583   1.355   0.125   2.491  0.9630  0.2949  0.1828
 3983TIP3    H133584   1.269   0.084   2.502 -0.0048  2.4045  1.1247
 3983TIP3    H233585   1.384   0.143   2.581  0.3337  3.4651 -0.1299
 3984TIP3   OH233586   0.913   3.075   7.830 -0.2298  0.1367  0.9212
 3984TIP3    H133587   0.928   2.998   7.774  2.6754  0.9062  0.4844
 3984TIP3    H233588   0.942   3.149   7.777  0.1273  1.1795  2.5176
 3985TIP3   OH233589   1.304   4.509   1.295  0.2772 -0.0196 -0.0124
 3985TIP3    H133590   1.365   4.437   1.281  0.2600 -0.0187 -0.0924
 3985TIP3    H233591   1.241   4.475   1.359  0.7605  0.2196  0.5951
 3986TIP3   OH233592   4.930   3.390   8.398 -0.4440  0.5330  0.3558
 3986TIP3    H133593   5.014   3.368   8.437 -0.8531  0.3256  1.1256
 3986TIP3    H233594   4.865   3.368   8.464 -1.3426 -1.8088 -1.1673
 3987TIP3   OH233595   6.617   6.525   1.883 -0.6236  0.5968  0.1231
 3987TIP3    H133596   6.610   6.512   1.789  0.0239 -0.4584  0.2071
 3987TIP3    H233597   6.670   6.604   1.892  0.5175 -0.0878 -0.4046
 3988TIP3   OH233598   6.224   3.099   8.327 -0.1634  0.0288 -0.3526
 3988TIP3    H133599   6.260   3.072   8.243 -1.3878  0.2434 -0.9825
 3988TIP3    H233600   6.155   3.035   8.346  1.8669 -1.6649  1.8883
 3989TIP3   OH233601   2.285   3.650   7.716 -0.0822  0.0580 -0.0836
 3989TIP3    H133602   2.223   3.722   7.712 -0.1516 -0.0465 -2.9678
 3989TIP3    H233603   2.346   3.674   7.785 -1.9661  1.2682  1.2464
 3990TIP3   OH233604   5.037   2.959   2.176  0.5198 -0.4181 -0.8248
 3990TIP3    H133605   5.127   2.957   2.144  0.8338 -0.9744  0.0545
 3990TIP3    H233606   5.045   2.974   2.270 -0.3190 -0.2448 -0.7705
 3991TIP3   OH233607   4.388   1.688   0.686  0.0901  0.6959 -0.2628
 3991TIP3    H133608   4.331   1.619   0.720  0.3247 -0.3913 -1.9622
 3991TIP3    H233609   4.402   1.746   0.761 -1.9930  0.1785  0.6042
 3992TIP3   OH233610   0.424   1.904   1.200  0.0736  0.3410  0.3274
 3992TIP3    H133611   0.497   1.845   1.179 -0.5114  0.1190 -1.1882
 3992TIP3    H233612   0.464   1.990   1.203  0.2595  0.3490 -1.5188
 3993TIP3   OH233613   0.104   5.063   7.557 -0.2038  0.1633  0.3043
 3993TIP3    H133614   0.147   5.084   7.474 -1.6727 -0.8821 -0.7900
 3993TIP3    H233615   0.167   5.009   7.604  0.8046  1.0896  0.0568
 3994TIP3   OH233616   1.066   1.015   7.766  0.2434  0.1140 -0.0914
 3994TIP3    H133617   1.092   1.091   7.715 -1.1037  0.7194  0.0781
 3994TIP3    H233618   0.971   1.011   7.757  0.3258 -2.0129 -0.7409
 3995TIP3   OH233619   5.002   3.652   1.285 -0.1482 -0.1786  0.1883
 3995TIP3    H133620   4.955   3.734   1.275  0.5846  0.1080 -1.0718
 3995TIP3    H233621   4.959   3.592   1.224  1.6822  0.3710 -1.7518
 3996TIP3   OH233622   1.126   6.809   0.997  0.7015 -0.2529  0.6908
 3996TIP3    H133623   1.209   6.772   0.968  1.7898  2.1024  0.5372
 3996TIP3    H233624   1.072   6.812   0.918  2.3106  2.6582 -0.4811
 3997TIP3   OH233625   3.009   3.777   6.402 -0.2295  0.4838  0.0260
 3997TIP3    H133626   2.937   3.750   6.460 -0.4330 -1.7567 -1.1636
 3997TIP3    H233627   3.035   3.863   6.435 -0.6563 -0.4637  3.1076
 3998TIP3   OH233628   4.887   1.653   0.068 -0.0663  0.0449  0.0594
 3998TIP3    H133629   4.932   1.680   0.148  0.2763 -0.9969  0.2310
 3998TIP3    H233630   4.803   1.620   0.099 -0.3888  0.6655 -0.1290
 3999TIP3   OH233631   1.897   6.072   2.577  0.3049 -0.0758 -0.3358
 3999TIP3    H133632   1.976   6.099   2.624  0.3571 -2.0124  0.8348
 3999TIP3    H233633   1.929   6.021   2.503  0.1764 -0.6441 -0.0071
 4000TIP3   OH233634   3.086   6.660   7.772  0.0522  0.1714  0.0046
 4000TIP3    H133635   3.028   6.720   7.725  0.1565  0.6942  0.5265
 4000TIP3    H233636   3.047   6.651   7.859  0.4105  0.0380  0.1570
 4001TIP3   OH233637   1.774   1.756   0.819  0.1027  0.1269 -0.4710
 4001TIP3    H133638   1.723   1.784   0.743 -1.2463  0.3969  0.4986
 4001TIP3    H233639   1.856   1.721   0.782 -0.4990  0.2995 -2.0236
 4002TIP3   OH233640   4.519   5.142   1.971  0.0945 -0.3098 -0.2537
 4002TIP3    H133641   4.586   5.198   1.934  0.4225 -0.3685  0.2367
 4002TIP3    H233642   4.566   5.064   2.001  0.2342  0.6589  2.3093
 4003TIP3   OH233643   4.663   0.504   7.866 -0.0781 -0.5557  0.2190
 4003TIP3    H133644   4.572   0.510   7.837 -0.5446 -2.2405  1.1950
 4003TIP3    H233645   4.714   0.537   7.792 -1.4512 -0.0434 -0.5319
 4004TIP3   OH233646   2.527   4.868   0.326  0.1401 -0.2066 -0.9154
 4004TIP3    H133647   2.473   4.945   0.309 -1.0815 -1.4449 -3.1352
 4004TIP3    H233648   2.465   4.802   0.357  0.7985 -0.8937 -1.0277
 4005TIP3   OH233649   5.566   2.306   6.833 -0.0416 -0.1252  0.0659
 4005TIP3    H133650   5.579   2.391   6.874  0.9181  0.1287 -0.7328
 4005TIP3    H233651   5.485   2.315   6.783 -0.3171  0.0817  0.5411
 4006TIP3   OH233652   2.901   2.999   1.983  0.5978  0.1454 -0.6459
 4006TIP3    H133653   2.917   2.932   2.051 -0.2008 -1.1591 -1.7046
 4006TIP3    H233654   2.874   3.076   2.032 -0.1484 -0.8239  0.5397
 4007TIP3   OH233655   5.165   3.167   0.561 -0.1586  0.2300  0.7821
 4007TIP3    H133656   5.186   3.142   0.471  0.7773  0.0014  1.0617
 4007TIP3    H233657   5.249   3.170   0.606 -0.6310  0.2343  1.6844
 4008TIP3   OH233658   2.368   5.606   1.657 -0.2421  0.6427 -0.4366
 4008TIP3    H133659   2.462   5.617   1.644  0.0493 -1.0975 -0.1677
 4008TIP3    H233660   2.352   5.640   1.745  0.9603 -2.5741  1.2102
 4009TIP3   OH233661   6.708   1.570   2.081  0.2844  0.2056  0.0281
 4009TIP3    H133662   6.693   1.639   2.016  0.4712  1.9276  1.6979
 4009TIP3    H233663   6.685   1.612   2.164  2.5092 -1.0636  1.3499
 4010TIP3   OH233664   4.447   3.336   2.299 -0.2555  0.0714  0.0709
 4010TIP3    H133665   4.472   3.414   2.250 -0.0484  0.4766  0.8075
 4010TIP3    H233666   4.430   3.367   2.387  0.2806 -0.7773  0.4933
 4011TIP3   OH233667   4.352   4.482   1.735  0.2736  0.1285 -0.0306
 4011TIP3    H133668   4.368   4.541   1.808  0.5543  0.3274 -0.2504
 4011TIP3    H233669   4.439   4.462   1.700  0.1344  0.1843 -0.4237
 4012TIP3   OH233670   1.957   3.219   2.473 -0.1731 -0.1600 -0.0116
 4012TIP3    H133671   2.007   3.276   2.533 -1.6118 -0.3782  1.4761
 4012TIP3    H233672   1.866   3.227   2.504 -1.2620  0.8733 -3.1181
 4013TIP3   OH233673   5.139   2.812   1.393  0.6008 -0.2124 -0.1971
 4013TIP3    H133674   5.197   2.874   1.351  1.4258 -0.7995  0.0498
 4013TIP3    H233675   5.159   2.728   1.351 -1.2800 -0.1670 -1.3307
 4014TIP3   OH233676   5.030   3.562   1.998 -0.1664 -0.5428  0.1226
 4014TIP3    H133677   4.968   3.545   2.069  0.8756 -0.8491  0.9842
 4014TIP3    H233678   5.059   3.475   1.969 -0.2505 -0.4062 -0.3916
 4015TIP3   OH233679   0.677   2.590   7.133  0.0428 -0.1809  0.2479
 4015TIP3    H133680   0.730   2.670   7.132 -0.4753  0.2023  1.5050
 4015TIP3    H233681   0.587   2.621   7.123 -0.0449 -0.7568 -0.9479
 4016TIP3   OH233682   2.757   6.551   0.468 -0.0589 -0.1611 -0.1379
 4016TIP3    H133683   2.820   6.538   0.396 -0.4842 -0.9659 -0.3756
 4016TIP3    H233684   2.784   6.488   0.535  0.4664  0.7379  0.5156
 4017TIP3   OH233685   0.212   2.915   0.068  0.0758  0.2862 -0.2736
 4017TIP3    H133686   0.126   2.955   0.051 -0.1833  0.1096  0.5916
 4017TIP3    H233687   0.263   2.984   0.110  0.5165  0.5303 -1.1831
 4018TIP3   OH233688   4.401   0.308   7.241 -0.3089  0.1699 -0.1980
 4018TIP3    H133689   4.485   0.262   7.237  0.6026  1.7731 -0.5645
 4018TIP3    H233690   4.348   0.267   7.173  0.6406 -0.0476 -0.8338
 4019TIP3   OH233691   1.389   6.804   1.206 -0.1108  0.1727  0.2385
 4019TIP3    H133692   1.353   6.722   1.172  1.0255 -0.0790 -0.4078
 4019TIP3    H233693   1.468   6.778   1.254  0.8655  0.9545 -0.8622
 4020TIP3   OH233694   1.892   0.370   7.844 -0.2633  0.6112 -0.1342
 4020TIP3    H133695   1.979   0.356   7.806 -0.1654 -0.1984  0.3600
 4020TIP3    H233696   1.908   0.384   7.937 -0.5679  1.7613 -0.2372
 4021TIP3   OH233697   4.359   4.688   8.132  0.1499  0.0810 -0.3534
 4021TIP3    H133698   4.321   4.707   8.047  0.5366  0.2208 -0.4973
 4021TIP3    H233699   4.287   4.703   8.194 -0.1512 -0.0884 -0.6587
 4022TIP3   OH233700   1.405   3.115   8.370 -0.0582 -0.3096 -0.1221
 4022TIP3    H133701   1.373   3.027   8.350 -0.3442  0.1366 -1.7785
 4022TIP3    H233702   1.498   3.103   8.388  0.2724 -0.7931 -1.8902
 4023TIP3   OH233703   6.345   6.737   0.366 -0.4458 -0.0178  0.1392
 4023TIP3    H133704   6.293   6.801   0.414  0.2186  2.5299 -2.2808
 4023TIP3    H233705   6.283   6.668   0.343 -2.2689  1.7903 -0.6817
 4024TIP3   OH233706   2.028   1.646   6.228 -0.1109  1.1437  0.0232
 4024TIP3    H133707   2.042   1.739   6.246  0.9957  0.6016  2.3553
 4024TIP3    H233708   1.937   1.630   6.255 -0.2614  1.4994 -0.2588
 4025TIP3   OH233709   4.718   0.565   2.850 -0.0741  0.1519  0.4482
 4025TIP3    H133710   4.687   0.490   2.799  0.7222  1.6724 -2.5010
 4025TIP3    H233711   4.643   0.624   2.854 -0.1094  0.0731  1.0028
 4026TIP3   OH233712   4.655   1.642   2.198 -0.1637  0.7074  1.1203
 4026TIP3    H133713   4.667   1.732   2.169 -0.5956  0.8771  1.4514
 4026TIP3    H233714   4.705   1.589   2.136  1.3760  1.2785  1.8304
 4027TIP3   OH233715   3.252   2.576   0.254  0.0258  0.8893  0.1120
 4027TIP3    H133716   3.249   2.561   0.348  2.5431  1.2938  0.3377
 4027TIP3    H233717   3.169   2.542   0.221 -0.8641  0.6265  2.4423
 4028TIP3   OH233718   2.642   3.400   7.986  0.0384  0.2963  0.3292
 4028TIP3    H133719   2.642   3.393   7.891  0.6298  1.5340  0.2216
 4028TIP3    H233720   2.551   3.422   8.009 -1.1874 -3.9395  0.4616
 4029TIP3   OH233721   4.590   6.313   2.467  0.4340  0.4410  0.2631
 4029TIP3    H133722   4.582   6.232   2.417  1.4756  0.8485 -0.6238
 4029TIP3    H233723   4.500   6.342   2.480  0.0972  0.4251 -1.6377
 4030TIP3   OH233724   1.996   3.928   7.283 -0.3548  0.1812  0.2863
 4030TIP3    H133725   1.936   4.000   7.304 -0.8579 -0.4138  0.9285
 4030TIP3    H233726   2.083   3.967   7.289 -0.6082  0.6714  0.9094
 4031TIP3   OH233727   5.845   3.155   0.098 -0.1712 -0.4392 -0.2203
 4031TIP3    H133728   5.802   3.240   0.096 -1.6688 -1.1350  1.1172
 4031TIP3    H233729   5.835   3.121   0.009 -0.5453  0.2954 -0.4630
 4032TIP3   OH233730   5.424   1.429   1.417  0.3822  0.0037  0.2784
 4032TIP3    H133731   5.468   1.485   1.481  0.2925 -0.0467  0.3831
 4032TIP3    H233732   5.333   1.427   1.445  0.4355 -0.4105  0.4266
 4033TIP3   OH233733   1.362   0.031   8.154 -0.3083  0.2414 -0.2868
 4033TIP3    H133734   1.288  -0.011   8.197  0.2865 -0.4453  0.0967
 4033TIP3    H233735   1.419  -0.041   8.128  0.8886  0.7930  0.6712
 4034TIP3   OH233736   4.815   6.338   7.736 -0.3782 -0.4773  0.5911
 4034TIP3    H133737   4.737   6.345   7.681 -0.3212 -0.1463  0.5481
 4034TIP3    H233738   4.790   6.381   7.818 -0.3751 -0.7301  0.7251
 4035TIP3   OH233739   0.139   5.442   0.309 -0.3664  0.2052 -0.2308
 4035TIP3    H133740   0.072   5.511   0.300  0.0916  0.8065  0.8694
 4035TIP3    H233741   0.222   5.489   0.309 -0.0432 -0.3446  0.5440
 4036TIP3   OH233742   6.319   6.230   2.078 -0.3097 -0.4353 -0.8549
 4036TIP3    H133743   6.407   6.220   2.115 -1.1433  1.7224  2.0519
 4036TIP3    H233744   6.316   6.321   2.048 -1.9875  0.0203  0.5492
 4037TIP3   OH233745   6.785   1.215   2.592  0.2325  0.0451 -0.0043
 4037TIP3    H133746   6.775   1.310   2.604  0.4843 -0.1303  1.9191
 4037TIP3    H233747   6.696   1.181   2.600  0.3279 -0.0103  0.9895
 4038TIP3   OH233748   5.335   2.402   8.661  0.3612 -0.3333 -0.2868
 4038TIP3    H133749   5.341   2.400   8.757 -0.7765  2.2325 -0.0907
 4038TIP3    H233750   5.241   2.403   8.643  0.5377  1.1496 -1.3055
 4039TIP3   OH233751   5.807   4.251   1.065 -0.3254  0.9448 -0.0829
 4039TIP3    H133752   5.843   4.163   1.059 -1.9943  0.1016  1.3999
 4039TIP3    H233753   5.882   4.306   1.088  0.5719 -0.2210 -0.1429
 4040TIP3   OH233754   1.277   5.720   6.854 -0.2586 -0.6407  0.1319
 4040TIP3    H133755   1.279   5.788   6.787  0.1180 -1.4372 -0.7019
 4040TIP3    H233756   1.369   5.693   6.863  0.0449  0.9015  2.5421
 4041TIP3   OH233757   6.060   3.884   7.152 -0.6018 -0.3930  0.0984
 4041TIP3    H133758   6.031   3.862   7.064 -1.6414 -0.5947  0.4840
 4041TIP3    H233759   5.992   3.941   7.187  0.9135  1.6311 -0.0346
 4042TIP3   OH233760   0.226   1.202   1.230  0.1788 -0.1216  0.3658
 4042TIP3    H133761   0.320   1.210   1.211  0.3271 -2.9440 -0.6609
 4042TIP3    H233762   0.222   1.161   1.316 -0.0791 -0.1771  0.3298
 4043TIP3   OH233763   4.526   2.681   2.371  0.0749  0.3859  0.5096
 4043TIP3    H133764   4.610   2.651   2.337 -0.7183  0.6476 -1.8908
 4043TIP3    H233765   4.461   2.633   2.318 -1.2704  0.9995  1.5522
 4044TIP3   OH233766   4.775   5.977   7.464  0.2381 -0.3997  0.5184
 4044TIP3    H133767   4.691   5.986   7.419  0.6401 -2.2785 -0.7244
 4044TIP3    H233768   4.830   6.046   7.427 -0.0796 -0.6096 -0.3659
 4045TIP3   OH233769   4.908   1.388   1.524 -0.0284  0.4236 -0.8512
 4045TIP3    H133770   4.875   1.379   1.613  0.3534  2.2228 -0.4887
 4045TIP3    H233771   4.829   1.396   1.470 -0.2468 -0.0125 -0.6027
 4046TIP3   OH233772   4.421   1.342   0.783 -0.2127 -0.2607  0.1437
 4046TIP3    H133773   4.478   1.394   0.840  0.9909  0.3004 -1.4975
 4046TIP3    H233774   4.334   1.379   0.797 -0.1619 -0.8801  2.4214
 4047TIP3   OH233775   3.386   1.569   1.432 -0.3707 -0.0906 -0.2017
 4047TIP3    H133776   3.351   1.488   1.395 -0.1187 -0.5341  0.5025
 4047TIP3    H233777   3.313   1.631   1.427  0.4054  0.7254 -3.8378
 4048TIP3   OH233778   0.388   2.428   8.551 -0.3804  0.5120 -1.5695
 4048TIP3    H133779   0.454   2.395   8.491  0.4234  0.9067 -0.9235
 4048TIP3    H233780   0.367   2.354   8.608  1.3509  1.0231 -0.1808
 4049TIP3   OH233781   2.036   0.192   7.092 -0.4307  0.2852 -0.0478
 4049TIP3    H133782   1.947   0.225   7.101 -0.2451  0.6747  0.4303
 4049TIP3    H233783   2.080   0.257   7.037 -0.4076  0.1601 -0.1769
 4050TIP3   OH233784   0.023   3.802   1.342  0.2615 -0.5068 -0.1703
 4050TIP3    H133785  -0.004   3.887   1.377  1.2098 -0.5509  0.7023
 4050TIP3    H233786   0.013   3.811   1.247  0.4336  0.6062 -0.0968
 4051TIP3   OH233787   3.155   0.143   0.813  0.3237 -0.5407  0.7874
 4051TIP3    H133788   3.125   0.133   0.904 -0.2059 -2.0198  0.4763
 4051TIP3    H233789   3.083   0.109   0.760  0.7993 -0.0704 -0.1843
 4052TIP3   OH233790   6.012   5.562   7.995  0.0274 -0.0431  0.1931
 4052TIP3    H133791   5.923   5.572   7.962  0.8747  2.5057 -1.5871
 4052TIP3    H233792   6.068   5.576   7.919  2.0012 -0.8428  1.4102
 4053TIP3   OH233793   3.725   0.259   1.425  0.1854 -0.3406  0.0173
 4053TIP3    H133794   3.655   0.257   1.490  0.1160 -1.2374 -0.0718
 4053TIP3    H233795   3.796   0.308   1.468 -0.3496  0.2500  0.2428
 4054TIP3   OH233796   3.391   6.100   1.017 -0.5333  0.4360 -0.0637
 4054TIP3    H133797   3.322   6.146   1.067  0.0114  2.2934 -0.9184
 4054TIP3    H233798   3.446   6.171   0.982  1.3753 -0.9728 -0.0476
 4055TIP3   OH233799   6.657   0.799   8.136  0.3252  0.5177  0.2263
 4055TIP3    H133800   6.712   0.731   8.174 -0.9928 -0.3974  0.5785
 4055TIP3    H233801   6.702   0.826   8.057  2.0365  0.9132  1.2901
 4056TIP3   OH233802   3.312   3.240   7.660 -0.1144  0.1707 -0.0238
 4056TIP3    H133803   3.263   3.196   7.591  0.6422 -1.2472  0.3008
 4056TIP3    H233804   3.391   3.273   7.617 -0.8169  1.5459 -0.3296
 4057TIP3   OH233805   4.483   0.188   2.504  0.1838 -0.3205  0.1962
 4057TIP3    H133806   4.464   0.101   2.541 -0.1548  0.2407  1.3862
 4057TIP3    H233807   4.418   0.200   2.436 -0.7777 -0.3814  1.0723
 4058TIP3   OH233808   1.650   2.808   8.041 -0.0103 -0.2094 -0.2045
 4058TIP3    H133809   1.559   2.832   8.022  0.1128  0.6646  0.2335
 4058TIP3    H233810   1.649   2.713   8.049 -1.2249 -0.1020  1.4545
 4059TIP3   OH233811   6.645   0.608   0.626 -0.3656 -0.0696  0.4156
 4059TIP3    H133812   6.554   0.631   0.609 -0.8802 -1.1268  1.5926
 4059TIP3    H233813   6.670   0.552   0.552 -0.6163  0.3702 -0.0019
 4060TIP3   OH233814   5.843   6.369   2.863 -0.3504 -0.0548  0.3052
 4060TIP3    H133815   5.871   6.452   2.824 -1.2907 -0.1269 -0.5460
 4060TIP3    H233816   5.853   6.305   2.792  0.5221 -0.7134  1.0007
 4061TIP3   OH233817   4.141   3.221   1.002  0.1283  0.4563 -0.1557
 4061TIP3    H133818   4.094   3.145   1.036 -0.8352  1.3198  0.4623
 4061TIP3    H233819   4.221   3.224   1.054 -0.7445  1.0145  1.1706
 4062TIP3   OH233820   1.822   5.258   7.904  0.3017 -0.0622 -0.5662
 4062TIP3    H133821   1.914   5.282   7.896  0.2843 -0.2764 -1.4976
 4062TIP3    H233822   1.802   5.210   7.824 -0.4284 -0.6764 -0.0362
 4063TIP3   OH233823   2.834   4.083   0.558  0.4923 -0.0406  0.0246
 4063TIP3    H133824   2.755   4.064   0.608  0.2274  1.1308  0.0821
 4063TIP3    H233825   2.808   4.153   0.498  1.7701  1.1802  0.8424
 4064TIP3   OH233826   6.547   2.101   2.136  0.2324 -0.5028 -0.6751
 4064TIP3    H133827   6.530   2.007   2.141  1.7700 -0.8939 -2.0367
 4064TIP3    H233828   6.560   2.127   2.227 -2.1362 -1.1668 -0.0724
 4065TIP3   OH233829   4.268   5.081   7.820  0.1753  0.0143 -0.3780
 4065TIP3    H133830   4.265   4.985   7.817  2.3329 -0.0970 -0.6927
 4065TIP3    H233831   4.352   5.103   7.781  0.3936  1.9788  1.0545
 4066TIP3   OH233832   3.320   2.917   8.219 -0.4324 -0.6334 -0.3016
 4066TIP3    H133833   3.316   2.881   8.131  0.0947 -2.2959  0.3192
 4066TIP3    H233834   3.244   2.880   8.264 -1.9136  1.8372 -0.5699
 4067TIP3   OH233835   3.166   3.979   1.193 -0.0587  0.1993  0.1568
 4067TIP3    H133836   3.084   3.930   1.182 -0.7272  1.0624  1.1175
 4067TIP3    H233837   3.174   4.029   1.112  0.4706 -1.2146 -0.7047
 4068TIP3   OH233838   6.683   3.499   2.449  0.1945 -0.5288  0.1151
 4068TIP3    H133839   6.706   3.548   2.370 -0.0927 -0.1612  0.2569
 4068TIP3    H233840   6.630   3.560   2.500 -2.7795 -1.9090 -1.0377
 4069TIP3   OH233841   5.328   6.655   2.561  0.1550  0.7742  0.0912
 4069TIP3    H133842   5.271   6.590   2.602 -0.8876  2.4885  1.4924
 4069TIP3    H233843   5.410   6.650   2.611  1.1293 -1.2911 -1.5614
 4070TIP3   OH233844   4.918   5.106   8.195 -0.2998  0.5728  0.2752
 4070TIP3    H133845   4.915   5.125   8.101 -0.9770  0.0342  0.1800
 4070TIP3    H233846   4.843   5.049   8.210  0.5996 -0.4842  0.8979
 4071TIP3   OH233847   2.940   0.898   7.084  0.8732 -0.1064 -0.5499
 4071TIP3    H133848   2.893   0.822   7.048 -0.0193  0.4591 -0.5979
 4071TIP3    H233849   3.032   0.878   7.068  1.1070 -3.2357  3.2296
 4072TIP3   OH233850   4.609   0.284   2.067 -0.2725 -0.0319  0.4857
 4072TIP3    H133851   4.685   0.321   2.022 -0.7100 -1.1865 -1.3288
 4072TIP3    H233852   4.642   0.254   2.151  0.7679  1.4935  0.6740
 4073TIP3   OH233853   5.843   1.296   0.148 -0.4641  0.1739 -0.2860
 4073TIP3    H133854   5.915   1.327   0.203 -0.0929 -0.0317 -0.6520
 4073TIP3    H233855   5.764   1.318   0.198 -0.1767  0.8975 -0.1244
 4074TIP3   OH233856   2.266   2.943   6.647 -0.0642 -0.1212 -0.4174
 4074TIP3    H133857   2.244   2.856   6.614 -3.8956  1.2718 -2.0679
 4074TIP3    H233858   2.317   2.984   6.577 -1.2492  0.1081 -1.1575
 4075TIP3   OH233859   4.458   1.141   0.548 -0.5112  0.0547  0.2563
 4075TIP3    H133860   4.366   1.139   0.572 -1.2089  0.9353 -2.0196
 4075TIP3    H233861   4.475   1.056   0.509 -1.4102  0.9943 -2.4490
 4076TIP3   OH233862   0.008   4.186   1.656 -0.1573  1.1076  0.2909
 4076TIP3    H133863  -0.014   4.129   1.730  0.6283  1.5757  0.9086
 4076TIP3    H233864  -0.023   4.272   1.683 -2.9552  0.7366 -1.3760
 4077TIP3   OH233865   4.649   2.358   7.990  0.3226 -0.1471  0.5357
 4077TIP3    H133866   4.696   2.283   7.955  1.9627  1.6381 -1.3998
 4077TIP3    H233867   4.697   2.382   8.070 -0.1457 -1.0462  1.1004
 4078TIP3   OH233868   2.703   2.287   1.265 -0.0470  0.4391  0.1475
 4078TIP3    H133869   2.615   2.253   1.279  0.1065 -0.3399 -0.6603
 4078TIP3    H233870   2.758   2.237   1.325  0.2179 -1.0088 -1.2200
 4079TIP3   OH233871   6.893   3.918   0.067 -0.2050  0.2333 -0.1949
 4079TIP3    H133872   6.853   3.993   0.023  0.3222  0.1844 -0.7883
 4079TIP3    H233873   6.819   3.864   0.094 -0.5829  0.8640  0.0545
 4080TIP3   OH233874   0.330   2.544   0.331  0.0621 -0.0054 -0.0706
 4080TIP3    H133875   0.291   2.579   0.251 -0.3739  0.0705  0.1712
 4080TIP3    H233876   0.255   2.509   0.380  0.2850  0.2591  0.4604
 4081TIP3   OH233877   5.995   0.048   8.363  0.5287  0.2212 -0.7215
 4081TIP3    H133878   5.971  -0.045   8.363  1.4286 -0.0196  0.0639
 4081TIP3    H233879   5.919   0.092   8.323  0.4552 -0.9223 -1.9210
 4082TIP3   OH233880   1.005   4.622   8.127  0.1587  0.6329 -0.2847
 4082TIP3    H133881   0.978   4.672   8.204 -1.8172  0.5655 -0.8756
 4082TIP3    H233882   1.024   4.688   8.061  0.3973  0.6587 -0.1916
 4083TIP3   OH233883   1.634   1.695   1.927  0.3860  0.4544 -0.5374
 4083TIP3    H133884   1.605   1.628   1.865 -0.2078 -0.9807  1.2032
 4083TIP3    H233885   1.727   1.676   1.941  0.0722 -0.4661  0.4409
 4084TIP3   OH233886   2.633   5.065   1.759 -0.2334 -0.3212 -0.1114
 4084TIP3    H133887   2.578   5.006   1.811  0.0836 -1.2550 -0.8051
 4084TIP3    H233888   2.688   5.006   1.706  1.7346  0.5555  0.8545
 4085TIP3   OH233889   2.324   1.348   2.477 -0.5037 -0.3235 -0.2989
 4085TIP3    H133890   2.252   1.410   2.482 -0.3415 -0.2062  0.8877
 4085TIP3    H233891   2.403   1.402   2.482 -0.3586 -0.6034  0.4954
 4086TIP3   OH233892   6.859   0.864   1.507  0.4180  0.6413 -0.1236
 4086TIP3    H133893   6.899   0.817   1.434 -0.2864  0.8569 -0.6646
 4086TIP3    H233894   6.845   0.797   1.574 -2.5477 -0.4816 -1.6830
 4087TIP3   OH233895   3.623   2.404   0.487  0.3929  0.4734  0.4165
 4087TIP3    H133896   3.642   2.462   0.413 -1.1051 -0.2645 -0.5807
 4087TIP3    H233897   3.705   2.357   0.502  0.8438  0.9458 -0.4896
 4088TIP3   OH233898   6.233   3.038   0.454  0.4415  0.1891  0.3205
 4088TIP3    H133899   6.239   3.002   0.543  0.0606 -0.4466  0.0953
 4088TIP3    H233900   6.324   3.043   0.424  0.4879 -0.9152  0.2358
 4089TIP3   OH233901   6.874   0.721   2.332  0.0913  0.5907 -0.5278
 4089TIP3    H133902   6.817   0.787   2.372  0.8462  0.7792  0.2753
 4089TIP3    H233903   6.878   0.650   2.397  1.4503  0.9646 -0.1683
 4090TIP3   OH233904   0.513   2.367   2.303 -0.1300 -0.6497 -0.0530
 4090TIP3    H133905   0.426   2.407   2.307 -0.4315 -1.3136  0.1047
 4090TIP3    H233906   0.498   2.280   2.267  0.4657 -0.7874  0.0205
 4091TIP3   OH233907   6.763   2.750   7.138  0.3266 -0.1057 -1.0924
 4091TIP3    H133908   6.750   2.787   7.225 -1.6281 -2.3470 -0.2992
 4091TIP3    H233909   6.823   2.810   7.094 -2.0739  3.5388  0.2083
 4092TIP3   OH233910   4.167   3.008   1.348  0.0007 -0.1657 -0.1029
 4092TIP3    H133911   4.256   3.043   1.353 -0.1614  0.5159 -1.4756
 4092TIP3    H233912   4.154   2.964   1.432  0.8906  1.4837  0.9648
 4093TIP3   OH233913   3.212   2.200   2.235  0.6683  0.3313  0.0100
 4093TIP3    H133914   3.301   2.232   2.220  0.2467  1.9848  0.7710
 4093TIP3    H233915   3.222   2.135   2.305  1.5668 -1.4616 -1.6719
 4094TIP3   OH233916   5.330   3.933   2.715 -0.0642  0.5256  0.0742
 4094TIP3    H133917   5.373   3.868   2.661  0.0956  0.4827  0.2532
 4094TIP3    H233918   5.378   4.014   2.698 -0.3063  0.6101 -0.1998
 4095TIP3   OH233919   0.557   1.157   0.216  0.9115 -0.0935  0.1952
 4095TIP3    H133920   0.624   1.088   0.212 -0.3565 -1.3836 -4.1226
 4095TIP3    H233921   0.601   1.235   0.182  1.3335  0.2804  1.5443
 4096TIP3   OH233922   3.900   1.851   1.223 -0.5887  0.0181  0.1453
 4096TIP3    H133923   3.881   1.764   1.189  0.2226 -1.2129  2.5827
 4096TIP3    H233924   3.980   1.878   1.177 -1.4896  0.0364 -1.4694
 4097TIP3   OH233925   0.219   4.467   2.280  0.1606 -0.8047  0.3691
 4097TIP3    H133926   0.313   4.469   2.297  0.2473  0.0547 -0.1531
 4097TIP3    H233927   0.179   4.461   2.367  0.7120 -2.7922  0.5382
 4098TIP3   OH233928   5.737   1.950   7.444  0.6847 -0.0831  0.1626
 4098TIP3    H133929   5.789   2.020   7.404 -1.1998  1.0294 -0.4521
 4098TIP3    H233930   5.664   1.938   7.384 -0.2475 -0.9907  1.4420
 4099TIP3   OH233931   6.687   0.492   1.279  0.1191  0.5490  0.3625
 4099TIP3    H133932   6.623   0.450   1.222 -1.2260  0.7574  1.6590
 4099TIP3    H233933   6.766   0.498   1.226 -0.7309 -0.3225 -1.0647
 4100TIP3   OH233934   3.060   4.470   1.669  0.1385 -0.1602  0.2892
 4100TIP3    H133935   2.978   4.444   1.626  0.5897  0.3762 -0.9509
 4100TIP3    H233936   3.063   4.417   1.749 -1.2958 -0.3646  0.2398
 4101TIP3   OH233937   2.720   0.411   7.142  0.0253 -0.0703 -0.5740
 4101TIP3    H133938   2.792   0.408   7.206 -0.2318 -1.1505 -0.3148
 4101TIP3    H233939   2.745   0.348   7.075 -0.6526 -0.4205 -0.5057
 4102TIP3   OH233940   0.035   3.631   7.781 -0.4854  0.3971  0.5908
 4102TIP3    H133941   0.111   3.666   7.827  0.2248  0.8354 -0.8526
 4102TIP3    H233942  -0.029   3.702   7.784 -0.5846  0.2814  1.2244
 4103TIP3   OH233943   0.652   5.813   8.334  0.3921  0.0749  0.3435
 4103TIP3    H133944   0.583   5.763   8.378  0.0522  0.0515 -0.2102
 4103TIP3    H233945   0.656   5.776   8.246  0.0159  1.1470 -0.1399
 4104TIP3   OH233946   2.630   1.672   7.949 -0.1789 -0.4903  0.1722
 4104TIP3    H133947   2.621   1.726   8.027 -0.5765 -0.7133  0.2815
 4104TIP3    H233948   2.712   1.702   7.909 -0.8419  0.7916 -0.2517
 4105TIP3   OH233949   0.440   3.585   0.619  0.6523  0.3396 -0.2139
 4105TIP3    H133950   0.507   3.545   0.674 -1.3185  1.7049  3.5436
 4105TIP3    H233951   0.386   3.512   0.590  0.6463 -0.3408  1.3918
 4106TIP3   OH233952   6.655   0.340   7.757 -0.1780  0.1034 -0.1347
 4106TIP3    H133953   6.612   0.323   7.673  0.7638  1.0185 -0.8170
 4106TIP3    H233954   6.643   0.259   7.807 -0.7615 -0.4419 -1.1373
 4107TIP3   OH233955   6.607   5.452   1.677  0.0560 -0.0769  0.4590
 4107TIP3    H133956   6.695   5.435   1.711 -0.3999  0.3897  1.9219
 4107TIP3    H233957   6.585   5.539   1.709 -0.3739  0.4571 -1.1655
 4108TIP3   OH233958   3.780   4.257   0.376 -0.4643 -0.5960  0.3411
 4108TIP3    H133959   3.753   4.343   0.409  0.5992 -0.4791  0.9861
 4108TIP3    H233960   3.815   4.275   0.289  2.6184  0.2234  1.5982
 4109TIP3   OH233961   5.724   5.970   7.751 -0.1406 -0.0631 -0.6155
 4109TIP3    H133962   5.669   5.949   7.676 -0.6035 -0.4153 -0.1843
 4109TIP3    H233963   5.670   5.948   7.828  0.2543  0.4551 -0.1765
 4110TIP3   OH233964   3.785   3.827   8.143  0.0459  0.0422  0.4139
 4110TIP3    H133965   3.724   3.872   8.085  0.7676 -1.4123 -1.5804
 4110TIP3    H233966   3.729   3.777   8.203 -0.7830 -1.0563 -1.2026
 4111TIP3   OH233967   4.464   3.767   8.044  0.5422 -0.2775  0.4346
 4111TIP3    H133968   4.489   3.783   7.953  0.2812 -0.4066  0.3401
 4111TIP3    H233969   4.546   3.739   8.087  1.2010  1.9931  0.7843
 4112TIP3   OH233970   1.619   6.813   0.553 -0.0066  0.3655  0.3478
 4112TIP3    H133971   1.615   6.720   0.574 -1.1564  0.3307  0.0257
 4112TIP3    H233972   1.634   6.816   0.459  1.5795  0.5270  0.5744
 4113TIP3   OH233973   5.093   0.002   1.371  0.0500 -0.2282  0.4109
 4113TIP3    H133974   5.178  -0.038   1.351  0.3705  0.5521  0.1526
 4113TIP3    H233975   5.083  -0.009   1.465  1.4229  1.4757  0.8048
 4114TIP3   OH233976   3.688   3.787   1.220 -0.1212  0.0174  0.2847
 4114TIP3    H133977   3.634   3.729   1.167 -1.5000  2.0250 -0.6252
 4114TIP3    H233978   3.663   3.768   1.311 -1.1622 -0.1948 -0.0434
 4115TIP3   OH233979   6.072   0.869   7.856  0.5342 -0.0286  0.0535
 4115TIP3    H133980   6.046   0.849   7.946  0.7762  2.8447  0.8845
 4115TIP3    H233981   6.006   0.932   7.826 -0.3090 -1.8838 -2.3409
 4116TIP3   OH233982   5.963   5.290   7.720  0.1814 -0.1929  0.0022
 4116TIP3    H133983   5.876   5.250   7.723  0.4883 -0.8410  2.3372
 4116TIP3    H233984   5.949   5.377   7.682 -1.1604 -0.9469 -1.3309
 4117TIP3   OH233985   4.190   0.623   8.481  0.8115 -0.1922 -0.1107
 4117TIP3    H133986   4.162   0.542   8.440 -1.2965  0.2052  0.3757
 4117TIP3    H233987   4.220   0.678   8.409 -0.1485 -0.5174 -0.7836
 4118TIP3   OH233988   5.990   2.358   8.376 -0.2863 -0.1215 -0.0116
 4118TIP3    H133989   6.057   2.305   8.333  0.0289  0.8369 -0.7466
 4118TIP3    H233990   5.920   2.296   8.396  0.7671 -1.1324  0.7070
 4119TIP3   OH233991   3.555   5.280   0.215 -0.2975 -0.0418  0.4393
 4119TIP3    H133992   3.510   5.320   0.289  2.2334 -2.2537  3.4315
 4119TIP3    H233993   3.642   5.321   0.214 -0.3751  0.2341 -1.6969
 4120TIP3   OH233994   6.302   2.275   2.965  0.1058  0.1511  0.3909
 4120TIP3    H133995   6.391   2.239   2.960 -0.1169 -0.3232 -0.2787
 4120TIP3    H233996   6.309   2.362   2.925  0.3837  0.3543  0.8694
 4121TIP3   OH233997   6.841   0.298   7.946  0.0396  0.4496  1.0746
 4121TIP3    H133998   6.812   0.327   8.032 -0.6395  0.7976  0.7324
 4121TIP3    H233999   6.786   0.346   7.884 -0.1642 -0.5298  0.4689
 4122TIP3   OH234000   0.996   6.705   8.165  0.9631  0.0120  0.6967
 4122TIP3    H134001   0.901   6.713   8.155  0.9602 -0.3341  0.4342
 4122TIP3    H234002   1.009   6.616   8.199  1.3053 -0.5445 -0.8260
 4123TIP3   OH234003   4.921   0.382   1.092  0.6480  0.2216 -0.0102
 4123TIP3    H134004   4.920   0.454   1.029  1.2087  0.9482  0.7887
 4123TIP3    H234005   4.903   0.304   1.039  2.4312  0.6274 -1.3182
 4124TIP3   OH234006   6.089   3.006   1.837  0.0656  0.1174 -0.8212
 4124TIP3    H134007   6.158   2.942   1.854  0.9421  1.0424 -0.7838
 4124TIP3    H234008   6.133   3.076   1.787 -1.1513  0.1161 -1.9399
 4125TIP3   OH234009   2.387   3.743   0.341  0.4487  0.0855  0.1981
 4125TIP3    H134010   2.422   3.656   0.320 -0.1296 -0.5425  1.7305
 4125TIP3    H234011   2.463   3.793   0.369  0.5796 -0.3362  0.6040
 4126TIP3   OH234012   1.645   5.407   8.011  0.2237 -0.2329 -0.0734
 4126TIP3    H134013   1.712   5.359   7.963 -0.2010 -0.3262 -0.5812
 4126TIP3    H234014   1.566   5.353   8.003 -0.2460  0.5076 -0.6006
 4127TIP3   OH234015   6.194   5.178   8.266  0.1038 -0.0465  0.4396
 4127TIP3    H134016   6.142   5.216   8.337 -0.6197 -1.5297  0.7397
 4127TIP3    H234017   6.130   5.140   8.206  0.6259  2.1255 -1.6630
 4128TIP3   OH234018   0.066   4.612   7.156 -0.1022 -0.2899 -0.2314
 4128TIP3    H134019   0.108   4.530   7.131 -0.3725 -0.3039 -0.6398
 4128TIP3    H234020   0.125   4.650   7.222  0.8834 -0.0051 -1.2560
 4129TIP3   OH234021   0.899   5.030   1.926  0.4342  0.3181 -0.0273
 4129TIP3    H134022   0.829   5.023   1.992  0.5069 -0.4704 -0.0263
 4129TIP3    H234023   0.854   5.013   1.843  0.4716  0.6350 -0.1123
 4130TIP3   OH234024   2.374   1.115   1.495  0.0499 -0.5565  0.2925
 4130TIP3    H134025   2.458   1.115   1.541  0.0374 -3.1128  0.4414
 4130TIP3    H234026   2.314   1.159   1.556  0.7702 -0.8596  1.2545
 4131TIP3   OH234027   0.440   1.759   8.128 -0.1376  0.0250 -0.6492
 4131TIP3    H134028   0.370   1.813   8.091 -1.2267 -0.4737  0.5710
 4131TIP3    H234029   0.400   1.720   8.206  1.5170 -0.2877  0.0732
 4132TIP3   OH234030   1.766   3.588   7.123 -0.6502 -0.0905 -0.2998
 4132TIP3    H134031   1.788   3.575   7.030  0.3690 -0.0979 -0.0672
 4132TIP3    H234032   1.748   3.682   7.130  1.7253  0.4064 -0.0452
 4133TIP3   OH234033   0.775   2.191   0.226  0.1254 -0.5743 -0.0742
 4133TIP3    H134034   0.685   2.167   0.244  0.2264  0.4995  2.1257
 4133TIP3    H234035   0.771   2.236   0.141 -1.5745  0.3150  0.4351
 4134TIP3   OH234036   2.594   1.662   8.330  0.2495  0.2001 -0.8663
 4134TIP3    H134037   2.520   1.601   8.327  1.2978 -1.1000 -0.7553
 4134TIP3    H234038   2.603   1.684   8.422 -0.5131  1.0359 -0.9741
 4135TIP3   OH234039   5.784   4.658   0.544  0.5270 -0.0114  0.4895
 4135TIP3    H134040   5.874   4.689   0.542  0.8707 -0.7055  2.6785
 4135TIP3    H234041   5.734   4.732   0.579  0.0388  0.6924 -1.5467
 4136TIP3   OH234042   3.838   3.943   1.630 -0.6487  0.4623 -0.1989
 4136TIP3    H134043   3.859   3.926   1.722  3.2814 -3.2462 -1.4324
 4136TIP3    H234044   3.907   4.003   1.601  0.0442 -0.8173 -1.3090
 4137TIP3   OH234045   5.100   5.887   1.576  0.2957 -0.1540  0.1610
 4137TIP3    H134046   5.044   5.940   1.519 -0.9842 -1.3590  0.2573
 4137TIP3    H234047   5.188   5.923   1.563 -0.6979  3.1048  1.5247
 4138TIP3   OH234048   4.246   1.292   0.247  0.8497  0.4311 -0.3159
 4138TIP3    H134049   4.187   1.224   0.280 -0.1031  0.9384 -0.9171
 4138TIP3    H234050   4.188   1.353   0.202  1.9787  0.3753 -1.8938
 4139TIP3   OH234051   2.172   0.269   8.479  0.2303 -0.3218 -0.3118
 4139TIP3    H134052   2.185   0.315   8.562 -1.1027  0.4466 -0.5049
 4139TIP3    H234053   2.109   0.200   8.500  0.4308 -0.5753 -0.5392
 4140TIP3   OH234054   5.869   6.650   2.602  0.2251 -0.1472  0.0150
 4140TIP3    H134055   5.940   6.628   2.662  1.7004 -0.3400 -1.7339
 4140TIP3    H234056   5.827   6.566   2.583 -1.1883  0.0930  1.8417
 4141TIP3   OH234057   5.602   3.798   0.983  0.3204  0.3794  0.2925
 4141TIP3    H134058   5.521   3.761   1.019  0.5923 -0.8650 -0.3201
 4141TIP3    H234059   5.574   3.877   0.938 -0.4831  0.2525  0.5502
 4142TIP3   OH234060   2.870   6.290   0.314  0.0615 -0.3964  0.1793
 4142TIP3    H134061   2.909   6.205   0.291 -0.0854 -0.0342 -1.5070
 4142TIP3    H234062   2.914   6.353   0.256 -0.8727  0.4656  0.3865
 4143TIP3   OH234063   1.439   2.611   7.828  0.0160  0.2477 -0.6149
 4143TIP3    H134064   1.530   2.602   7.802 -0.0642  0.2488 -0.8952
 4143TIP3    H234065   1.389   2.607   7.746 -0.3512 -1.1886 -0.3573
 4144TIP3   OH234066   4.120   0.099   1.366  0.1112  0.2171 -0.1943
 4144TIP3    H134067   4.198   0.142   1.331  0.7462  0.0058  0.9203
 4144TIP3    H234068   4.107   0.138   1.453 -1.1259  0.3608 -0.4173
 4145TIP3   OH234069   0.443   3.813   7.555  0.3307 -0.0316  0.3392
 4145TIP3    H134070   0.464   3.873   7.627 -0.4059 -0.5020  0.9564
 4145TIP3    H234071   0.349   3.824   7.542  0.2261 -0.8981  0.3232
 4146TIP3   OH234072   3.862   4.544   2.734 -0.1633  0.4525  0.2541
 4146TIP3    H134073   3.811   4.557   2.814  0.0387 -2.1165  0.8989
 4146TIP3    H234074   3.814   4.477   2.686  0.6310  0.7227 -0.9529
 4147TIP3   OH234075   0.247   2.883   8.074 -0.1961  0.3591  0.7972
 4147TIP3    H134076   0.189   2.894   8.149 -0.0469  0.6520  0.8710
 4147TIP3    H234077   0.226   2.796   8.039 -0.7745  0.5192  0.7390
 4148TIP3   OH234078   6.015   6.681   0.357  0.2459  0.7740  0.3454
 4148TIP3    H134079   6.051   6.731   0.430 -0.1842  1.3262  0.1871
 4148TIP3    H234080   6.033   6.734   0.280 -1.4202  1.3750  0.3311
 4149TIP3   OH234081   5.483   2.319   3.092 -0.1679  0.1036  0.3145
 4149TIP3    H134082   5.503   2.412   3.080 -1.1162  0.1476 -1.1887
 4149TIP3    H234083   5.566   2.280   3.120  1.1433  0.8542 -2.2625
 4150TIP3   OH234084   2.290   4.836   0.136  0.0664 -0.0831 -0.2676
 4150TIP3    H134085   2.283   4.895   0.211 -0.1637  0.1926 -0.5051
 4150TIP3    H234086   2.328   4.756   0.172 -2.0071 -0.7501  0.5771
 4151TIP3   OH234087   3.500   6.067   0.229  0.0295  0.0330  0.5298
 4151TIP3    H134088   3.541   6.147   0.197  0.0831 -0.8327 -1.7522
 4151TIP3    H234089   3.568   6.000   0.220 -0.5581 -0.6069  0.7334
 4152TIP3   OH234090   5.014   0.303   8.259 -0.2475 -0.4212  0.2043
 4152TIP3    H134091   5.081   0.235   8.252  0.8670  0.8351 -2.1864
 4152TIP3    H234092   5.055   0.382   8.226 -2.7286  0.5545 -0.8245
 4153TIP3   OH234093   5.059   2.776   1.806 -0.4316  0.0062 -0.5463
 4153TIP3    H134094   5.006   2.794   1.729 -0.9907  0.7536  0.0094
 4153TIP3    H234095   4.996   2.765   1.877  0.0916 -0.4132 -0.1374
 4154TIP3   OH234096   0.433   3.411   7.831 -0.0320 -0.2893 -0.0488
 4154TIP3    H134097   0.457   3.504   7.836 -3.5458  0.6877  0.8894
 4154TIP3    H234098   0.514   3.368   7.803  1.7973  2.9928 -0.3685
 4155TIP3   OH234099   2.266   3.996   1.827 -0.1843 -0.1464 -0.2101
 4155TIP3    H134100   2.206   3.992   1.902 -0.4423  0.6265 -0.3721
 4155TIP3    H234101   2.289   4.088   1.818  0.6039 -0.3592 -0.4960
 4156TIP3   OH234102   4.130   3.475   0.538 -0.0457 -0.7141  0.3769
 4156TIP3    H134103   4.202   3.506   0.594  0.1599 -0.5239  0.0114
 4156TIP3    H234104   4.052   3.515   0.577  0.2027  0.1956 -0.0176
 4157TIP3   OH234105   3.478   1.169   0.691  0.0690  0.2224  0.3099
 4157TIP3    H134106   3.402   1.154   0.635  0.5809  0.1145 -0.3746
 4157TIP3    H234107   3.460   1.254   0.732 -0.7207 -0.1084  0.6685
 4158TIP3   OH234108   0.246   1.723   0.031  0.1765 -0.4206  0.1207
 4158TIP3    H134109   0.258   1.740  -0.062  1.6506 -0.6706  0.2466
 4158TIP3    H234110   0.161   1.761   0.052  0.5788  1.1540 -0.9515
 4159TIP3   OH234111   6.366   4.225   7.648  0.0371  0.5328 -0.1591
 4159TIP3    H134112   6.447   4.271   7.625 -0.4103  1.2622 -0.3223
 4159TIP3    H234113   6.390   4.132   7.646  1.0728  0.7625  0.6217
 4160TIP3   OH234114   2.858   0.779   1.305  0.1311 -0.4365 -0.1932
 4160TIP3    H134115   2.899   0.693   1.296  1.8416  0.0936  1.8729
 4160TIP3    H234116   2.912   0.838   1.252  0.5062 -0.2065  0.4307
 4161TIP3   OH234117   5.542   5.564   8.523 -0.5935  0.9357  0.0907
 4161TIP3    H134118   5.473   5.504   8.552  1.2291 -1.4395 -0.1408
 4161TIP3    H234119   5.523   5.582   8.431 -0.5771 -0.2213 -0.1469
 4162TIP3   OH234120   1.308   2.036   8.245 -0.4065  0.2093  0.4302
 4162TIP3    H134121   1.244   2.030   8.316  0.7901 -0.8161  1.4505
 4162TIP3    H234122   1.381   2.086   8.282 -0.2440  0.6488 -0.4542
 4163TIP3   OH234123   3.989   2.932   1.922 -0.1280 -0.0712  0.2428
 4163TIP3    H134124   3.996   3.024   1.897  0.6799  0.4568  2.1743
 4163TIP3    H234125   4.069   2.916   1.973  0.6821 -2.3835 -1.5684
 4164TIP3   OH234126   0.687   4.541   0.541 -0.1672 -0.1093 -0.0745
 4164TIP3    H134127   0.701   4.612   0.603  0.4485 -0.0703 -0.2557
 4164TIP3    H234128   0.754   4.553   0.473  0.9141 -1.6893  0.6408
 4165TIP3   OH234129   3.671   5.194   1.180  0.1508 -0.0636  0.1937
 4165TIP3    H134130   3.738   5.153   1.234 -0.8759  0.3755  1.8589
 4165TIP3    H234131   3.691   5.287   1.182 -0.9283  0.1700  1.3771
 4166TIP3   OH234132   0.118   0.627   1.422 -0.2786  0.2694 -0.2305
 4166TIP3    H134133   0.141   0.634   1.329 -0.8539 -0.1411 -0.4087
 4166TIP3    H234134   0.103   0.533   1.436  0.2832  0.2644  0.3981
 4167TIP3   OH234135   6.271   4.042   2.423 -0.1613 -0.0200 -0.1671
 4167TIP3    H134136   6.243   3.954   2.446 -0.5897 -0.5749 -2.5326
 4167TIP3    H234137   6.202   4.099   2.456 -0.2509 -0.6426  0.7267
 4168TIP3   OH234138   0.764   1.787   7.744  0.3455 -0.0099  0.2549
 4168TIP3    H134139   0.756   1.721   7.675 -0.8512 -0.4333  0.7818
 4168TIP3    H234140   0.677   1.793   7.782  0.2986  2.2107 -0.0619
 4169TIP3   OH234141   3.650   5.904   0.533 -0.8449 -0.1869 -0.4178
 4169TIP3    H134142   3.721   5.846   0.559 -0.3560  0.9253  0.8524
 4169TIP3    H234143   3.648   5.898   0.437  0.1130 -1.1982 -0.3878
 4170TIP3   OH234144   2.567   5.969   1.760 -0.3977  0.2283  0.1397
 4170TIP3    H134145   2.652   6.003   1.786  0.2565  0.7041 -2.3620
 4170TIP3    H234146   2.516   6.047   1.737 -0.5351 -0.1646 -0.9893
 4171TIP3   OH234147   3.776   2.762   6.929  0.6721 -0.1495 -0.4801
 4171TIP3    H134148   3.794   2.731   7.018 -0.2722 -1.0678 -0.5835
 4171TIP3    H234149   3.819   2.697   6.872  0.5686 -0.0291 -0.6960
 4172TIP3   OH234150   2.203   1.480   7.802  0.6518  0.5830  0.0360
 4172TIP3    H134151   2.131   1.539   7.781  1.4231  0.7214 -2.4554
 4172TIP3    H234152   2.180   1.397   7.760  1.6662  0.4643 -0.3213
 4173TIP3   OH234153   2.413   5.347   6.889 -0.3382  0.1797  0.3461
 4173TIP3    H134154   2.410   5.303   6.974 -0.6712  1.6769  1.1536
 4173TIP3    H234155   2.506   5.364   6.874 -0.4255  2.2140  1.7121
 4174TIP3   OH234156   5.224   2.231   3.119  0.7529  0.2869 -0.5102
 4174TIP3    H134157   5.226   2.183   3.035 -0.8748  1.0906 -1.0490
 4174TIP3    H234158   5.313   2.264   3.130  0.9374  0.3905 -2.0775
 4175TIP3   OH234159   0.021   5.935   1.330 -0.2004 -0.2113  0.4078
 4175TIP3    H134160  -0.023   6.005   1.281  0.9691  0.7512  0.6712
 4175TIP3    H234161   0.113   5.960   1.329  0.3516 -2.0989 -0.0210
 4176TIP3   OH234162   6.347   5.766   8.624  0.5677  0.3896 -0.3333
 4176TIP3    H134163   6.263   5.728   8.649  1.3415 -0.7443  0.6050
 4176TIP3    H234164   6.343   5.773   8.529 -0.1947 -0.6139 -0.3855
 4177TIP3   OH234165   0.276   0.771   1.596 -0.3891  0.0920  0.9417
 4177TIP3    H134166   0.310   0.695   1.644  0.7634  0.8313  1.3153
 4177TIP3    H234167   0.194   0.739   1.557  1.5406 -2.3842 -1.5705
 4178TIP3   OH234168   2.582   2.211   0.970 -0.5181 -0.9006 -0.5151
 4178TIP3    H134169   2.677   2.223   0.959 -0.3039  0.8575  2.2806
 4178TIP3    H234170   2.573   2.118   0.991  1.0206 -0.6117  1.8757
 4179TIP3   OH234171   6.822   6.868   6.978 -0.6182  0.9842 -0.0088
 4179TIP3    H134172   6.888   6.937   6.970  0.4144  0.2527  1.6411
 4179TIP3    H234173   6.824   6.844   7.070 -0.7690 -1.4155 -0.5566
 4180TIP3   OH234174   4.328   3.591   0.705  0.0873 -0.1474  0.0292
 4180TIP3    H134175   4.414   3.563   0.673  0.0071  0.6373 -0.9399
 4180TIP3    H234176   4.348   3.642   0.784  0.4368 -0.6532  0.2753
 4181TIP3   OH234177   6.661   3.152   7.386  0.0459  0.2122  0.2833
 4181TIP3    H134178   6.707   3.164   7.469  1.4909  1.3247 -0.6214
 4181TIP3    H234179   6.640   3.240   7.357 -0.8238 -0.1836 -0.3393
 4182TIP3   OH234180   0.673   3.306   7.743 -0.0459  0.6667 -0.2756
 4182TIP3    H134181   0.769   3.314   7.748 -0.0421  0.1695  0.4224
 4182TIP3    H234182   0.659   3.225   7.695 -0.1180  0.1858  0.5514
 4183TIP3   OH234183   5.554   3.665   7.421  0.3524  0.6909 -0.0203
 4183TIP3    H134184   5.465   3.661   7.453  0.2859 -0.1067 -0.2782
 4183TIP3    H234185   5.609   3.653   7.499  0.2349  0.8235  0.0837
 4184TIP3   OH234186   0.269   2.398   7.084 -0.1748  0.6287  0.5096
 4184TIP3    H134187   0.180   2.363   7.080 -0.0432  0.1650  1.4113
 4184TIP3    H234188   0.304   2.385   6.995 -1.1349  1.1991  0.0286
 4185TIP3   OH234189   6.692   2.560   1.783  0.6938 -0.0909 -0.5507
 4185TIP3    H134190   6.695   2.535   1.690  0.2754  0.5316 -0.7389
 4185TIP3    H234191   6.656   2.483   1.827 -1.1825  0.3508 -1.1991
 4186TIP3   OH234192   1.121   1.127   2.784 -0.1876 -0.3607  0.4981
 4186TIP3    H134193   1.181   1.148   2.856  0.8469  1.7158 -0.8582
 4186TIP3    H234194   1.160   1.169   2.707 -1.6520 -1.8364 -1.1469
 4187TIP3   OH234195   5.936   6.079   1.835  0.8446 -0.5710 -0.1870
 4187TIP3    H134196   5.881   6.072   1.913 -0.7787  0.0414 -1.2344
 4187TIP3    H234197   5.924   6.169   1.805 -0.6925 -1.4941 -2.6105
 4188TIP3   OH234198   3.466   1.291   8.451 -0.2878 -0.7114 -0.1051
 4188TIP3    H134199   3.414   1.319   8.375 -1.2023  1.5818  1.2500
 4188TIP3    H234200   3.539   1.243   8.414 -0.6470  0.4178 -2.4535
 4189TIP3   OH234201   5.080   2.357   8.381  0.4013  0.0669 -0.1799
 4189TIP3    H134202   5.043   2.362   8.469 -0.7148  0.4435 -0.6479
 4189TIP3    H234203   5.174   2.372   8.393  0.3485 -0.4676  0.9992
 4190TIP3   OH234204   6.498   4.703   6.906 -0.3278 -0.1861 -1.0535
 4190TIP3    H134205   6.497   4.629   6.846  0.5210 -1.6385  0.6393
 4190TIP3    H234206   6.415   4.696   6.953 -0.2794 -0.0133 -0.9419
 4191TIP3   OH234207   5.924   6.030   0.475  0.1074  0.1338  0.0908
 4191TIP3    H134208   5.838   6.067   0.499 -0.3398 -0.6802 -0.2270
 4191TIP3    H234209   5.905   5.973   0.400  0.8180 -0.5649  0.4341
 4192TIP3   OH234210   2.014   0.737   1.407  0.4123  0.2788 -0.6529
 4192TIP3    H134211   2.104   0.707   1.418 -0.3454 -1.3652  2.3097
 4192TIP3    H234212   1.969   0.663   1.366 -0.1071 -0.0048  0.4017
 4193TIP3   OH234213   1.819   6.195   8.166  0.2889 -0.7389 -0.2202
 4193TIP3    H134214   1.903   6.213   8.124 -0.0501 -0.5276 -0.8198
 4193TIP3    H234215   1.762   6.166   8.095  0.1539 -1.9471  0.3468
 4194TIP3   OH234216   4.699   3.092   0.748  0.5180  0.5791 -0.2728
 4194TIP3    H134217   4.741   3.096   0.662  1.1160  1.3088  0.0428
 4194TIP3    H234218   4.610   3.122   0.734  1.4143  3.5598 -0.1605
 4195TIP3   OH234219   3.680   6.562   0.684  0.5424  0.2610 -0.0155
 4195TIP3    H134220   3.729   6.611   0.618  0.0693  0.6906 -0.0545
 4195TIP3    H234221   3.677   6.621   0.760 -0.0852  0.3247 -0.0858
 4196TIP3   OH234222   2.019   2.276   8.454 -0.2046 -0.5383 -0.5415
 4196TIP3    H134223   1.963   2.319   8.519  0.0291 -1.8535  0.5878
 4196TIP3    H234224   2.100   2.327   8.454 -0.5352 -0.0070 -0.4396
 4197TIP3   OH234225   0.064   1.376   8.537 -1.0632 -0.0886  0.2885
 4197TIP3    H134226   0.126   1.447   8.553  2.3576 -3.0907  1.8871
 4197TIP3    H234227   0.051   1.376   8.442  0.6462  1.3261  0.0049
 4198TIP3   OH234228   6.033   6.625   7.283 -0.2875  0.1251 -0.4961
 4198TIP3    H134229   6.020   6.708   7.236 -2.6890  0.7139  1.0267
 4198TIP3    H234230   5.962   6.622   7.346  1.4220 -1.7591  1.5060
 4199TIP3   OH234231   5.428   5.220   0.218  0.2402 -0.8226 -0.2262
 4199TIP3    H134232   5.366   5.188   0.152 -0.2498  1.9849 -1.2586
 4199TIP3    H234233   5.514   5.214   0.175  0.4457 -2.5133  0.3432
 4200TIP3   OH234234   2.206   6.717   1.953 -0.3362  0.1933  0.0139
 4200TIP3    H134235   2.222   6.703   1.860  1.9512  0.2830  0.3150
 4200TIP3    H234236   2.165   6.803   1.958 -0.3110  0.2690 -0.9007
 4201TIP3   OH234237   3.028   4.939   7.638  0.0536  0.6420 -0.3097
 4201TIP3    H134238   3.073   4.917   7.719  0.5727  1.7951 -0.2698
 4201TIP3    H234239   2.946   4.980   7.666  0.8250  2.2640 -0.3235
 4202TIP3   OH234240   0.932   6.817   2.273 -0.3451 -0.1798 -0.0448
 4202TIP3    H134241   0.958   6.748   2.212 -0.0358 -1.0880  1.0840
 4202TIP3    H234242   0.876   6.875   2.221 -1.8956 -2.1190 -0.6453
 4203TIP3   OH234243   3.341   6.747   6.526 -0.6457 -0.0694 -0.2805
 4203TIP3    H134244   3.305   6.835   6.513  0.6835  0.4383 -0.6733
 4203TIP3    H234245   3.430   6.762   6.557 -1.1607 -1.2930  1.9333
 4204TIP3   OH234246   5.286   3.430   0.415  0.3643  0.5106 -0.0486
 4204TIP3    H134247   5.271   3.514   0.458  1.6767  0.4835  0.5399
 4204TIP3    H234248   5.372   3.402   0.448 -0.8955 -2.0399  1.3720
 4205TIP3   OH234249   3.315   5.204   7.000 -0.4102  0.1751 -0.1536
 4205TIP3    H134250   3.356   5.241   7.079 -0.2268  2.8861 -1.3867
 4205TIP3    H234251   3.227   5.179   7.028 -0.0719  0.3154  1.0907
 4206TIP3   OH234252   1.945   0.421   8.119  0.2228 -0.1234  0.1991
 4206TIP3    H134253   1.885   0.457   8.184 -0.7159 -1.9724  0.4170
 4206TIP3    H234254   1.994   0.353   8.167  1.7946  0.6422 -0.2379
 4207TIP3   OH234255   2.462   1.290   0.418  0.0605  0.3707  0.0022
 4207TIP3    H134256   2.450   1.206   0.372  0.9873 -0.5294  1.3325
 4207TIP3    H234257   2.372   1.321   0.432 -0.3427 -0.8139  0.2170
 4208TIP3   OH234258   2.167   3.292   0.457  0.0809  0.0850  0.4421
 4208TIP3    H134259   2.219   3.213   0.471  1.8773  1.4481  2.1792
 4208TIP3    H234260   2.177   3.342   0.539 -0.3824  2.4303 -0.8358
 4209TIP3   OH234261   5.563   0.604   7.542 -0.1219 -0.8986 -0.2154
 4209TIP3    H134262   5.542   0.563   7.626  0.5258 -2.8823 -0.9701
 4209TIP3    H234263   5.654   0.631   7.550  0.3598 -2.2952 -0.6939
 4210TIP3   OH234264   5.423   4.622   0.646 -0.3835 -0.7268  0.3914
 4210TIP3    H134265   5.382   4.678   0.712 -0.3098  0.1837 -0.3208
 4210TIP3    H234266   5.350   4.576   0.605 -0.5878  0.0101 -0.0740
 4211TIP3   OH234267   5.955   0.986   1.355 -0.4290 -0.0708 -0.4837
 4211TIP3    H134268   5.974   1.023   1.270 -0.8650 -0.5584 -0.8011
 4211TIP3    H234269   5.968   0.892   1.344  0.4864 -0.0470  0.2552
 4212TIP3   OH234270   2.847   6.082   8.222 -0.1756  0.5593  0.4427
 4212TIP3    H134271   2.886   6.002   8.259 -1.1263  0.4283  1.1969
 4212TIP3    H234272   2.756   6.079   8.250 -1.5376 -0.5413 -3.4636
 4213TIP3   OH234273   2.282   0.693   1.410  0.4709  0.1780 -0.2854
 4213TIP3    H134274   2.317   0.650   1.488  0.8886 -1.5110 -1.3509
 4213TIP3    H234275   2.357   0.703   1.353  0.1235  1.1935 -0.5822
 4214TIP3   OH234276   2.142   6.559   7.799  0.6188 -0.1634  0.5484
 4214TIP3    H134277   2.206   6.488   7.796 -1.4374 -2.1178 -0.7356
 4214TIP3    H234278   2.062   6.518   7.832 -0.5140  1.6990  0.2985
 4215TIP3   OH234279   2.033   1.753   8.448 -0.1711 -0.1213 -0.1423
 4215TIP3    H134280   1.971   1.731   8.379 -2.8652 -1.9208  2.5622
 4215TIP3    H234281   2.028   1.848   8.456  0.1205  0.1103 -2.2450
 4216TIP3   OH234282   5.585   6.559   1.962 -0.1741 -0.3693  0.2654
 4216TIP3    H134283   5.621   6.593   2.044  0.2360  1.3276 -0.5547
 4216TIP3    H234284   5.494   6.538   1.982  0.1944 -0.9153  1.3909
 4217TIP3   OH234285   6.070   1.015   2.524  0.0147 -0.6887  0.2758
 4217TIP3    H134286   6.064   1.063   2.606 -0.7661  0.6415 -0.5273
 4217TIP3    H234287   6.085   1.082   2.457 -1.5764 -1.4749 -0.9535
 4218TIP3   OH234288   4.227   6.253   7.793 -0.0592 -0.2697  0.0025
 4218TIP3    H134289   4.158   6.267   7.858  0.3430  1.8091  0.0576
 4218TIP3    H234290   4.222   6.330   7.736 -0.3139 -1.9400 -2.4118
 4219TIP3   OH234291   4.465   4.297   0.651 -0.2234  0.6316  0.4422
 4219TIP3    H134292   4.508   4.381   0.638  2.2932 -0.3956  1.4939
 4219TIP3    H234293   4.475   4.252   0.567 -4.2885  2.3379 -1.2153
 4220TIP3   OH234294   1.076   4.189   1.721  0.4237  0.1303  0.1928
 4220TIP3    H134295   1.001   4.245   1.700  0.2926 -0.1414 -0.0682
 4220TIP3    H234296   1.079   4.189   1.817  0.9445  1.2607  0.1905
 4221TIP3   OH234297   4.973   1.867   2.178 -0.2992  0.2411  0.0600
 4221TIP3    H134298   5.015   1.871   2.092 -0.4266  0.1586 -0.0074
 4221TIP3    H234299   5.016   1.795   2.223  0.2188  0.6954  0.3104
 4222TIP3   OH234300   5.123   1.952   0.497  0.2281 -0.5021  0.0236
 4222TIP3    H134301   5.164   2.022   0.547  1.5315  0.0710 -1.7659
 4222TIP3    H234302   5.038   1.938   0.540  0.2898  1.6023  0.9160
 4223TIP3   OH234303   6.000   5.647   6.575  0.7804 -0.6513 -0.3730
 4223TIP3    H134304   5.997   5.733   6.617  1.9009 -0.2254 -1.1069
 4223TIP3    H234305   5.909   5.628   6.552  0.6526  0.9189 -1.3026
 4224TIP3   OH234306   4.855   3.403   0.311 -0.6395  0.0526  0.1715
 4224TIP3    H134307   4.815   3.434   0.393 -0.2126  2.4489 -0.4526
 4224TIP3    H234308   4.943   3.439   0.313 -0.8154  0.6439 -1.5916
 4225TIP3   OH234309   1.274   2.206   7.326 -0.8235  0.1299 -0.5492
 4225TIP3    H134310   1.345   2.265   7.350 -0.1346 -0.8255 -0.2129
 4225TIP3    H234311   1.314   2.141   7.269 -0.9943 -1.4986  1.1110
 4226TIP3   OH234312   0.185   1.881   8.446 -0.2635  0.2895  0.2268
 4226TIP3    H134313   0.218   1.799   8.410  0.0432  0.1604  0.7953
 4226TIP3    H234314   0.259   1.941   8.442 -0.6936  0.7698 -0.8712
 4227TIP3   OH234315   5.273   6.697   1.255  0.0212 -0.3010  0.4275
 4227TIP3    H134316   5.218   6.655   1.188  0.2267 -0.3672  0.3018
 4227TIP3    H234317   5.340   6.632   1.275  0.2541 -0.0873  0.3393
 4228TIP3   OH234318   3.279   4.829   8.202 -0.0770  0.2302 -0.4018
 4228TIP3    H134319   3.268   4.757   8.139 -0.2990  0.4066 -0.5674
 4228TIP3    H234320   3.310   4.902   8.148  0.2508  0.2296 -0.2167
 4229TIP3   OH234321   5.033   3.425   0.551 -0.5065 -0.2178 -0.3151
 4229TIP3    H134322   4.975   3.397   0.623 -0.3603 -0.4321 -0.2817
 4229TIP3    H234323   5.092   3.352   0.538  0.1200  0.2165  0.0252
 4230TIP3   OH234324   5.594   0.952   7.970 -0.0032 -0.7167  0.2473
 4230TIP3    H134325   5.550   0.870   7.944 -0.9222 -0.4354  0.8705
 4230TIP3    H234326   5.531   1.020   7.948  0.5115 -0.2199  0.3100
 4231TIP3   OH234327   2.072   6.815   7.077  0.0698  0.1075  0.1416
 4231TIP3    H134328   2.020   6.894   7.091 -0.5838 -0.4974  1.3440
 4231TIP3    H234329   2.008   6.748   7.051  0.0351 -0.8603  2.4727
 4232TIP3   OH234330   4.008   3.321   8.305  0.0606  0.2528  0.5589
 4232TIP3    H134331   3.927   3.370   8.322 -0.0450  0.7492 -1.1450
 4232TIP3    H234332   4.023   3.271   8.385 -2.7516 -1.0153  0.4180
 4233TIP3   OH234333   3.569   4.233   7.877 -0.1550 -0.0845 -0.4100
 4233TIP3    H134334   3.520   4.205   7.955 -1.3845  1.8370 -0.4409
 4233TIP3    H234335   3.504   4.234   7.807  0.5381 -0.0292 -1.0608
 4234TIP3   OH234336   1.952   1.571   2.488 -0.8089  0.4061  0.2839
 4234TIP3    H134337   1.933   1.650   2.539 -0.0169  0.1672  0.9584
 4234TIP3    H234338   2.023   1.528   2.536 -0.6290 -0.2561 -0.5653
 4235TIP3   OH234339   3.307   1.105   7.274 -0.2565 -0.1010 -0.3776
 4235TIP3    H134340   3.305   1.167   7.201 -0.7089 -0.9705 -1.1130
 4235TIP3    H234341   3.286   1.021   7.235  2.4094 -1.1380  0.2173
 4236TIP3   OH234342   3.326   6.072   1.629 -0.3119 -0.0043  0.2063
 4236TIP3    H134343   3.342   6.020   1.550  0.2359  0.6997 -0.1562
 4236TIP3    H234344   3.331   6.009   1.701 -0.9533 -0.6793 -0.3253
 4237TIP3   OH234345   4.179   5.447   7.871  0.0078  0.4470  0.4233
 4237TIP3    H134346   4.186   5.538   7.842  2.3444  0.2625  0.2534
 4237TIP3    H234347   4.222   5.446   7.956  0.0771 -0.5196  0.3802
 4238TIP3   OH234348   3.302   4.990   1.561 -0.0903 -0.2256 -0.2423
 4238TIP3    H134349   3.381   5.038   1.535 -0.5610 -0.0925 -1.5190
 4238TIP3    H234350   3.332   4.901   1.576  0.2705 -0.2544 -1.0463
 4239TIP3   OH234351   1.037   6.183   7.472  0.2721 -0.0652 -0.1411
 4239TIP3    H134352   1.087   6.251   7.427  0.5474 -0.2300 -0.0913
 4239TIP3    H234353   0.980   6.231   7.532  0.1684  0.1377 -0.4018
 4240TIP3   OH234354   2.433   4.222   8.393 -0.2931  0.0443  0.3431
 4240TIP3    H134355   2.373   4.178   8.331  1.5903  1.0124 -2.3682
 4240TIP3    H234356   2.395   4.310   8.403  0.5739  0.6678 -1.3955
 4241TIP3   OH234357   5.091   6.312   1.092 -0.3435 -0.2490 -0.0802
 4241TIP3    H134358   5.094   6.222   1.125 -1.9962 -0.1845  0.2914
 4241TIP3    H234359   5.089   6.302   0.997 -2.5565 -0.7262 -0.0343
 4242TIP3   OH234360   3.299   4.703   7.092  0.9667 -0.0739 -0.2796
 4242TIP3    H134361   3.226   4.760   7.117  1.1145 -0.0254  0.0442
 4242TIP3    H234362   3.348   4.754   7.028  0.9529  0.0635 -0.1822
 4243TIP3   OH234363   1.083   4.821   7.965  0.4710  0.3159 -0.1098
 4243TIP3    H134364   1.056   4.894   8.021  0.7330  0.3421 -0.0162
 4243TIP3    H234365   1.150   4.858   7.909  0.7334  0.1005  0.0616
 4244TIP3   OH234366   5.316   2.128   7.470 -0.6175 -0.6370  0.3004
 4244TIP3    H134367   5.385   2.176   7.516 -1.3384 -0.5939  1.3844
 4244TIP3    H234368   5.332   2.146   7.378 -0.1087  0.6578  0.6134
 4245TIP3   OH234369   6.067   5.706   8.225  0.7477  0.3755  0.5493
 4245TIP3    H134370   6.061   5.650   8.148  1.1046  0.3909  0.5070
 4245TIP3    H234371   6.011   5.664   8.290 -1.2360  1.4816 -0.3797
 4246TIP3   OH234372   1.243   0.897   2.161  0.0161  0.2705  0.1699
 4246TIP3    H134373   1.277   0.936   2.241  0.4063  0.4285 -0.0735
 4246TIP3    H234374   1.230   0.971   2.102 -1.3182  0.2976  0.4578
 4247TIP3   OH234375   6.098   5.641   0.052  0.2760 -0.3318  0.0935
 4247TIP3    H134376   6.016   5.613   0.012 -1.6214  0.6749  2.9319
 4247TIP3    H234377   6.100   5.595   0.136  0.0036  3.2384  2.2607
 4248TIP3   OH234378   5.884   0.114   0.471 -0.7506 -0.5204 -0.2897
 4248TIP3    H134379   5.842   0.034   0.504  0.2619 -1.1176 -0.3635
 4248TIP3    H234380   5.977   0.101   0.491 -0.5352  0.5328 -0.5469
 4249TIP3   OH234381   5.213   6.515   0.133  0.2514 -0.5909  0.1820
 4249TIP3    H134382   5.245   6.426   0.116 -0.3468 -1.0328  1.2496
 4249TIP3    H234383   5.288   6.571   0.116  0.2242 -1.1234 -2.0161
 4250TIP3   OH234384   1.477   2.659   8.579  0.1706  0.0293  0.0942
 4250TIP3    H134385   1.385   2.643   8.561 -0.2063  1.9426  0.1430
 4250TIP3    H234386   1.519   2.651   8.493 -0.0134 -0.8175  0.0673
 4251TIP3   OH234387   3.989   1.651   1.772 -0.5033  0.2237 -0.2312
 4251TIP3    H134388   4.002   1.743   1.746 -0.0716  0.4229  0.6464
 4251TIP3    H234389   4.019   1.648   1.863  0.3441 -0.9956 -0.5337
 4252TIP3   OH234390   1.571   2.298   7.760 -0.0659  0.1255 -0.0839
 4252TIP3    H134391   1.653   2.286   7.712  0.8106  1.9248  0.8846
 4252TIP3    H234392   1.561   2.393   7.768 -1.3453 -0.0876  1.3163
 4253TIP3   OH234393   1.160   1.760   8.578 -0.1963 -0.1972  0.4538
 4253TIP3    H134394   1.196   1.846   8.556 -0.5985  0.3707  1.9091
 4253TIP3    H234395   1.217   1.726   8.647 -1.0200 -0.3416  1.0826
 4254TIP3   OH234396   0.863   2.200   1.965  0.3602  0.1352 -0.0513
 4254TIP3    H134397   0.800   2.129   1.958 -0.6774  1.0191  0.0355
 4254TIP3    H234398   0.867   2.220   2.059 -0.4690  1.1386 -0.2087
 4255TIP3   OH234399   3.671   3.980   2.452 -0.2457  0.2334 -0.0967
 4255TIP3    H134400   3.758   3.964   2.417  0.7588  1.7299  1.5786
 4255TIP3    H234401   3.684   3.997   2.545 -2.5817 -1.6048  0.6796
 4256TIP3   OH234402   4.268   3.136   6.360 -0.0099 -0.2678  0.0346
 4256TIP3    H134403   4.229   3.100   6.280  0.5722 -0.5341 -0.1300
 4256TIP3    H234404   4.223   3.090   6.431 -0.9378  0.3833 -0.1213
 4257TIP3   OH234405   0.968   2.672   0.175  0.1243 -0.0907  0.6765
 4257TIP3    H134406   0.916   2.695   0.098 -0.0041 -2.4761 -0.0461
 4257TIP3    H234407   0.911   2.693   0.249 -0.1897  1.2055  0.0975
 4258TIP3   OH234408   0.946   6.027   0.908  0.3320 -0.4811  0.2420
 4258TIP3    H134409   0.894   6.106   0.924  0.8146 -0.1176  0.0608
 4258TIP3    H234410   0.985   6.007   0.993 -0.5061 -1.0533  0.4963
 4259TIP3   OH234411   6.809   2.752   8.038 -0.0008  0.4531 -0.0844
 4259TIP3    H134412   6.742   2.736   7.971 -0.6980  2.1070  0.1645
 4259TIP3    H234413   6.831   2.844   8.028  1.3659  0.2279  0.6606
 4260TIP3   OH234414   1.833   0.035   8.344 -0.0414  0.4592  0.2902
 4260TIP3    H134415   1.877   0.096   8.284  1.7900 -1.9435 -0.9875
 4260TIP3    H234416   1.754   0.082   8.372  0.7143  2.9684 -1.4327
 4261TIP3   OH234417   6.094   6.000   8.411  0.0087 -0.4179  0.4007
 4261TIP3    H134418   6.150   6.016   8.335 -0.2307  0.0266  0.3193
 4261TIP3    H234419   6.155   5.999   8.485  0.3675 -1.7348  0.1207
 4262TIP3   OH234420   1.371   6.437   0.457 -0.1493 -0.3215 -0.2679
 4262TIP3    H134421   1.430   6.361   0.452  2.6570  1.1467  4.4687
 4262TIP3    H234422   1.407   6.499   0.393  0.9247 -0.9719 -0.3183
 4263TIP3   OH234423   6.014   0.842   0.344 -0.2229  0.4768 -0.1230
 4263TIP3    H134424   6.047   0.780   0.409  2.4566  0.1685 -1.6383
 4263TIP3    H234425   5.962   0.789   0.284 -0.8404  0.3647  0.5012
 4264TIP3   OH234426   5.105   4.932   0.094  0.2961 -0.2304  0.2164
 4264TIP3    H134427   5.030   4.981   0.128  1.0104  1.8171 -1.0168
 4264TIP3    H234428   5.084   4.917   0.002  0.4343 -1.6391  0.3911
 4265TIP3   OH234429   3.744   0.772   7.972 -0.4089  0.5820 -0.2091
 4265TIP3    H134430   3.819   0.717   7.949 -0.3302  0.9185 -0.7711
 4265TIP3    H234431   3.677   0.750   7.907 -0.6316  0.6345 -0.0022
 4266TIP3   OH234432   4.398   2.924   8.637  0.7565 -0.0889 -0.1427
 4266TIP3    H134433   4.443   2.846   8.671 -1.5199 -0.9645  1.1194
 4266TIP3    H234434   4.379   2.903   8.546  0.2568 -1.0162  0.1581
 4267TIP3   OH234435   2.552   2.688   7.882  0.2270 -0.4402  0.1308
 4267TIP3    H134436   2.528   2.596   7.872 -0.7919 -0.0886 -1.0005
 4267TIP3    H234437   2.567   2.718   7.792 -1.8379  1.0729  0.2114
 4268TIP3   OH234438   5.852   5.003   1.101  0.2917  0.1252  0.0240
 4268TIP3    H134439   5.882   4.913   1.085 -2.1354 -1.0025  1.3125
 4268TIP3    H234440   5.914   5.037   1.165  2.0107 -0.1064 -1.4289
 4269TIP3   OH234441   0.574   3.075   0.773 -0.5675 -0.0441 -0.6169
 4269TIP3    H134442   0.629   2.997   0.763 -0.1348  0.2782 -0.7652
 4269TIP3    H234443   0.495   3.056   0.722  1.2421  1.2502 -4.2270
 4270TIP3   OH234444   1.254   2.170   6.617  0.2007  0.3078 -0.2102
 4270TIP3    H134445   1.256   2.265   6.628 -0.7098  0.5693 -1.9254
 4270TIP3    H234446   1.339   2.148   6.578 -0.7668  0.9274 -2.8775
 4271TIP3   OH234447   0.433   5.028   0.594  0.7338  0.1567 -0.2247
 4271TIP3    H134448   0.425   4.944   0.549 -0.7046  0.9433 -1.5371
 4271TIP3    H234449   0.509   5.018   0.651 -0.2713 -2.5100  0.7763
 4272TIP3   OH234450   3.350   1.890   0.703 -0.0299 -0.5208 -0.2404
 4272TIP3    H134451   3.392   1.805   0.691  0.6711 -0.3254  0.7041
 4272TIP3    H234452   3.402   1.950   0.649 -0.5082 -0.6680 -0.8852
 4273TIP3   OH234453   5.115   3.331   0.215  0.1035  0.7575  0.7762
 4273TIP3    H134454   5.059   3.266   0.258  1.4235 -0.4585  0.7316
 4273TIP3    H234455   5.159   3.376   0.286  0.3907  0.4970  0.7627
 4274TIP3   OH234456   5.505   2.229   2.818  0.3070 -0.0495  0.3078
 4274TIP3    H134457   5.445   2.155   2.820 -0.6126  0.6696  0.3454
 4274TIP3    H234458   5.490   2.274   2.901  0.7079  0.2910  0.2000
 4275TIP3   OH234459   3.095   2.882   7.146  0.1187 -0.4591  0.4213
 4275TIP3    H134460   3.138   2.921   7.222  1.7511  0.2930 -0.8228
 4275TIP3    H234461   3.092   2.953   7.081 -3.3924 -0.3327  0.4999
 4276TIP3   OH234462   0.190   1.914   1.668  0.1921  0.2580  0.1653
 4276TIP3    H134463   0.241   1.896   1.747 -0.4866  1.6583  0.9596
 4276TIP3    H234464   0.099   1.917   1.698 -0.1141  0.3870 -0.7534
 4277TIP3   OH234465   5.301   2.458   1.832 -0.3999 -0.4453 -0.3389
 4277TIP3    H134466   5.356   2.391   1.875 -1.2817 -1.5950 -0.9604
 4277TIP3    H234467   5.212   2.437   1.860 -1.0955 -1.5665 -3.0315
 4278TIP3   OH234468   0.742   5.259   0.367  0.0023  0.6820 -0.3512
 4278TIP3    H134469   0.778   5.172   0.384 -0.2709  0.1338 -2.3275
 4278TIP3    H234470   0.647   5.245   0.361 -0.2945  1.5591  1.6417
 4279TIP3   OH234471   1.582   2.009   2.695  0.0139 -0.4018  0.3732
 4279TIP3    H134472   1.600   1.948   2.624 -0.0473  0.8827 -0.7745
 4279TIP3    H234473   1.668   2.035   2.728  0.0969  0.3425 -0.4131
 4280TIP3   OH234474   3.048   0.269   7.250  0.1894  0.3312  0.0736
 4280TIP3    H134475   3.033   0.361   7.229  1.1321  0.2107 -1.2633
 4280TIP3    H234476   2.999   0.254   7.330 -0.9069  1.7048 -0.3115
 4281TIP3   OH234477   0.986   0.504   2.765 -0.1915  0.1669  0.3290
 4281TIP3    H134478   0.916   0.439   2.755 -1.7303  1.7192  0.5001
 4281TIP3    H234479   0.945   0.575   2.816  2.2495  0.0516  2.6775
 4282TIP3   OH234480   4.591   0.740   1.405  0.0288 -0.0337 -0.2330
 4282TIP3    H134481   4.658   0.780   1.460  0.6357 -0.2315 -0.8193
 4282TIP3    H234482   4.600   0.783   1.320  1.2378 -1.9277 -1.1233
 4283TIP3   OH234483   2.484   1.545   7.160 -0.4278  0.3623  0.0460
 4283TIP3    H134484   2.410   1.495   7.193 -0.9090 -0.0498 -1.5427
 4283TIP3    H234485   2.551   1.480   7.141 -0.8592  0.3155 -1.5118
 4284TIP3   OH234486   2.969   5.742   0.961 -0.6572 -0.5821 -0.2376
 4284TIP3    H134487   2.893   5.800   0.971  1.2533  1.6539  3.6597
 4284TIP3    H234488   3.032   5.794   0.911  0.0138 -0.3745  0.7906
 4285TIP3   OH234489   1.899   1.584   1.970 -0.4718  0.5145  0.4642
 4285TIP3    H134490   1.886   1.557   2.061 -0.7401  1.1810  0.6315
 4285TIP3    H234491   1.991   1.564   1.952  0.0046  1.7481  1.3733
 4286TIP3   OH234492   5.027   3.565   1.618 -0.3199 -0.4089  0.0519
 4286TIP3    H134493   5.113   3.533   1.592 -0.4011 -1.0643  0.5387
 4286TIP3    H234494   4.979   3.485   1.641 -1.0875 -0.0588 -0.3093
 4287TIP3   OH234495   2.300   2.478   1.624  0.5387 -0.1318 -0.4281
 4287TIP3    H134496   2.280   2.421   1.550  0.1992  2.0092 -2.0527
 4287TIP3    H234497   2.215   2.512   1.652  0.7821 -0.0193  0.2013
 4288TIP3   OH234498   3.826   3.431   1.617 -0.2584  0.3938  0.0451
 4288TIP3    H134499   3.801   3.482   1.694 -1.4859  0.7786 -0.5783
 4288TIP3    H234500   3.775   3.350   1.625 -1.2664  0.9053 -0.9084
 4289TIP3   OH234501   2.010   2.826   1.397  0.2167 -0.5095 -0.4256
 4289TIP3    H134502   1.968   2.882   1.462 -1.0168 -2.6714  0.7380
 4289TIP3    H234503   2.102   2.853   1.399 -0.1115  0.6430  0.9330
 4290TIP3   OH234504   4.817   5.283   2.319  0.3360  0.3970  0.3465
 4290TIP3    H134505   4.911   5.299   2.330  0.3287  0.3917  0.4146
 4290TIP3    H234506   4.812   5.200   2.271  0.3960  1.1333 -1.0016
 4291TIP3   OH234507   2.381   6.457   7.234  0.4638 -0.5853 -0.1114
 4291TIP3    H134508   2.381   6.449   7.139  4.3059  1.2999 -0.4668
 4291TIP3    H234509   2.463   6.417   7.261 -0.3588 -0.7356  2.4093
 4292TIP3   OH234510   3.815   4.821   2.687 -0.5567  0.0120 -0.7646
 4292TIP3    H134511   3.887   4.814   2.625  0.5040 -0.3578  0.4685
 4292TIP3    H234512   3.825   4.745   2.745 -1.0308  0.7576  0.3430
 4293TIP3   OH234513   5.708   4.316   0.461 -0.1609  0.2223 -0.1957
 4293TIP3    H134514   5.673   4.384   0.519 -0.7529  0.7344 -1.1143
 4293TIP3    H234515   5.778   4.360   0.413  0.7421 -0.3713  0.5424
 4294TIP3   OH234516   0.812   1.549   8.257  0.5430 -0.4196 -0.0515
 4294TIP3    H134517   0.769   1.553   8.172 -1.7137  1.2812  1.0734
 4294TIP3    H234518   0.897   1.591   8.242 -0.2883  0.9428 -1.2366
 4295TIP3   OH234519   3.744   2.712   1.171  0.4044 -0.5889  0.0621
 4295TIP3    H134520   3.727   2.618   1.169 -0.2460 -0.4670 -0.4362
 4295TIP3    H234521   3.663   2.752   1.203 -0.0155 -0.0732 -1.5033
 4296TIP3   OH234522   4.087   4.891   8.111  0.0656  0.5894 -0.6420
 4296TIP3    H134523   4.150   4.842   8.057 -0.1168  0.1728 -0.4791
 4296TIP3    H234524   4.106   4.983   8.092  0.5415  0.4607 -0.8046
 4297TIP3   OH234525   1.604   6.196   8.366  0.2385  0.5334 -0.3879
 4297TIP3    H134526   1.689   6.219   8.327  1.6968 -1.5344  1.2937
 4297TIP3    H234527   1.626   6.133   8.435 -2.5673  0.9616  1.0461
 4298TIP3   OH234528   5.905   2.803   2.183 -0.4259  0.1797  0.1489
 4298TIP3    H134529   5.906   2.710   2.205  0.8956  0.1627  0.0452
 4298TIP3    H234530   5.935   2.807   2.092 -1.3470  0.6452 -0.1480
 4299TIP3   OH234531   4.873   4.011   1.845 -0.0503  0.2572  0.6392
 4299TIP3    H134532   4.965   3.995   1.866 -0.3656 -2.6871  0.2047
 4299TIP3    H234533   4.825   3.946   1.895 -1.7425  0.4514 -0.6349
 4300TIP3   OH234534   1.425   6.502   7.926  0.7587 -0.0690 -0.2638
 4300TIP3    H134535   1.334   6.519   7.951  1.1125  0.7655  0.4990
 4300TIP3    H234536   1.459   6.447   7.996  0.6024 -1.1419 -1.0037
 4301TIP3   OH234537   0.618   3.582   0.394  0.2222  0.6856  0.1863
 4301TIP3    H134538   0.560   3.606   0.467  0.2876  0.8745  0.1764
 4301TIP3    H234539   0.601   3.648   0.327 -0.0568  0.3379 -0.0886
 4302TIP3   OH234540   2.174   1.487   8.160 -0.1958 -0.9510 -0.0752
 4302TIP3    H134541   2.257   1.455   8.124 -0.1643 -2.1588  0.9963
 4302TIP3    H234542   2.180   1.582   8.152 -0.2445 -1.1105 -3.2837
 4303TIP3   OH234543   3.268   1.659   8.394 -0.7670  0.3329  0.2900
 4303TIP3    H134544   3.183   1.660   8.350  0.1938  1.2112 -1.6416
 4303TIP3    H234545   3.260   1.590   8.459 -2.1396 -1.3158 -1.5215
 4304TIP3   OH234546   1.896   0.445   0.702 -0.2489  0.4393  0.0067
 4304TIP3    H134547   1.837   0.378   0.738 -1.8617  2.4010  1.2236
 4304TIP3    H234548   1.871   0.451   0.610  0.0912 -0.7789 -0.1815
 4305TIP3   OH234549   0.034   5.574   7.646  0.1538 -0.0198 -0.3687
 4305TIP3    H134550   0.096   5.637   7.683 -0.9148  1.2437 -0.6734
 4305TIP3    H234551  -0.009   5.535   7.722  0.0948  0.3689 -0.2007
 4306TIP3   OH234552   2.932   6.694   0.918 -0.3737 -0.5433  0.1412
 4306TIP3    H134553   2.997   6.648   0.972  0.7527  1.1627  0.3346
 4306TIP3    H234554   2.900   6.628   0.858  1.1754 -1.5870  0.3932
 4307TIP3   OH234555   0.666   0.785   7.376 -0.3113 -0.0835 -0.0648
 4307TIP3    H134556   0.667   0.752   7.286 -0.8659  2.2855 -1.0054
 4307TIP3    H234557   0.757   0.810   7.394 -0.6031  1.7350 -0.9252
 4308TIP3   OH234558   4.053   1.126   7.211 -0.3020  0.1610  0.5876
 4308TIP3    H134559   4.015   1.175   7.284 -1.0650  1.5082 -0.6602
 4308TIP3    H234560   4.038   1.182   7.135  0.8032 -1.0365 -0.5508
 4309TIP3   OH234561   0.784   6.342   6.959  0.4632  0.4687 -0.7269
 4309TIP3    H134562   0.724   6.412   6.935  0.0202  0.4542  0.3024
 4309TIP3    H234563   0.768   6.273   6.894 -3.1252 -0.9617  1.4116
 4310TIP3   OH234564   2.254   5.172   1.801  0.0114  0.1081  0.4444
 4310TIP3    H134565   2.219   5.261   1.791  0.1664  0.0001 -1.3800
 4310TIP3    H234566   2.187   5.116   1.762  1.0103 -0.3274 -0.7147
 4311TIP3   OH234567   2.593   6.403   8.413 -0.4705  0.0926 -0.1788
 4311TIP3    H134568   2.543   6.354   8.479 -1.4685 -0.9793 -1.6555
 4311TIP3    H234569   2.533   6.472   8.385 -0.1560  0.3715 -0.1643
 4312TIP3   OH234570   2.636   4.553   1.606  0.1992  0.3024  0.3672
 4312TIP3    H134571   2.589   4.613   1.549 -2.7445 -2.0974 -0.0125
 4312TIP3    H234572   2.625   4.588   1.694 -2.2874 -0.0736  0.2588
 4313TIP3   OH234573   1.088   5.875   7.771 -0.4074 -0.1478 -0.5859
 4313TIP3    H134574   1.156   5.900   7.834 -0.1681  0.1518 -0.9595
 4313TIP3    H234575   1.006   5.901   7.813 -0.3023 -0.6124 -0.0849
 4314TIP3   OH234576   2.480   4.545   8.629 -0.1839 -0.6129  0.1239
 4314TIP3    H134577   2.432   4.490   8.567  0.0172 -0.4904 -0.1433
 4314TIP3    H234578   2.557   4.575   8.580 -1.3000  1.5563 -0.4308
 4315TIP3   OH234579   3.849   2.728   0.655  0.0946 -0.5786 -0.0322
 4315TIP3    H134580   3.825   2.815   0.621  0.9387 -0.8856 -1.5214
 4315TIP3    H234581   3.888   2.745   0.740 -0.0710  0.4649 -0.1472
 4316TIP3   OH234582   2.640   2.840   0.888 -0.0919 -0.4180  0.0404
 4316TIP3    H134583   2.673   2.929   0.872  0.8845 -0.3500  2.1939
 4316TIP3    H234584   2.544   2.850   0.887 -0.0018  0.5357 -0.3292
 4317TIP3   OH234585   5.887   3.519   2.061 -0.1925  0.0805  0.2409
 4317TIP3    H134586   5.870   3.430   2.033 -0.2260  0.7036 -1.9064
 4317TIP3    H234587   5.901   3.513   2.155 -0.9490 -2.0585  0.2564
 4318TIP3   OH234588   2.594   3.616   1.862  0.2156  0.3298 -0.3455
 4318TIP3    H134589   2.560   3.662   1.785 -2.0339  0.9742  0.9466
 4318TIP3    H234590   2.554   3.529   1.857  1.1662 -0.1086 -0.5931
 4319TIP3   OH234591   0.185   2.644   7.928  0.3284 -0.1563 -0.4071
 4319TIP3    H134592   0.107   2.616   7.976  0.2045 -0.5531 -0.8320
 4319TIP3    H234593   0.228   2.562   7.903 -0.1894  0.0089 -1.9149
 4320TIP3   OH234594   3.284   0.428   7.324 -0.8620 -0.2056 -0.4486
 4320TIP3    H134595   3.228   0.356   7.355 -2.5593  0.3990 -1.9519
 4320TIP3    H234596   3.252   0.447   7.235  0.3160  1.6377 -0.5311
 4321TIP3   OH234597   4.159   4.392   8.145 -0.1703 -0.2840 -0.2466
 4321TIP3    H134598   4.224   4.362   8.208  0.6022 -0.0524 -0.9081
 4321TIP3    H234599   4.131   4.313   8.100  1.5920 -0.1365 -1.7348
 4322TIP3   OH234600   1.407   6.525   8.538  0.0449 -0.0055 -0.3693
 4322TIP3    H134601   1.411   6.448   8.595  0.3064  0.3445  0.0884
 4322TIP3    H234602   1.481   6.515   8.478 -0.7400 -0.8281 -1.2524
 4323TIP3   OH234603   3.607   1.901   1.959  0.2965  1.0507  0.4995
 4323TIP3    H134604   3.598   1.935   1.871  0.7109  1.6084  0.6716
 4323TIP3    H234605   3.601   1.806   1.949  1.1359  1.0633 -0.2266
 4324TIP3   OH234606   1.664   5.287   0.224 -0.0243  0.1584 -0.4824
 4324TIP3    H134607   1.593   5.226   0.204 -0.6157  0.9360 -0.8187
 4324TIP3    H234608   1.642   5.322   0.310 -1.1836  1.9245 -1.4424
 4325TIP3   OH234609   1.876   6.109   0.129  0.2591  0.3112 -0.2122
 4325TIP3    H134610   1.928   6.147   0.200 -2.7093  0.9229  1.8717
 4325TIP3    H234611   1.878   6.015   0.146  2.0316  0.1414 -1.2151
 4326TIP3   OH234612   4.031   1.997   2.697 -0.1349 -0.4742 -0.0466
 4326TIP3    H134613   3.949   2.046   2.700 -0.7782 -1.5573  1.3870
 4326TIP3    H234614   4.093   2.051   2.746  0.0518  0.3626 -1.1621
 4327TIP3   OH234615   4.285   1.953   8.476  0.0781  0.6310  0.1126
 4327TIP3    H134616   4.307   1.866   8.442  0.5867  0.6943  0.2712
 4327TIP3    H234617   4.218   1.936   8.542 -1.8103  0.6130 -1.7175
 4328TIP3   OH234618   5.843   1.046   7.923  0.3669  0.4591  0.0143
 4328TIP3    H134619   5.836   1.096   7.842  0.3964 -0.7345 -0.7530
 4328TIP3    H234620   5.757   1.004   7.933 -0.1246  1.7082  1.3814
 4329TIP3   OH234621   0.808   2.979   1.510  0.0712  0.0738 -0.0719
 4329TIP3    H134622   0.856   3.056   1.481  0.8710 -1.0948 -2.0718
 4329TIP3    H234623   0.847   2.957   1.595  0.2036  1.5172  0.2712
 4330TIP3   OH234624   1.781   6.317   7.602  0.4999  0.1140  0.5469
 4330TIP3    H134625   1.807   6.235   7.560 -1.2227 -0.4910  0.5856
 4330TIP3    H234626   1.849   6.380   7.576  1.4486 -1.1314 -0.0961
 4331TIP3   OH234627   5.794   3.910   1.598  0.6468  0.3960 -0.6525
 4331TIP3    H134628   5.781   3.824   1.559 -0.4739  0.2265  0.0435
 4331TIP3    H234629   5.742   3.908   1.678  0.0205  1.9594 -0.9762
 4332TIP3   OH234630   2.017   2.283   2.769  0.1755 -0.1986 -0.1033
 4332TIP3    H134631   2.110   2.264   2.780 -0.0056 -1.4755 -0.6005
 4332TIP3    H234632   1.985   2.298   2.858  0.5138 -1.5390  0.2662
 4333TIP3   OH234633   1.374   4.459   8.641 -0.0902  0.3165 -0.9394
 4333TIP3    H134634   1.370   4.503   8.726  0.7743  2.1815 -1.8218
 4333TIP3    H234635   1.358   4.367   8.662  0.0404  0.7234  1.2259
 4334TIP3   OH234636   1.872   3.864   2.169  0.1453  0.1802  0.1565
 4334TIP3    H134637   1.916   3.861   2.255 -1.1187  1.3923  0.8915
 4334TIP3    H234638   1.819   3.784   2.167  0.7572 -0.2327  0.1731
 4335TIP3   OH234639   3.315   3.193   8.582  0.4573 -0.3441 -0.8179
 4335TIP3    H134640   3.293   3.115   8.633  0.2635  0.4949  0.4258
 4335TIP3    H234641   3.281   3.266   8.634 -0.4444  0.5172 -2.5414
 4336TIP3   OH234642   0.960   1.596   1.686  0.0052  0.6419 -0.4730
 4336TIP3    H134643   0.875   1.638   1.699 -0.6702 -0.3634 -1.4183
 4336TIP3    H234644   0.979   1.553   1.769 -0.3139  1.0504 -0.1878
 4337TIP3   OH234645   4.327   1.548   7.498 -0.2517  0.3984  0.2973
 4337TIP3    H134646   4.335   1.508   7.411 -0.4706  1.0862 -0.0540
 4337TIP3    H234647   4.232   1.553   7.513 -0.2099  0.0711  0.6791
 4338TIP3   OH234648   4.305   0.823   2.543 -0.4202  0.1134 -0.0120
 4338TIP3    H134649   4.245   0.858   2.610 -0.6667  0.5083 -0.4278
 4338TIP3    H234650   4.314   0.895   2.480 -0.8613 -0.5388 -0.8389
 4339TIP3   OH234651   6.163   0.824   7.464 -0.3257  0.0137  0.5567
 4339TIP3    H134652   6.204   0.754   7.413  0.0641 -0.2136  1.1715
 4339TIP3    H234653   6.071   0.821   7.439 -0.1325 -0.0615 -0.1721
 4340TIP3   OH234654   4.832   2.751   8.546 -0.0151 -0.1432  0.6473
 4340TIP3    H134655   4.854   2.844   8.551  1.1220 -0.4273  1.2378
 4340TIP3    H234656   4.893   2.709   8.606 -0.4066 -1.2959  0.2566
 4341TIP3   OH234657   5.139   1.256   7.702 -0.0762 -0.5902 -0.1284
 4341TIP3    H134658   5.099   1.236   7.617 -2.0352  0.4007  0.4756
 4341TIP3    H234659   5.158   1.171   7.741  0.8480 -1.0591 -1.5391
 4342TIP3   OH234660   1.761   3.838   7.816  0.0751  0.0189  0.4414
 4342TIP3    H134661   1.727   3.913   7.767 -0.9000 -0.3760  0.4848
 4342TIP3    H234662   1.746   3.763   7.759  1.4662 -0.1042  0.2081
 4343TIP3   OH234663   3.414   2.679   1.294 -0.1307 -0.4845 -0.2512
 4343TIP3    H134664   3.326   2.707   1.319  0.0685 -0.5629  0.5337
 4343TIP3    H234665   3.472   2.722   1.356  0.3448 -0.8552 -0.4363
 4344TIP3   OH234666   4.286   2.232   7.739 -0.2539  0.4087 -0.3168
 4344TIP3    H134667   4.378   2.219   7.716 -0.3430  0.0512 -0.4903
 4344TIP3    H234668   4.262   2.315   7.698  0.8944  2.2748  2.5570
 4345TIP3   OH234669   3.863   5.543   0.841  0.7399 -0.4847  0.3220
 4345TIP3    H134670   3.926   5.616   0.842 -1.4912  1.5707  0.5364
 4345TIP3    H234671   3.778   5.585   0.850 -0.6093 -3.2484  1.6765
 4346TIP3   OH234672   2.173   4.248   0.691  0.2358 -0.3920 -0.0064
 4346TIP3    H134673   2.097   4.295   0.656 -0.4325 -0.9095  0.7230
 4346TIP3    H234674   2.248   4.297   0.658 -0.4216  0.4698 -0.2661
 4347TIP3   OH234675   0.990   0.530   1.127 -0.5173  0.3374 -0.3136
 4347TIP3    H134676   0.945   0.445   1.130  1.1344 -0.5865  2.4293
 4347TIP3    H234677   1.070   0.513   1.078 -0.4015  0.4338 -0.1589
 4348TIP3   OH234678   0.031   2.656   7.434 -0.0991 -0.6938  0.0631
 4348TIP3    H134679  -0.005   2.745   7.429  1.7172  0.0083 -2.2484
 4348TIP3    H234680   0.113   2.666   7.484  0.2279 -1.0125 -0.4045
 4349TIP3   OH234681   0.812   5.027   7.698 -0.8982 -0.5986 -0.1138
 4349TIP3    H134682   0.842   5.063   7.782  0.0286  1.5632 -1.3052
 4349TIP3    H234683   0.893   5.013   7.648 -1.4192 -2.1632 -0.5684
 4350TIP3   OH234684   2.013   4.159   7.862  0.6524 -0.0308  0.1319
 4350TIP3    H134685   1.993   4.166   7.769 -0.9951 -1.4818  0.3251
 4350TIP3    H234686   1.940   4.203   7.905 -0.3189 -2.1362  0.7770
 4351TIP3   OH234687   6.250   5.077   0.442  0.1742  0.2606 -0.7335
 4351TIP3    H134688   6.211   5.029   0.368  0.1392 -0.2126 -0.4091
 4351TIP3    H234689   6.327   5.119   0.404  0.3174 -0.2124 -0.9758
 4352TIP3   OH234690   6.410   4.120   0.537 -0.2485 -0.2563  0.3963
 4352TIP3    H134691   6.450   4.107   0.451 -0.2246  2.0049  0.0001
 4352TIP3    H234692   6.483   4.137   0.596 -0.4010  0.7401  0.3153
 4353TIP3   OH234693   0.736   4.143   1.824 -0.3042 -0.3515  0.5336
 4353TIP3    H134694   0.742   4.047   1.818 -0.5542 -0.4342  1.5053
 4353TIP3    H234695   0.779   4.165   1.906  1.2965  0.5438 -0.5017
 4354TIP3   OH234696   1.112   1.603   0.717 -0.1528  0.2268 -0.5176
 4354TIP3    H134697   1.123   1.515   0.681 -0.7578 -1.4676  3.0182
 4354TIP3    H234698   1.021   1.626   0.697 -0.5346 -0.7511  0.0416
 4355TIP3   OH234699   2.717   2.382   0.729  0.2158  0.0938  0.2146
 4355TIP3    H134700   2.692   2.384   0.636  0.0462  2.4047  0.2573
 4355TIP3    H234701   2.792   2.324   0.732  0.8322  0.7161 -1.5572
 4356TIP3   OH234702   3.801   3.461   2.159  0.2227 -0.3922 -0.5386
 4356TIP3    H134703   3.843   3.527   2.214  1.9068 -1.0249 -0.9980
 4356TIP3    H234704   3.802   3.382   2.212  0.3859 -0.6118 -0.8649
 4357TIP3   OH234705   3.164   1.850   2.158 -0.0839  0.3656 -0.1636
 4357TIP3    H134706   3.146   1.794   2.233  0.8845 -0.9269 -0.8582
 4357TIP3    H234707   3.250   1.887   2.175  0.1163  0.1133 -0.5979
 4358TIP3   OH234708   4.604   1.603   0.209 -0.5030  1.1772 -0.3266
 4358TIP3    H134709   4.563   1.632   0.291  1.9558  0.4101  1.3029
 4358TIP3    H234710   4.566   1.517   0.192  1.2485 -0.1607  1.9335
 4359TIP3   OH234711   4.637   3.371   8.561 -0.6019 -0.0672  0.3580
 4359TIP3    H134712   4.630   3.345   8.653  1.2731  0.2131  0.6234
 4359TIP3    H234713   4.619   3.291   8.512  0.2794 -0.6970  1.0307
 4360TIP3   OH234714   1.205   6.305   1.412  0.0030 -0.4819 -0.0637
 4360TIP3    H134715   1.250   6.245   1.353  1.2646  0.5303 -0.1882
 4360TIP3    H234716   1.230   6.275   1.500  0.0473 -0.5714 -0.1069
 4361TIP3   OH234717   0.534   5.658   8.586  0.4547  0.3743  0.6908
 4361TIP3    H134718   0.581   5.600   8.646  0.3599 -0.2489  0.1821
 4361TIP3    H234719   0.444   5.625   8.586  0.5176  0.1872 -0.0036
 4362TIP3   OH234720   6.357   4.343   8.203  0.6663 -0.0049  0.5781
 4362TIP3    H134721   6.292   4.401   8.242 -0.4983  0.6513 -2.0837
 4362TIP3    H234722   6.424   4.402   8.169 -1.1466  0.1456 -3.2924
 4363TIP3   OH234723   1.850   2.131   0.233  0.0951  0.7748  0.2559
 4363TIP3    H134724   1.859   2.042   0.197 -0.6018  1.0400 -0.6213
 4363TIP3    H234725   1.804   2.119   0.315 -1.0159  0.4063 -0.3948
 4364TIP3   OH234726   6.662   5.902   1.105 -0.2199  0.1606  0.3302
 4364TIP3    H134727   6.644   5.874   1.194  0.3185  0.2176  0.4641
 4364TIP3    H234728   6.627   5.833   1.049 -0.6825  0.1950  0.5805
 4365TIP3   OH234729   3.223   2.442   0.768  0.4617 -0.0493 -0.2858
 4365TIP3    H134730   3.268   2.364   0.800 -1.1683 -1.1079 -0.4971
 4365TIP3    H234731   3.230   2.504   0.841 -1.4854 -1.7449  1.4598
 4366TIP3   OH234732   2.203   4.470   2.049 -0.3341 -0.1731 -0.4041
 4366TIP3    H134733   2.172   4.440   1.963  0.4685 -0.0298 -0.7598
 4366TIP3    H234734   2.132   4.450   2.109 -1.2953  0.5802 -1.2618
 4367TIP3   OH234735   4.743   4.431   1.293  0.2121 -0.2285 -0.5628
 4367TIP3    H134736   4.748   4.485   1.215 -1.4092  0.8075 -0.0180
 4367TIP3    H234737   4.778   4.486   1.363  1.9352 -1.2553 -0.5709
 4368TIP3   OH234738   5.208   4.074   0.832 -0.0677 -0.0460 -0.1097
 4368TIP3    H134739   5.150   4.084   0.907  0.3299  1.5379  0.0279
 4368TIP3    H234740   5.182   4.144   0.772  0.0964 -0.8446 -1.1369
 4369TIP3   OH234741   3.168   5.805   8.229  0.4996 -0.2744  0.0025
 4369TIP3    H134742   3.243   5.750   8.205  0.6310  0.3911 -1.1651
 4369TIP3    H234743   3.207   5.885   8.264  0.3172 -0.1903  0.0141
 4370TIP3   OH234744   1.853   6.876   1.429  0.5293  0.4657  0.0849
 4370TIP3    H134745   1.909   6.929   1.372  0.0909  2.8275  1.7123
 4370TIP3    H234746   1.887   6.787   1.419  3.0110  1.4216 -0.8453
 4371TIP3   OH234747   2.407   5.629   7.637  0.5686  0.4217 -0.0731
 4371TIP3    H134748   2.334   5.691   7.627 -1.9795 -2.3951 -0.3896
 4371TIP3    H234749   2.447   5.626   7.550  0.7956  1.6192 -0.0342
 4372TIP3   OH234750   1.107   3.715   0.319  0.2469 -0.1842 -0.3338
 4372TIP3    H134751   1.183   3.722   0.262  0.7268  1.8388  0.4377
 4372TIP3    H234752   1.032   3.714   0.260  0.8118 -0.3701 -1.0566
 4373TIP3   OH234753   2.611   0.509   6.837 -0.0055 -0.2594 -0.1914
 4373TIP3    H134754   2.689   0.465   6.803 -0.5368 -0.3168 -1.3800
 4373TIP3    H234755   2.545   0.440   6.843  0.2992 -0.4467  1.8444
 4374TIP3   OH234756   4.119   1.287   7.605  0.0915 -0.4080  0.1279
 4374TIP3    H134757   4.209   1.287   7.637  0.0029 -0.7709  0.3894
 4374TIP3    H234758   4.088   1.198   7.621  0.6050 -1.1543 -2.5721
 4375TIP3   OH234759   5.337   0.254   1.695  0.7263  0.0417 -0.6288
 4375TIP3    H134760   5.370   0.323   1.752 -0.5777  0.6826 -0.5997
 4375TIP3    H234761   5.390   0.177   1.716  0.4642  0.3256  1.2367
 4376TIP3   OH234762   4.582   3.319   0.175 -0.3483  0.1401  0.1250
 4376TIP3    H134763   4.650   3.272   0.222 -1.7030 -1.6743  0.3948
 4376TIP3    H234764   4.530   3.362   0.243 -0.0387  0.7224 -0.0058
 4377TIP3   OH234765   5.296   5.118   6.708 -0.1975 -0.2307  0.5396
 4377TIP3    H134766   5.202   5.136   6.714 -0.1310 -0.0213  0.9429
 4377TIP3    H234767   5.338   5.196   6.744  0.1071 -0.8818  1.6356
 4378TIP3   OH234768   4.729   5.297   0.834  0.6311 -0.1678  0.1790
 4378TIP3    H134769   4.709   5.305   0.928 -0.4391  0.3792 -0.0690
 4378TIP3    H234770   4.737   5.388   0.804  1.0060 -0.3433 -0.2545
 4379TIP3   OH234771   0.619   4.066   0.951 -0.6308 -0.2981 -0.0161
 4379TIP3    H134772   0.609   4.144   0.897 -3.8004  1.5432  2.8187
 4379TIP3    H234773   0.611   3.993   0.890  0.0747  1.5496 -2.4834
 4380TIP3   OH234774   4.760   0.525   8.332  0.4898 -0.1999  0.1649
 4380TIP3    H134775   4.680   0.473   8.326  0.8593 -0.8595  0.9055
 4380TIP3    H234776   4.804   0.509   8.248 -0.4415  0.6732 -0.5164
 4381TIP3   OH234777   3.356   6.585   8.169  0.0847 -0.4550  0.2570
 4381TIP3    H134778   3.393   6.657   8.118  0.1283 -1.1944 -0.7942
 4381TIP3    H234779   3.307   6.628   8.239 -0.7502  0.6247 -0.9358
 4382TIP3   OH234780   5.725   2.656   1.582  0.1232 -0.0843  0.3493
 4382TIP3    H134781   5.688   2.715   1.516 -2.9932 -1.0447  1.0964
 4382TIP3    H234782   5.726   2.708   1.662 -2.0781 -0.7475  0.8757
 4383TIP3   OH234783   1.986   2.787   0.525  0.2625  0.5159 -0.1249
 4383TIP3    H134784   1.975   2.750   0.438 -0.6492 -0.5386  0.4281
 4383TIP3    H234785   2.060   2.739   0.563  0.2672  0.5493 -0.0913
 4384TIP3   OH234786   1.141   4.695   2.216  0.1158 -0.3709  0.3468
 4384TIP3    H134787   1.085   4.687   2.139 -1.3759  0.4302  1.2924
 4384TIP3    H234788   1.110   4.626   2.276  0.1389  0.0598  0.8673
 4385TIP3   OH234789   5.493   3.226   3.032 -0.3492  0.0723 -0.1560
 4385TIP3    H134790   5.550   3.260   2.963 -1.0611  1.6476 -0.0148
 4385TIP3    H234791   5.519   3.275   3.110 -1.1792  0.0522  0.1431
 4386TIP3   OH234792   2.522   4.872   7.989 -0.2031 -0.3164 -0.6606
 4386TIP3    H134793   2.504   4.947   7.933 -0.5230  1.8515  2.1089
 4386TIP3    H234794   2.440   4.823   7.991 -0.6670  0.4370 -0.8526
 4387TIP3   OH234795   4.953   1.142   0.804 -0.9893 -0.3035 -0.3786
 4387TIP3    H134796   4.872   1.193   0.804 -0.8434 -0.0210  0.8798
 4387TIP3    H234797   4.948   1.088   0.726 -0.6657  2.3764 -2.3873
 4388TIP3   OH234798   3.362   4.370   1.592  0.6912  0.2794  0.1194
 4388TIP3    H134799   3.301   4.412   1.531 -1.4862 -1.4192  1.0210
 4388TIP3    H234800   3.429   4.331   1.536 -0.3692  0.1373 -1.0753
 4389TIP3   OH234801   0.973   1.565   1.416 -0.3582 -0.0837 -0.7253
 4389TIP3    H134802   1.008   1.476   1.404 -0.6418 -0.3922  0.6001
 4389TIP3    H234803   0.988   1.585   1.508  0.3328  1.5403 -1.1637
 4390TIP3   OH234804   6.643   6.192   1.480 -0.0691 -0.6975 -0.1743
 4390TIP3    H134805   6.552   6.220   1.488 -0.1325 -0.3247 -1.8922
 4390TIP3    H234806   6.655   6.172   1.388  2.3059  1.8557 -0.5795
 4391TIP3   OH234807   1.114   0.530   8.215  1.0212  0.4170 -0.1955
 4391TIP3    H134808   1.055   0.527   8.139 -0.2853 -0.4177  0.7975
 4391TIP3    H234809   1.175   0.458   8.202  0.0514 -0.4875  0.0855
 4392TIP3   OH234810   4.808   1.152   7.736 -0.7954  0.3306 -0.2864
 4392TIP3    H134811   4.845   1.183   7.819  1.1862 -1.8171 -0.2659
 4392TIP3    H234812   4.807   1.230   7.681  2.6818  0.8796  0.1806
 4393TIP3   OH234813   0.633   2.325   6.749 -0.1578  0.4147  0.2505
 4393TIP3    H134814   0.621   2.276   6.830  2.3912  1.0300  1.0805
 4393TIP3    H234815   0.548   2.320   6.705 -1.0559 -1.5194  2.0549
 4394TIP3   OH234816   1.209   3.157   8.559 -0.0028  0.7499 -0.5911
 4394TIP3    H134817   1.291   3.160   8.509  0.6574  0.7148  0.4583
 4394TIP3    H234818   1.167   3.241   8.541  1.7254  2.1012  1.1838
 4395TIP3   OH234819   2.307   6.500   1.763 -0.0536  0.5346 -0.0024
 4395TIP3    H134820   2.282   6.461   1.846 -0.4767  1.4676  0.3228
 4395TIP3    H234821   2.299   6.428   1.699 -0.5417  0.0249  0.6180
 4396TIP3   OH234822   2.997   3.691   8.306  0.0181  0.8463 -0.4360
 4396TIP3    H134823   3.014   3.602   8.336  2.4182  1.0297 -1.0065
 4396TIP3    H234824   2.973   3.681   8.214 -0.5782  0.7281 -0.2668
 4397TIP3   OH234825   1.328   4.764   8.336 -0.2032 -0.3620  0.1032
 4397TIP3    H134826   1.406   4.712   8.354 -0.0927 -0.2536 -0.0581
 4397TIP3    H234827   1.266   4.738   8.404  0.7134  1.1103  1.5946
 4398TIP3   OH234828   1.527   1.729   0.363 -0.2182  0.0276 -0.0831
 4398TIP3    H134829   1.468   1.742   0.438  0.0884 -0.7377  0.2969
 4398TIP3    H234830   1.584   1.805   0.364 -0.3656  0.1360  0.3252
 4399TIP3   OH234831   2.639   0.093   2.156 -0.2810  0.6021  0.1686
 4399TIP3    H134832   2.551   0.109   2.122 -0.1602 -0.3247 -0.6308
 4399TIP3    H234833   2.647   0.153   2.229 -1.4921  0.8796  0.1062
 4400TIP3   OH234834   6.476   3.660   8.578  0.0912 -0.0543 -0.6394
 4400TIP3    H134835   6.418   3.588   8.602 -0.0138  0.0203 -0.6666
 4400TIP3    H234836   6.441   3.692   8.495 -1.1219  1.3456  0.3504
 4401TIP3   OH234837   5.080   5.378   2.295  0.1819 -0.0549 -0.1043
 4401TIP3    H134838   5.138   5.359   2.222  0.8098 -0.1753  0.4131
 4401TIP3    H234839   5.053   5.469   2.282 -0.2085 -0.2689 -0.8153
 4402TIP3   OH234840   5.720   6.441   2.573  0.9839 -0.4544  0.5906
 4402TIP3    H134841   5.773   6.361   2.578  0.3555 -0.9256 -0.1207
 4402TIP3    H234842   5.630   6.410   2.561  0.8675  0.3495 -0.8316
 4403TIP3   OH234843   3.001   6.288   2.686 -0.4643 -0.3300  0.1264
 4403TIP3    H134844   2.924   6.308   2.632  0.3302  1.2408 -0.4828
 4403TIP3    H234845   3.074   6.327   2.638  0.4333  0.0906  1.7741
 4404TIP3   OH234846   5.816   6.832   8.059 -0.1416 -0.1899  0.1755
 4404TIP3    H134847   5.772   6.747   8.069 -1.5044  0.0989 -2.4200
 4404TIP3    H234848   5.781   6.886   8.130 -2.6634 -0.5612 -0.6811
 4405TIP3   OH234849   6.535   6.684   0.634  0.0863  0.1355 -0.2170
 4405TIP3    H134850   6.453   6.697   0.586 -0.0473 -2.8882 -0.9695
 4405TIP3    H234851   6.601   6.668   0.566  0.6495 -0.5708  0.4810
 4406TIP3   OH234852   4.736   3.274   1.345  0.1658  0.3654  0.0174
 4406TIP3    H134853   4.714   3.360   1.381 -0.1580  0.4732 -0.4235
 4406TIP3    H234854   4.775   3.294   1.260 -0.0319  0.0739 -0.1434
 4407TIP3   OH234855   6.647   2.905   1.023 -0.2479  0.1282 -0.8314
 4407TIP3    H134856   6.585   2.977   1.011 -0.4883 -0.0053 -0.4096
 4407TIP3    H234857   6.733   2.945   1.010 -0.2550  0.9063  1.0863
 4408TIP3   OH234858   2.288   0.367   1.957 -0.7411 -0.1101  0.0765
 4408TIP3    H134859   2.362   0.425   1.975 -0.9529  0.2285 -0.1231
 4408TIP3    H234860   2.240   0.412   1.887  0.7623 -1.9952 -2.3256
 4409TIP3   OH234861   2.938   2.359   7.338  0.7285 -0.2824  0.0857
 4409TIP3    H134862   2.909   2.320   7.421 -0.7681 -1.1275 -0.7887
 4409TIP3    H234863   2.920   2.452   7.348 -1.1460 -0.5987  0.1012
 4410TIP3   OH234864   2.941   1.858   6.702  0.1456 -0.3024  0.7359
 4410TIP3    H134865   2.983   1.773   6.718  0.8015  0.0715  1.0387
 4410TIP3    H234866   3.010   1.912   6.664 -0.2399  0.1284  0.6468
 4411TIP3   OH234867   1.027   6.589   1.770 -0.0273  0.3160 -0.4062
 4411TIP3    H134868   1.099   6.622   1.717  0.4472 -1.0665 -0.6746
 4411TIP3    H234869   0.988   6.667   1.810 -0.5855  1.4789 -2.9884
 4412TIP3   OH234870   2.920   1.156   8.268 -0.4790  0.4400  0.5382
 4412TIP3    H134871   2.883   1.132   8.353 -2.1775  0.7794 -0.0788
 4412TIP3    H234872   2.974   1.080   8.244 -3.3984 -1.6203 -0.0206
 4413TIP3   OH234873   3.694   2.309   7.180  0.7396 -0.0829 -0.1161
 4413TIP3    H134874   3.755   2.369   7.137  1.3109 -0.5178  0.0782
 4413TIP3    H234875   3.745   2.230   7.196  0.1001 -0.4881 -0.0237
 4414TIP3   OH234876   5.911   5.852   1.688  0.1349  0.4329 -0.7394
 4414TIP3    H134877   5.915   5.942   1.720  0.2082 -0.3488  1.6336
 4414TIP3    H234878   5.998   5.836   1.652  0.2832  1.1572 -0.7283
 4415TIP3   OH234879   5.994   1.718   1.467  0.8264  0.5751  0.2998
 4415TIP3    H134880   6.086   1.728   1.491  0.9948  0.3555 -0.2382
 4415TIP3    H234881   5.966   1.640   1.516  1.5782 -0.7703 -1.3087
 4416TIP3   OH234882   5.051   5.063   1.545 -0.3656 -0.0190  0.7051
 4416TIP3    H134883   4.965   5.024   1.533 -0.5543  0.5940 -0.0550
 4416TIP3    H234884   5.105   5.023   1.477 -0.9141  1.9897 -1.0227
 4417TIP3   OH234885   3.554   5.452   0.870 -0.0007  0.3293 -0.6446
 4417TIP3    H134886   3.598   5.490   0.946 -0.2912 -0.4192 -0.0970
 4417TIP3    H234887   3.498   5.384   0.906  0.2826 -0.4228 -1.5855
 4418TIP3   OH234888   2.199   2.480   1.236  0.4958 -0.3539  0.5466
 4418TIP3    H134889   2.143   2.540   1.286 -0.2922 -2.0134  1.7580
 4418TIP3    H234890   2.210   2.405   1.294  0.9802 -1.6351 -1.1442
 4419TIP3   OH234891   3.200   6.747   2.582 -0.0760  0.3690 -0.0036
 4419TIP3    H134892   3.212   6.833   2.622  0.9190 -0.6943  2.1297
 4419TIP3    H234893   3.284   6.704   2.591  0.2445 -0.0037 -3.3716
 4420TIP3   OH234894   5.446   1.559   2.324  0.0508  0.3654  0.0344
 4420TIP3    H134895   5.477   1.495   2.260 -0.2763 -1.3719  1.5483
 4420TIP3    H234896   5.358   1.529   2.347  0.0660  1.1043  1.1073
 4421TIP3   OH234897   0.897   4.495   8.596 -0.5665 -0.2859  0.2527
 4421TIP3    H134898   0.848   4.418   8.625 -1.3427  0.1211  0.0609
 4421TIP3    H234899   0.968   4.504   8.659 -2.5912  0.9772  2.5232
 4422TIP3   OH234900   0.813   5.839   2.098 -0.1244  0.3097 -0.1533
 4422TIP3    H134901   0.752   5.766   2.107  1.2384 -0.7287  0.9272
 4422TIP3    H234902   0.830   5.868   2.188  3.1305 -1.2852 -0.1174
 4423TIP3   OH234903   4.218   6.704   1.404 -0.8279 -0.0170 -0.1589
 4423TIP3    H134904   4.264   6.764   1.462  0.2164  0.0033 -0.9791
 4423TIP3    H234905   4.214   6.750   1.320  0.6660 -1.3581 -1.0185
 4424TIP3   OH234906   6.435   5.482   2.767 -0.2333  0.2375 -0.8827
 4424TIP3    H134907   6.438   5.547   2.697 -0.9329  1.9031  0.5716
 4424TIP3    H234908   6.344   5.453   2.769 -0.2210  0.2107 -0.6537
 4425TIP3   OH234909   4.217   2.385   7.025  0.3853  0.2038  0.1628
 4425TIP3    H134910   4.287   2.323   7.046  0.4096 -0.1183 -0.8239
 4425TIP3    H234911   4.160   2.338   6.964 -0.6810  0.4834  0.9105
 4426TIP3   OH234912   6.880   1.481   8.276 -0.5386  0.0013 -0.4906
 4426TIP3    H134913   6.892   1.450   8.187 -0.8753 -0.4743 -0.3724
 4426TIP3    H234914   6.800   1.534   8.273  1.0533  2.5502 -1.1181
 4427TIP3   OH234915   6.383   3.267   8.043 -0.9362 -0.5060  0.5721
 4427TIP3    H134916   6.475   3.258   8.019 -0.8265 -1.7713  1.3805
 4427TIP3    H234917   6.365   3.361   8.036 -0.1897 -0.4733 -1.6690
 4428TIP3   OH234918   0.286   1.148   8.428 -0.2461  0.3578 -0.6015
 4428TIP3    H134919   0.320   1.071   8.382 -1.1884  0.0387 -0.7891
 4428TIP3    H234920   0.350   1.216   8.411  2.3977 -1.1775  2.2865
 4429TIP3   OH234921   5.551   1.209   8.220  0.0112 -0.1123  0.4913
 4429TIP3    H134922   5.531   1.139   8.281 -1.3596 -0.6366 -0.5052
 4429TIP3    H234923   5.487   1.199   8.149  1.8861  0.1034 -1.3411
 4430TIP3   OH234924   2.889   6.595   0.222  0.5738 -0.2090 -0.4555
 4430TIP3    H134925   2.846   6.675   0.190 -1.2062 -0.7452  0.5073
 4430TIP3    H234926   2.891   6.538   0.145  2.1689  0.8243 -1.2508
 4431TIP3   OH234927   0.764   1.470   0.401  0.3613  0.7472 -0.1410
 4431TIP3    H134928   0.810   1.401   0.354  1.4461  0.8415  0.7415
 4431TIP3    H234929   0.674   1.439   0.407  0.7344 -0.3723 -0.1712
 4432TIP3   OH234930   3.717   5.520   0.589  0.2497  0.3476  0.2081
 4432TIP3    H134931   3.699   5.504   0.681 -0.7363 -1.2253 -0.2086
 4432TIP3    H234932   3.647   5.579   0.561 -1.4271 -1.7050 -0.2140
 4433TIP3   OH234933   3.214   4.029   8.347 -0.1375 -0.2310  0.0497
 4433TIP3    H134934   3.118   4.027   8.344 -0.1421  0.4806 -0.6535
 4433TIP3    H234935   3.240   4.061   8.261  0.6073  2.7746  1.2665
 4434TIP3   OH234936   2.510   0.790   6.965  0.3089  0.6082 -0.4591
 4434TIP3    H134937   2.431   0.837   6.939 -1.2477 -2.5021 -1.8497
 4434TIP3    H234938   2.562   0.784   6.885  0.0675 -0.6848 -0.5432
 4435TIP3   OH234939   4.551   5.161   7.682 -0.4524 -0.1126  0.8769
 4435TIP3    H134940   4.512   5.245   7.657 -0.6204 -0.2707  0.6090
 4435TIP3    H234941   4.645   5.179   7.687 -0.0549 -0.7099 -2.5266
 4436TIP3   OH234942   0.017   0.053   8.041  0.6111 -0.6031 -0.3197
 4436TIP3    H134943   0.009   0.148   8.029  0.7791 -0.4742  0.5263
 4436TIP3    H234944   0.103   0.032   8.007  0.8967 -0.3189  0.2059
 4437TIP3   OH234945   5.218   5.771   6.812 -0.1723 -0.2302 -0.4427
 4437TIP3    H134946   5.231   5.833   6.741  1.1819 -0.2143 -0.1963
 4437TIP3    H234947   5.260   5.690   6.781 -0.5764 -0.5659 -0.1271
 4438TIP3   OH234948   5.020   3.423   7.476  0.3399 -0.5233  0.2009
 4438TIP3    H134949   4.972   3.490   7.524 -0.1300  1.2706 -2.5359
 4438TIP3    H234950   5.000   3.441   7.384  4.8011 -0.7941 -1.0385
 4439TIP3   OH234951   4.489   4.496   7.868  0.3485  0.3726  0.1550
 4439TIP3    H134952   4.415   4.453   7.824 -0.3009  2.3087 -0.7808
 4439TIP3    H234953   4.494   4.453   7.954 -1.9471  0.2480  0.3004
 4440TIP3   OH234954   4.343   4.316   7.156 -0.0521 -0.6499  0.4908
 4440TIP3    H134955   4.340   4.232   7.111 -1.7773  0.9484 -2.7344
 4440TIP3    H234956   4.293   4.375   7.100  1.1524  2.5946  2.5352
 4441TIP3   OH234957   0.397   6.071   7.655  0.2801 -0.4702  0.5691
 4441TIP3    H134958   0.452   6.148   7.673  0.3788 -0.2548 -0.5811
 4441TIP3    H234959   0.324   6.105   7.604  0.1682 -1.0877  0.3053
 4442TIP3   OH234960   1.404   2.059   7.133 -0.0349  0.1394  0.4493
 4442TIP3    H134961   1.447   1.979   7.162 -0.4641  0.0655  0.8938
 4442TIP3    H234962   1.407   2.056   7.038 -2.8225 -1.9530  0.2993
 4443TIP3   OH234963   0.517   4.699   1.057  0.3254  0.3638  0.5057
 4443TIP3    H134964   0.466   4.733   1.130 -0.6745  0.0252 -0.0280
 4443TIP3    H234965   0.596   4.754   1.056  1.2369 -0.7165  2.9377
 4444TIP3   OH234966   4.991   6.846   1.109 -0.4313  0.0669  0.1061
 4444TIP3    H134967   5.066   6.804   1.066  0.2609  1.6352 -0.2875
 4444TIP3    H234968   5.030   6.895   1.182 -1.1323  0.4514  0.2289
 4445TIP3   OH234969   4.946   4.487   7.104 -0.3238  0.1492  0.2400
 4445TIP3    H134970   5.016   4.421   7.106 -1.5166 -1.1570  1.8380
 4445TIP3    H234971   4.960   4.537   7.185  0.1227  1.4228 -0.5960
 4446TIP3   OH234972   0.653   6.309   1.604 -0.2844 -0.2592 -0.0216
 4446TIP3    H134973   0.731   6.255   1.608 -0.0867  0.0324  0.0915
 4446TIP3    H234974   0.585   6.255   1.645 -0.0823 -0.4087  0.1226
 4447TIP3   OH234975   3.138   2.944   1.826  0.2305  0.4910 -0.4805
 4447TIP3    H134976   3.126   2.907   1.738 -1.0255 -1.1994  0.3455
 4447TIP3    H234977   3.050   2.966   1.854  0.7321  1.9589 -0.0035
 4448TIP3   OH234978   0.522   1.929   7.190  0.2148 -0.1042 -0.2613
 4448TIP3    H134979   0.612   1.946   7.160  0.4778 -1.8345 -0.6034
 4448TIP3    H234980   0.533   1.870   7.265 -0.5946  1.1131  0.8404
 4449TIP3   OH234981   0.509   4.036   2.250  0.1073 -0.1050 -0.1628
 4449TIP3    H134982   0.604   4.048   2.244  0.2441 -0.0904  1.6939
 4449TIP3    H234983   0.497   3.968   2.316 -1.1634 -0.7998 -1.0598
 4450TIP3   OH234984   0.371   5.196   6.937 -1.0345 -0.0446  0.3187
 4450TIP3    H134985   0.300   5.157   6.887 -0.7825 -1.7127  1.2051
 4450TIP3    H234986   0.387   5.280   6.894 -3.5728  0.4292  0.1619
 4451TIP3   OH234987   4.544   0.699   0.771 -0.2887  0.4843 -0.8843
 4451TIP3    H134988   4.502   0.623   0.813  1.1660  0.0081 -0.2152
 4451TIP3    H234989   4.495   0.711   0.690 -0.2859 -1.4722 -1.2319
 4452TIP3   OH234990   6.367   2.222   7.622 -0.1941 -0.0785 -1.0759
 4452TIP3    H134991   6.403   2.270   7.697  0.2236 -1.0301 -0.6519
 4452TIP3    H234992   6.306   2.284   7.581  0.6503  0.9641 -0.8028
 4453TIP3   OH234993   2.014   1.823   1.818 -0.2388  0.0172 -0.1111
 4453TIP3    H134994   2.005   1.747   1.875 -0.0729 -1.2788 -1.7468
 4453TIP3    H234995   2.108   1.842   1.818 -0.0025 -1.0366 -1.2218
 4454TIP3   OH234996   2.479   1.275   2.173 -0.4904  0.7180 -0.3790
 4454TIP3    H134997   2.423   1.284   2.250  0.9183  2.6253  0.5127
 4454TIP3    H234998   2.421   1.289   2.098 -2.3168 -3.1447  0.0769
 4455TIP3   OH234999   2.643   3.571   2.236  0.1824 -0.0775 -0.4543
 4455TIP3    H135000   2.630   3.586   2.330  2.0483  0.9278 -0.3081
 4455TIP3    H235001   2.653   3.476   2.229 -1.6233 -0.3500  0.0920
 4456TIP3   OH235002   4.491   3.747   0.879 -0.3496 -0.3869  0.2939
 4456TIP3    H135003   4.467   3.839   0.889 -1.6043 -0.4877 -1.3819
 4456TIP3    H235004   4.529   3.741   0.792  0.2919 -1.3703  0.6213
 4457TIP3   OH235005   0.356   1.414   8.080 -0.5827  0.1408 -0.2631
 4457TIP3    H135006   0.431   1.363   8.111 -1.4780 -1.2642 -0.2832
 4457TIP3    H235007   0.335   1.375   7.994 -3.1358 -1.5814  1.0037
 4458TIP3   OH235008   3.857   5.627   2.830 -0.5308  0.1242 -0.6585
 4458TIP3    H135009   3.867   5.536   2.803  0.8891  0.1393 -0.2305
 4458TIP3    H235010   3.808   5.668   2.758 -3.3015 -1.4574  0.2038
 4459TIP3   OH235011   4.735   1.341   1.729  0.5325  0.4603  0.1166
 4459TIP3    H135012   4.644   1.371   1.729  0.3268 -0.1269  1.4812
 4459TIP3    H235013   4.730   1.249   1.755  1.4932  0.2918 -0.2476
 4460TIP3   OH235014   4.092   1.980   0.769 -0.1261 -0.2128 -0.2686
 4460TIP3    H135015   4.187   1.992   0.768  0.0225 -1.2864 -0.4519
 4460TIP3    H235016   4.069   1.979   0.862 -0.1163  1.1195 -0.2410
 4461TIP3   OH235017   1.740   4.700   7.205 -0.2353  0.7031 -0.1034
 4461TIP3    H135018   1.650   4.731   7.213 -0.1606  1.2537 -1.1382
 4461TIP3    H235019   1.732   4.605   7.194 -0.5382  0.4462  1.9566
 4462TIP3   OH235020   0.681   5.429   7.384  0.2876 -0.0539 -0.0850
 4462TIP3    H135021   0.743   5.500   7.367 -0.4978  0.5578 -0.4623
 4462TIP3    H235022   0.623   5.464   7.451 -0.9963  0.2191 -1.3036
 4463TIP3   OH235023   5.839   2.861   8.186  0.4986  0.3006  0.2554
 4463TIP3    H135024   5.863   2.834   8.274 -1.1717 -0.5126  0.4943
 4463TIP3    H235025   5.764   2.919   8.198 -1.0155 -1.3823 -0.7032
 4464TIP3   OH235026   1.545   1.094   2.742  0.0250 -0.4754  0.3539
 4464TIP3    H135027   1.637   1.088   2.769  0.4214 -1.9318 -1.1189
 4464TIP3    H235028   1.546   1.147   2.662 -0.6891  1.0769  1.3455
 4465TIP3   OH235029   4.109   3.904   0.402  0.0660 -0.0644 -0.8118
 4465TIP3    H135030   4.092   3.870   0.314 -0.1592 -1.4936 -0.2317
 4465TIP3    H235031   4.028   3.947   0.427 -1.5946 -3.6017  0.4474
 4466TIP3   OH235032   2.015   2.971   6.965  0.1149 -0.2398  0.1799
 4466TIP3    H135033   1.920   2.969   6.955  0.3387 -2.0730 -2.7797
 4466TIP3    H235034   2.044   2.886   6.932  2.8175  0.2668  1.0039
 4467TIP3   OH235035   3.918   1.742   0.472 -0.0304  0.1783  0.0387
 4467TIP3    H135036   4.009   1.747   0.443 -0.5871  2.8517 -1.5390
 4467TIP3    H235037   3.886   1.659   0.436  1.5423 -0.4311 -0.0262
 4468TIP3   OH235038   4.092   4.550   1.068 -0.3732  0.6716 -1.0746
 4468TIP3    H135039   4.110   4.636   1.105  0.0470  1.1358 -2.3069
 4468TIP3    H235040   4.084   4.566   0.974 -3.1768 -0.1657 -1.0744
 4469TIP3   OH235041   1.219   1.776   2.504  0.3920  0.4350  0.6937
 4469TIP3    H135042   1.283   1.707   2.524  0.7345  0.4326 -0.3715
 4469TIP3    H235043   1.140   1.750   2.551 -0.3193 -2.0702 -1.6506
 4470TIP3   OH235044   4.291   1.040   1.629  0.4967 -0.0102  0.5016
 4470TIP3    H135045   4.321   1.131   1.642  0.4523  0.0030  0.5113
 4470TIP3    H235046   4.368   0.995   1.595  0.3008  0.2064 -0.2420
 4471TIP3   OH235047   0.291   3.562   8.062  0.3444 -0.0156  0.0924
 4471TIP3    H135048   0.224   3.623   8.031  0.2301 -0.0468  0.2721
 4471TIP3    H235049   0.366   3.617   8.085 -0.2055  0.1907  1.4578
 4472TIP3   OH235050   0.943   5.228   7.533  0.5515 -0.0002  0.2534
 4472TIP3    H135051   1.032   5.199   7.553  0.0150 -1.6718  0.3333
 4472TIP3    H235052   0.931   5.209   7.441  0.9766  2.2484 -0.3334
 4473TIP3   OH235053   6.688   1.319   7.860  0.0529  0.2871  0.2813
 4473TIP3    H135054   6.635   1.396   7.882  0.2376  0.0638  1.5819
 4473TIP3    H235055   6.632   1.245   7.884  0.5609  0.0428  0.7243
 4474TIP3   OH235056   2.701   5.295   8.202 -0.0526 -0.5821 -0.6611
 4474TIP3    H135057   2.691   5.237   8.277 -1.1329 -0.2358 -0.5125
 4474TIP3    H235058   2.794   5.319   8.203 -0.0583 -0.4991  0.6337
 4475TIP3   OH235059   5.438   6.408   2.340  0.2439  0.3718 -0.4117
 4475TIP3    H135060   5.391   6.387   2.421  1.0863 -3.1261 -0.6382
 4475TIP3    H235061   5.428   6.502   2.330  0.1180  1.0162  3.7737
 4476TIP3   OH235062   1.888   2.216   1.542  0.8564 -0.4704 -0.6423
 4476TIP3    H135063   1.816   2.183   1.596  1.3261  0.1083  0.3649
 4476TIP3    H235064   1.853   2.295   1.501  1.1681  0.2996  0.5277
 4477TIP3   OH235065   3.292   0.163   6.547 -0.0740 -0.1985  0.1005
 4477TIP3    H135066   3.360   0.228   6.565 -0.2754 -0.8419  4.0163
 4477TIP3    H235067   3.211   0.203   6.579 -1.1681 -0.4473 -2.1795
 4478TIP3   OH235068   3.379   6.286   0.445  0.1462  0.5070  0.1753
 4478TIP3    H135069   3.428   6.249   0.372 -0.6033  0.6258 -0.4006
 4478TIP3    H235070   3.405   6.234   0.520  1.2582  0.6612 -0.0882
 4479TIP3   OH235071   6.254   3.216   8.569 -0.6554 -0.5889 -0.2064
 4479TIP3    H135072   6.348   3.201   8.575 -0.3751  0.6641 -1.1225
 4479TIP3    H235073   6.224   3.154   8.501 -0.7887 -2.0685  1.1449
 4480TIP3   OH235074   5.853   5.608   7.375 -0.1044 -0.6993 -0.0445
 4480TIP3    H135075   5.842   5.525   7.328 -0.5577 -0.8593  0.3335
 4480TIP3    H235076   5.839   5.675   7.308  2.4814 -0.8768 -0.8842
 4481TIP3   OH235077   4.523   1.947   7.063  0.1618 -0.1974  0.0778
 4481TIP3    H135078   4.592   1.925   7.125  0.7928  1.3317 -0.0441
 4481TIP3    H235079   4.546   1.898   6.983  0.1683 -0.9877  0.5516
 4482TIP3   OH235080   5.953   2.906   1.263 -0.1236 -0.2319 -0.1909
 4482TIP3    H135081   6.002   2.844   1.208  1.9059  1.5188 -0.5070
 4482TIP3    H235082   6.009   2.983   1.267 -1.9739  1.1271  1.2369
 4483TIP3   OH235083   1.418   5.199   8.471 -0.1170  0.4130  0.3018
 4483TIP3    H135084   1.484   5.233   8.410 -0.1688  2.5751  1.3510
 4483TIP3    H235085   1.470   5.159   8.542 -0.0044  0.2240  0.1163
 4484TIP3   OH235086   5.362   4.697   0.994 -0.0901  0.4491  0.7497
 4484TIP3    H135087   5.404   4.781   0.973 -0.3307  0.2376 -0.7110
 4484TIP3    H235088   5.430   4.632   0.977 -0.0228  0.3147  1.5158
 4485TIP3   OH235089   1.056   6.248   8.539  0.2110 -0.4090 -0.4099
 4485TIP3    H135090   1.078   6.331   8.496  0.7514 -1.1046 -1.5285
 4485TIP3    H235091   1.096   6.254   8.626 -0.7436  0.9569 -0.0306
 4486TIP3   OH235092   6.117   5.180   7.390 -0.1509  0.0735 -0.5099
 4486TIP3    H135093   6.207   5.196   7.418  0.3956 -0.8808 -1.6353
 4486TIP3    H235094   6.094   5.257   7.337  0.2342  0.0400 -0.7302
 4487TIP3   OH235095   0.580   6.424   1.048 -0.1217 -0.0044  0.2651
 4487TIP3    H135096   0.493   6.435   1.085 -0.0266 -1.8810  1.1390
 4487TIP3    H235097   0.612   6.513   1.035 -1.3107  0.7260  1.9830
 4488TIP3   OH235098   1.394   5.864   0.247 -0.0123  0.2173  1.2151
 4488TIP3    H135099   1.300   5.881   0.238  0.1404  0.8163  0.6432
 4488TIP3    H235100   1.414   5.887   0.338 -0.1004  1.8436  0.8636
 4489TIP3   OH235101   1.244   3.075   1.861  0.0952  0.0175 -0.5054
 4489TIP3    H135102   1.266   3.057   1.769 -1.8490 -2.1664 -0.6422
 4489TIP3    H235103   1.211   3.165   1.860  0.6264  0.2259 -1.8360
 4490TIP3   OH235104   0.493   5.235   8.188  0.7347 -0.4188 -0.4471
 4490TIP3    H135105   0.411   5.235   8.237  0.1829 -0.8409 -1.3404
 4490TIP3    H235106   0.500   5.324   8.153 -0.1125 -0.7789 -1.5858
 4491TIP3   OH235107   3.426   4.155   7.103  0.0095  0.0441  0.1402
 4491TIP3    H135108   3.435   4.063   7.128 -1.3470 -0.0052  0.4883
 4491TIP3    H235109   3.332   4.172   7.103 -0.0070  0.5563 -3.1262
 4492TIP3   OH235110   2.609   0.974   2.280  0.4300  1.0738  0.0341
 4492TIP3    H135111   2.692   0.983   2.328  1.3219  0.6024 -1.3373
 4492TIP3    H235112   2.622   1.029   2.202 -0.0822  0.0535 -0.7859
 4493TIP3   OH235113   0.535   1.983   1.661  0.5102  0.2676 -0.0046
 4493TIP3    H135114   0.482   1.969   1.583 -0.5330  0.3885  0.6730
 4493TIP3    H235115   0.477   1.965   1.735  1.5118  0.0289  0.7576
 4494TIP3   OH235116   1.649   5.758   0.174 -0.1533  0.1097  0.0271
 4494TIP3    H135117   1.568   5.787   0.214 -0.1169  0.4918 -0.1757
 4494TIP3    H235118   1.628   5.672   0.138 -0.1344 -0.3262  1.0169
 4495TIP3   OH235119   5.683   0.589   1.780 -0.0383  0.0819 -0.4006
 4495TIP3    H135120   5.753   0.654   1.767 -0.2001  0.0851 -1.3053
 4495TIP3    H235121   5.703   0.520   1.717 -0.4793 -0.2431 -0.1881
 4496TIP3   OH235122   6.114   5.482   0.988 -0.0905 -0.0297  0.5142
 4496TIP3    H135123   6.121   5.441   1.074 -2.0600  0.7194  1.0754
 4496TIP3    H235124   6.198   5.526   0.976  0.4185 -0.5990  1.7984
 4497TIP3   OH235125   6.521   4.367   6.893 -0.3628 -0.5318 -0.2368
 4497TIP3    H135126   6.611   4.340   6.877 -0.4845 -1.2767  0.2501
 4497TIP3    H235127   6.506   4.440   6.834  0.7785  0.0454  0.1755
 4498TIP3   OH235128   3.721   4.056   2.018  0.1822 -0.0818  0.1664
 4498TIP3    H135129   3.661   4.125   2.044 -0.8827 -0.6742 -0.6667
 4498TIP3    H235130   3.782   4.098   1.958  0.2650  0.3900  0.5735
 4499TIP3   OH235131   5.170   6.051   1.169  0.1288  0.0683 -0.2925
 4499TIP3    H135132   5.174   5.977   1.109 -1.6216 -1.9581  1.8874
 4499TIP3    H235133   5.254   6.049   1.215  0.6715  0.3836 -1.2502
 4500TIP3   OH235134   2.959   5.882   2.141 -0.5062  0.3752 -0.4827
 4500TIP3    H135135   2.942   5.967   2.100  1.2768  1.7390  1.4129
 4500TIP3    H235136   3.002   5.903   2.223  0.2646 -2.4036 -0.0675
 4501TIP3   OH235137   5.232   0.477   8.039  0.4612  0.4101 -0.2079
 4501TIP3    H135138   5.249   0.389   8.006  1.4253  0.8491 -0.9226
 4501TIP3    H235139   5.165   0.512   7.980  0.1612  0.2075  0.0069
 4502TIP3   OH235140   1.326   3.304   0.808 -0.4350 -0.6642  0.0930
 4502TIP3    H135141   1.290   3.223   0.771 -0.2680 -1.2859  1.2401
 4502TIP3    H235142   1.392   3.274   0.870  0.4185  0.4019 -0.2697
 4503TIP3   OH235143   2.932   1.933   1.182 -0.0769  0.0381  0.1954
 4503TIP3    H135144   2.940   1.989   1.259  0.2323  1.4567 -0.8321
 4503TIP3    H235145   2.954   1.990   1.109 -1.4927 -0.9542 -1.0626
 4504TIP3   OH235146   1.506   2.469   6.737 -0.1027 -0.3548 -0.0554
 4504TIP3    H135147   1.427   2.473   6.682 -0.0055 -0.4702 -0.2046
 4504TIP3    H235148   1.576   2.501   6.681  0.0999 -1.0109 -0.1894
 4505TIP3   OH235149   6.197   6.417   7.173 -0.3042  0.1578 -0.5696
 4505TIP3    H135150   6.132   6.469   7.222 -1.2523 -0.0136 -1.5928
 4505TIP3    H235151   6.210   6.466   7.092 -1.5347 -1.3681 -1.7483
 4506TIP3   OH235152   6.192   5.636   7.237  0.0195  0.2153 -0.3103
 4506TIP3    H135153   6.257   5.651   7.169  2.1070 -0.4073  1.4208
 4506TIP3    H235154   6.173   5.723   7.272  0.4350  0.3503 -0.4114
 4507TIP3   OH235155   2.710   2.827   0.296 -0.0784  0.8135  0.5384
 4507TIP3    H135156   2.735   2.806   0.386 -0.2630 -0.0057  0.4051
 4507TIP3    H235157   2.793   2.834   0.249  0.0353  1.5715  0.8295
 4508TIP3   OH235158   3.856   3.158   0.338 -0.3601  0.3076  0.2360
 4508TIP3    H135159   3.808   3.146   0.256 -0.5535 -1.3507  0.5489
 4508TIP3    H235160   3.926   3.220   0.317 -0.6964  0.2769 -1.0416
 4509TIP3   OH235161   5.986   3.581   1.030 -0.6110 -0.1016 -0.0726
 4509TIP3    H135162   5.911   3.577   0.971 -0.7250 -0.5051  0.0926
 4509TIP3    H235163   5.951   3.617   1.111 -0.3428  0.9481 -0.4140
 4510TIP3   OH235164   2.589   2.790   2.821  0.1388  0.3213 -0.1263
 4510TIP3    H135165   2.562   2.878   2.795  1.1256  1.0881  1.3116
 4510TIP3    H235166   2.669   2.803   2.871  0.4966 -1.4422 -0.1682
 4511TIP3   OH235167   0.621   2.622   2.370 -0.2804 -0.0685  0.1898
 4511TIP3    H135168   0.636   2.597   2.461  1.8343  0.0240 -0.0929
 4511TIP3    H235169   0.594   2.541   2.327 -3.4320  0.2704  1.2256
 4512TIP3   OH235170   0.703   0.932   2.644  0.0251 -0.3500  0.2484
 4512TIP3    H135171   0.639   0.876   2.688  0.2338  0.1808  1.2518
 4512TIP3    H235172   0.749   0.976   2.715  0.0481  0.9018 -0.5128
 4513TIP3   OH235173   6.630   2.519   0.941 -0.6862  0.3886 -0.3552
 4513TIP3    H135174   6.706   2.554   0.987 -0.4994 -2.1041  1.3768
 4513TIP3    H235175   6.563   2.586   0.953  0.9166  2.2504 -1.1993
 4514TIP3   OH235176   5.004   6.273   0.222 -0.5137  0.4753  0.5287
 4514TIP3    H135177   5.003   6.256   0.316  0.9993  1.6106  0.7768
 4514TIP3    H235178   5.087   6.317   0.206 -0.2140 -0.6937 -1.5341
 4515TIP3   OH235179   2.424   6.287   7.478  0.3679 -0.0027  0.2765
 4515TIP3    H135180   2.384   6.339   7.548  0.0890  1.1664 -0.7228
 4515TIP3    H235181   2.502   6.337   7.453  1.1531 -1.0473  0.5787
 4516TIP3   OH235182   3.550   4.250   0.720 -0.7232  0.2622 -0.1918
 4516TIP3    H135183   3.455   4.264   0.712 -0.7522  1.7881  2.0507
 4516TIP3    H235184   3.582   4.327   0.767  1.8691  0.3542 -1.9444
 4517TIP3   OH235185   6.696   4.636   1.963 -0.2308 -0.3375  0.0955
 4517TIP3    H135186   6.697   4.721   2.005 -0.2525 -0.0046 -0.5625
 4517TIP3    H235187   6.614   4.596   1.991 -1.1497  0.6497 -1.1231
 4518TIP3   OH235188   4.195   6.463   8.388 -0.5507  0.5074 -0.5343
 4518TIP3    H135189   4.134   6.389   8.382 -1.0526  0.7454  1.1509
 4518TIP3    H235190   4.151   6.535   8.342 -0.4550  0.0282 -1.4040
 4519TIP3   OH235191   1.090   3.969   7.445  0.3347 -0.5588 -0.3862
 4519TIP3    H135192   1.127   3.888   7.478 -1.5934 -1.5139 -0.4286
 4519TIP3    H235193   1.165   4.026   7.431  1.8954 -2.7832 -1.6153
 4520TIP3   OH235194   6.458   5.020   1.154  0.2407  0.9074  0.0520
 4520TIP3    H135195   6.403   5.072   1.213 -1.6691 -0.7481 -0.1795
 4520TIP3    H235196   6.397   4.961   1.110  2.1999 -1.0093 -0.2555
 4521TIP3   OH235197   3.165   3.066   7.908 -0.0157 -0.0491  0.1481
 4521TIP3    H135198   3.168   3.072   7.813  1.1398  1.2758  0.2355
 4521TIP3    H235199   3.209   3.146   7.939 -2.3998  0.7220  1.8294
 4522TIP3   OH235200   3.873   4.093   7.699  0.1072 -0.0140 -0.3791
 4522TIP3    H135201   3.902   4.115   7.610 -0.4697 -1.7598 -1.0366
 4522TIP3    H235202   3.903   4.003   7.712 -2.5684 -0.9374 -0.0553
 4523TIP3   OH235203   0.243   2.452   1.449 -0.4065 -0.5492  0.1561
 4523TIP3    H135204   0.287   2.422   1.528  0.1177 -0.7010 -0.1827
 4523TIP3    H235205   0.246   2.548   1.455 -0.6789 -0.5599  0.4839
 4524TIP3   OH235206   2.028   4.702   0.605 -0.9596 -0.2365  0.0761
 4524TIP3    H135207   2.095   4.711   0.673 -1.2487  1.2791  0.1962
 4524TIP3    H235208   2.052   4.767   0.539 -1.8562 -0.2472 -0.2731
 4525TIP3   OH235209   4.612   2.286   1.539 -0.4070  0.2377  0.2942
 4525TIP3    H135210   4.608   2.193   1.517 -1.5377  0.3649 -0.0972
 4525TIP3    H235211   4.676   2.323   1.477 -0.9410 -0.0492 -0.4417
 4526TIP3   OH235212   6.744   1.332   1.967  0.5937 -0.3054  0.4286
 4526TIP3    H135213   6.804   1.277   2.017  1.5883  1.1781  0.9374
 4526TIP3    H235214   6.754   1.419   2.006  0.0589  0.5230 -1.2009
 4527TIP3   OH235215   0.324   3.870   8.238 -0.7292 -0.5967 -0.0872
 4527TIP3    H135216   0.288   3.954   8.211  1.9011 -0.0255 -2.3194
 4527TIP3    H235217   0.342   3.880   8.331 -1.6723  0.8087 -0.0255
 4528TIP3   OH235218   3.134   0.327   8.141 -0.6992  0.2158 -0.4825
 4528TIP3    H135219   3.215   0.302   8.095  0.4959  0.8591  1.1707
 4528TIP3    H235220   3.106   0.408   8.098 -0.1066  0.3300 -0.6663
 4529TIP3   OH235221   3.508   1.450   0.437  0.4421 -0.1180  0.4789
 4529TIP3    H135222   3.595   1.490   0.432  0.9960 -1.3550 -0.3609
 4529TIP3    H235223   3.449   1.519   0.407  1.3496  0.1604 -0.7682
 4530TIP3   OH235224   0.306   5.262   0.030  0.0575 -0.3413 -0.0452
 4530TIP3    H135225   0.311   5.354   0.003  0.7262 -0.5098 -0.5114
 4530TIP3    H235226   0.360   5.215  -0.034 -1.1388 -1.2111 -0.4679
 4531TIP3   OH235227   1.258   4.438   0.575 -0.2664 -0.4094  0.3868
 4531TIP3    H135228   1.266   4.385   0.655 -0.7759 -0.2008  0.5807
 4531TIP3    H235229   1.291   4.524   0.601  0.8232 -0.6883 -0.0047
 4532TIP3   OH235230   5.991   1.786   1.961  0.7349 -0.3294 -0.3194
 4532TIP3    H135231   5.953   1.856   1.908 -0.1798 -0.2905  0.3806
 4532TIP3    H235232   5.996   1.822   2.049 -0.2775 -1.3358  0.1663
 4533TIP3   OH235233   4.138   4.572   0.791  0.2759  0.1126 -0.1191
 4533TIP3    H135234   4.167   4.491   0.749  0.4764  0.6998 -1.1736
 4533TIP3    H235235   4.144   4.638   0.721 -3.6691  0.3028 -0.4635
 4534TIP3   OH235236   4.306   1.202   7.309  0.2187  0.3025 -0.2818
 4534TIP3    H135237   4.241   1.177   7.242 -1.2131  1.5212  0.6031
 4534TIP3    H235238   4.308   1.297   7.306  3.4986  0.3321 -1.6384
 4535TIP3   OH235239   1.431   3.401   2.084 -0.4157 -0.9040 -0.0633
 4535TIP3    H135240   1.482   3.322   2.064  2.5793  0.6435  0.7859
 4535TIP3    H235241   1.401   3.389   2.174  0.5797 -0.8850  0.2908
 4536TIP3   OH235242   2.776   0.824   0.876  0.0069 -0.2081 -0.4479
 4536TIP3    H135243   2.717   0.834   0.950 -0.2787  0.4765 -0.7652
 4536TIP3    H235244   2.851   0.881   0.895  0.1340 -0.3588 -0.4866
 4537TIP3   OH235245   5.079   0.613   2.163 -0.0165 -0.8092 -0.4273
 4537TIP3    H135246   5.047   0.618   2.073  0.0978 -0.3015 -0.4410
 4537TIP3    H235247   5.002   0.630   2.217  0.7968  4.7789 -0.4584
 4538TIP3   OH235248   1.715   3.916   1.930  0.5329  0.0840 -0.6153
 4538TIP3    H135249   1.642   3.875   1.976  1.1277 -0.0103  0.2823
 4538TIP3    H235250   1.780   3.932   1.999  0.6944  1.6934 -1.0883
 4539TIP3   OH235251   0.023   1.472   7.486  0.3874 -0.5015 -0.3121
 4539TIP3    H135252  -0.041   1.543   7.487  1.4229  0.4769  0.8481
 4539TIP3    H235253  -0.016   1.403   7.540  0.3294  0.1230  0.4666
 4540TIP3   OH235254   1.109   4.108   8.179 -0.3239 -0.2980  0.8617
 4540TIP3    H135255   1.076   4.172   8.116 -0.3218 -0.5898  0.5684
 4540TIP3    H235256   1.142   4.036   8.126  0.1247 -0.3294  1.1768
 4541TIP3   OH235257   6.009   2.026   1.386 -0.1086 -0.1153  1.2642
 4541TIP3    H135258   6.067   2.046   1.313 -1.5219 -0.1365  0.0890
 4541TIP3    H235259   6.011   1.930   1.393 -0.5261 -0.1672  0.7565
 4542TIP3   OH235260   4.509   2.673   0.053  0.4211  0.1359 -0.4054
 4542TIP3    H135261   4.549   2.640  -0.027  2.6858  1.5203  0.0620
 4542TIP3    H235262   4.542   2.615   0.122 -1.0412 -0.6868 -0.3587
 4543TIP3   OH235263   4.491   3.687   6.920 -0.3436 -0.2057  0.4906
 4543TIP3    H135264   4.463   3.671   7.010 -1.5971  0.4153  0.2332
 4543TIP3    H235265   4.517   3.779   6.918  0.9187 -0.5405  0.5006
 4544TIP3   OH235266   4.020   0.363   7.677  0.7550  0.2947 -0.0684
 4544TIP3    H135267   4.010   0.448   7.720 -0.3698  0.1981 -0.1064
 4544TIP3    H235268   4.114   0.356   7.658  1.1415  0.7000  1.6036
 4545TIP3   OH235269   1.038   4.647   1.375 -0.7787 -0.1326 -0.0329
 4545TIP3    H135270   1.089   4.659   1.295  1.4583  0.9081  1.4346
 4545TIP3    H235271   1.004   4.734   1.395  1.4266  0.4159  1.7831
 4546TIP3   OH235272   1.277   3.009   1.280  0.3127 -0.2624  0.0714
 4546TIP3    H135273   1.195   3.007   1.231 -0.4632 -0.9011  1.3512
 4546TIP3    H235274   1.336   2.951   1.231 -0.7214 -1.5794  0.3475
 4547TIP3   OH235275   1.291   6.627   1.530  0.2413  0.4108  0.1005
 4547TIP3    H135276   1.312   6.673   1.611 -2.0752 -0.3397  1.1999
 4547TIP3    H235277   1.217   6.675   1.493 -1.9477 -2.0026  1.0362
 4548TIP3   OH235278   2.279   2.934   2.185  0.3911  0.2538  0.4377
 4548TIP3    H135279   2.218   2.999   2.219  1.3358  1.7291 -0.5409
 4548TIP3    H235280   2.350   2.932   2.248 -0.2509 -0.8365  1.1443
 4549TIP3   OH235281   1.398   5.159   0.734  0.5585  0.0756 -0.3132
 4549TIP3    H135282   1.391   5.065   0.746  0.0024  0.1800  0.1930
 4549TIP3    H235283   1.492   5.177   0.746  0.5846 -0.3357  0.1337
 4550TIP3   OH235284   6.221   5.526   7.518 -0.1607  0.1134  0.5581
 4550TIP3    H135285   6.255   5.442   7.549  0.6053  1.1929  2.8256
 4550TIP3    H235286   6.238   5.525   7.424  1.1617 -1.6601  0.7658
 4551TIP3   OH235287   3.683   4.862   2.091  0.1513  0.4268 -0.1510
 4551TIP3    H135288   3.740   4.872   2.014 -0.6930  1.6536 -0.6549
 4551TIP3    H235289   3.681   4.950   2.130 -1.5713  0.4848 -0.2920
 4552TIP3   OH235290   3.052   4.814   0.710 -0.0690 -0.1743 -0.1531
 4552TIP3    H135291   3.004   4.752   0.655 -0.2405  0.6542 -0.9762
 4552TIP3    H235292   3.033   4.787   0.800  0.1556 -1.5121 -0.4894
 4553TIP3   OH235293   0.796   0.560   7.538 -0.0534  0.0439  0.5013
 4553TIP3    H135294   0.790   0.468   7.562 -0.9282  0.0921  0.4899
 4553TIP3    H235295   0.877   0.591   7.581  0.9776 -1.0302 -0.5849
 4554TIP3   OH235296   1.341   6.705   0.216 -0.4213  0.6375 -0.5397
 4554TIP3    H135297   1.264   6.658   0.187  0.4058  0.2996 -2.3437
 4554TIP3    H235298   1.414   6.647   0.196  0.2974  0.6677  1.7346
 4555TIP3   OH235299   4.983   5.172   1.799 -0.2766  0.0711 -0.3477
 4555TIP3    H135300   5.016   5.137   1.716  1.1282 -0.1466  0.2860
 4555TIP3    H235301   5.001   5.266   1.793 -0.5181  0.1127 -0.4373
 4556TIP3   OH235302   1.590   4.874   0.541 -0.6483  0.5449 -0.0096
 4556TIP3    H135303   1.632   4.914   0.617  0.5273 -0.6777  0.0193
 4556TIP3    H235304   1.619   4.783   0.543 -1.9715  0.0769 -0.9701
 4557TIP3   OH235305   0.344   0.405   1.251  0.0314 -0.0770  0.9331
 4557TIP3    H135306   0.287   0.349   1.304  0.4318  0.2943  1.7851
 4557TIP3    H235307   0.290   0.481   1.229 -0.1708 -0.2827  0.7119
 4558TIP3   OH235308   6.649   5.927   7.700  0.1571 -0.6169 -0.3221
 4558TIP3    H135309   6.591   6.003   7.690  2.0490  0.8162 -0.9106
 4558TIP3    H235310   6.606   5.858   7.649 -0.8547  0.5035 -1.0625
 4559TIP3   OH235311   0.566   4.441   1.897  0.4401  0.1131  0.0846
 4559TIP3    H135312   0.580   4.520   1.949 -1.1358 -0.0209  0.7601
 4559TIP3    H235313   0.566   4.370   1.961 -0.4460 -0.1705 -0.2212
 4560TIP3   OH235314   5.278   1.619   8.322 -0.1620 -0.6567  0.6789
 4560TIP3    H135315   5.246   1.687   8.382 -1.3681 -0.7231  0.1330
 4560TIP3    H235316   5.291   1.665   8.239 -1.9414 -1.2410  0.0243
 4561TIP3   OH235317   1.215   2.748   1.837 -0.3574  0.7560  0.0247
 4561TIP3    H135318   1.152   2.694   1.883 -0.3883  0.1018 -0.7662
 4561TIP3    H235319   1.200   2.836   1.871  0.2305  0.1768  1.9145
 4562TIP3   OH235320   3.978   0.177   1.994 -0.2107 -0.3466  0.1134
 4562TIP3    H135321   3.959   0.121   2.070 -0.0403  0.8259  1.0485
 4562TIP3    H235322   3.899   0.173   1.940  0.4120 -2.8565 -0.7553
 4563TIP3   OH235323   6.315   2.424   0.567 -0.1994 -0.0397  0.2866
 4563TIP3    H135324   6.245   2.359   0.565  0.1962 -0.4464 -0.5835
 4563TIP3    H235325   6.293   2.480   0.641 -1.2860 -0.3395  0.2020
 4564TIP3   OH235326   5.776   6.531   1.037  0.2740 -0.2526  0.2779
 4564TIP3    H135327   5.715   6.504   0.968 -0.2923  1.4822  0.0370
 4564TIP3    H235328   5.813   6.450   1.070 -2.9424 -1.5221  1.1577
 4565TIP3   OH235329   2.851   4.924   1.604  0.4222  0.2261  0.0381
 4565TIP3    H135330   2.860   4.828   1.601  1.1715  0.3166 -1.7360
 4565TIP3    H235331   2.927   4.953   1.655  0.0832 -0.1114  0.7580
 4566TIP3   OH235332   3.666   6.704   1.881  0.2287  0.1243 -0.2632
 4566TIP3    H135333   3.684   6.667   1.967 -1.1463  0.2934  0.1247
 4566TIP3    H235334   3.751   6.732   1.848  0.8753 -0.6570  0.7063
 4567TIP3   OH235335   2.273   6.196   2.194  0.0704  0.4026 -0.0170
 4567TIP3    H135336   2.247   6.231   2.279  3.2084 -0.0588  1.2652
 4567TIP3    H235337   2.319   6.115   2.214 -1.1203 -0.9671 -2.3945
 4568TIP3   OH235338   3.372   6.750   7.864 -0.4165 -0.5595  1.1432
 4568TIP3    H135339   3.285   6.742   7.825  0.0617  1.6254 -0.5626
 4568TIP3    H235340   3.408   6.661   7.861 -1.7548 -1.1066 -0.1356
 4569TIP3   OH235341   4.607   1.599   7.532 -0.3242 -0.0925  0.9231
 4569TIP3    H135342   4.516   1.580   7.508 -0.5028 -1.0011  2.2026
 4569TIP3    H235343   4.624   1.543   7.607  1.2960  0.1082  0.7400
 4570TIP3   OH235344   4.957   2.061   6.771  0.5071  0.0449  0.1100
 4570TIP3    H135345   4.889   2.104   6.823  1.7790  3.0850 -0.5419
 4570TIP3    H235346   4.973   1.978   6.817 -1.0414  0.8866  2.3607
 4571TIP3   OH235347   4.133   2.681   8.045 -0.3814  0.0842 -0.6190
 4571TIP3    H135348   4.207   2.696   8.103 -1.2106  0.5033  0.3688
 4571TIP3    H235349   4.106   2.591   8.062 -0.1399 -0.0490 -0.9341
 4572TIP3   OH235350   4.821   0.437   1.338  0.4655  0.6597 -0.2057
 4572TIP3    H135351   4.855   0.355   1.373  0.2448  0.1055 -1.2377
 4572TIP3    H235352   4.855   0.441   1.249  1.2531  2.1701  0.1234
 4573TIP3   OH235353   0.494   4.695   1.558  0.1122  0.0926 -0.3585
 4573TIP3    H135354   0.543   4.734   1.487 -1.0458  0.5179 -0.9472
 4573TIP3    H235355   0.411   4.668   1.519 -0.1138 -0.6645  0.5882
 4574TIP3   OH235356   6.099   3.366   0.547  0.2152  0.0859  0.1126
 4574TIP3    H135357   6.157   3.434   0.513 -0.4929  0.7414  0.2096
 4574TIP3    H235358   6.094   3.301   0.477  1.2292 -0.0922  0.1812
 4575TIP3   OH235359   0.381   6.316   7.977 -0.0127  0.2700 -0.2901
 4575TIP3    H135360   0.467   6.351   8.000  0.4121 -1.2660  0.5712
 4575TIP3    H235361   0.326   6.341   8.052 -0.0670  0.3408 -0.3534
 4576TIP3   OH235362   3.237   3.948   0.786  0.1526 -0.0258  0.1265
 4576TIP3    H135363   3.158   3.911   0.824  0.4539 -2.3413 -1.3339
 4576TIP3    H235364   3.206   4.018   0.729 -0.6657  0.2762  0.9120
 4577TIP3   OH235365   3.487   0.411   0.157 -0.0617  0.1481 -0.0967
 4577TIP3    H135366   3.539   0.490   0.171  1.5117 -0.9174  0.2418
 4577TIP3    H235367   3.464   0.382   0.245 -0.6755  0.2357 -0.2237
 4578TIP3   OH235368   1.776   4.456   0.326  0.0820  0.8354  0.5132
 4578TIP3    H135369   1.765   4.527   0.263 -1.0367 -1.3602 -1.9563
 4578TIP3    H235370   1.705   4.394   0.307  1.1198 -1.0938  2.3510
 4579TIP3   OH235371   2.402   2.889   8.226  0.1245 -0.2142  0.7218
 4579TIP3    H135372   2.379   2.845   8.308 -1.1851  1.2182  1.1714
 4579TIP3    H235373   2.495   2.871   8.215  0.3330 -0.4690  2.5201
 4580TIP3   OH235374   0.805   4.601   1.156 -0.3331 -0.2050  0.4151
 4580TIP3    H135375   0.746   4.659   1.203 -0.4737  0.2001 -0.2397
 4580TIP3    H235376   0.842   4.656   1.086  0.6253 -0.5146  0.6610
 4581TIP3   OH235377   0.212   2.802   2.253  0.2004 -0.0837 -0.1511
 4581TIP3    H135378   0.204   2.898   2.259 -0.7734 -0.2443  2.0368
 4581TIP3    H235379   0.256   2.777   2.334 -0.3703 -1.5665 -0.2825
 4582TIP3   OH235380   5.514   2.312   1.629 -0.3188 -1.0284  0.1931
 4582TIP3    H135381   5.444   2.249   1.645 -0.2879 -1.3864 -0.9427
 4582TIP3    H235382   5.472   2.381   1.577 -0.2383 -0.3467  1.0252
 4583TIP3   OH235383   0.642   1.567   8.038  0.5356  0.5280  0.0771
 4583TIP3    H135384   0.563   1.574   8.091  0.9003 -1.5396  1.0151
 4583TIP3    H235385   0.616   1.514   7.963  1.4424 -2.0713  1.4902
 4584TIP3   OH235386   4.601   2.585   8.485 -0.0003 -0.0129  0.2284
 4584TIP3    H135387   4.681   2.637   8.475  1.1834 -1.6638  0.8521
 4584TIP3    H235388   4.603   2.522   8.413 -1.1178  0.3522 -0.1580
 4585TIP3   OH235389   5.392   0.649   1.701 -0.5292  0.2939 -0.2582
 4585TIP3    H135390   5.479   0.681   1.725 -0.0737 -1.0562  0.0049
 4585TIP3    H235391   5.360   0.607   1.780 -1.9333  1.7746 -0.0032
 4586TIP3   OH235392   2.348   4.744   2.067  0.2193 -0.1773 -0.1339
 4586TIP3    H135393   2.328   4.786   2.151 -1.1050  0.5690 -0.7989
 4586TIP3    H235394   2.308   4.657   2.075 -2.3871  0.8350 -0.9469
 4587TIP3   OH235395   5.554   0.234   7.607  0.1381 -0.2972 -0.4468
 4587TIP3    H135396   5.641   0.248   7.643 -0.5004  1.0087  0.6917
 4587TIP3    H235397   5.523   0.153   7.649 -0.2046  0.6651  1.2509
 4588TIP3   OH235398   1.970   2.763   8.477 -0.6697 -0.6025  0.2681
 4588TIP3    H135399   1.973   2.816   8.557  0.9559  0.8478 -0.6690
 4588TIP3    H235400   1.888   2.787   8.435 -1.0802 -0.6578  1.0196
 4589TIP3   OH235401   2.204   3.540   1.754  0.1752  0.3978  0.7899
 4589TIP3    H135402   2.112   3.555   1.734  0.1474  0.5970  1.0723
 4589TIP3    H235403   2.250   3.568   1.675 -0.1426 -1.7046 -0.2308
 4590TIP3   OH235404   2.086   1.090   0.787  0.0117  0.0829  0.2943
 4590TIP3    H135405   2.018   1.074   0.722  1.5501 -0.3857 -1.2999
 4590TIP3    H235406   2.131   1.169   0.756  3.1336 -2.1525 -1.5164
 4591TIP3   OH235407   2.150   4.114   0.955  0.0349  0.2605 -0.5551
 4591TIP3    H135408   2.136   4.026   0.921  1.3184 -0.0978 -0.1859
 4591TIP3    H235409   2.183   4.163   0.880  1.4406 -0.1517 -0.2273
 4592TIP3   OH235410   3.859   1.125   0.891  0.6915  0.6133 -0.0262
 4592TIP3    H135411   3.803   1.066   0.942 -0.2111  0.0639 -1.5917
 4592TIP3    H235412   3.818   1.211   0.898 -1.4177 -0.0723 -2.5061
 4593TIP3   OH235413   5.272   6.719   7.594 -0.1424  0.0971 -0.0705
 4593TIP3    H135414   5.230   6.795   7.553 -0.8382 -0.6104 -0.7360
 4593TIP3    H235415   5.208   6.649   7.583  0.0128 -0.3233  1.5386
 4594TIP3   OH235416   1.825   1.509   1.240  0.1412  0.5543 -0.2616
 4594TIP3    H135417   1.807   1.475   1.152  0.0953 -2.0288  0.6749
 4594TIP3    H235418   1.738   1.522   1.279  0.0159 -2.6540  0.8718
 4595TIP3   OH235419   6.546   2.932   0.708  0.4590 -0.3043 -0.0392
 4595TIP3    H135420   6.554   2.911   0.615  1.7431  1.3082 -0.3353
 4595TIP3    H235421   6.474   2.877   0.739  0.0965 -0.9722 -1.9427
 4596TIP3   OH235422   0.489   2.525   0.863  0.4240 -0.0899 -0.4495
 4596TIP3    H135423   0.527   2.591   0.921  2.1643 -0.0960 -1.4971
 4596TIP3    H235424   0.507   2.558   0.775 -0.2875 -1.0966 -0.9911
 4597TIP3   OH235425   3.424   2.371   8.183 -0.0604  0.0571 -0.0180
 4597TIP3    H135426   3.397   2.349   8.272  1.7076  1.1572  0.8506
 4597TIP3    H235427   3.411   2.290   8.133  1.5145 -1.4859  1.8893
 4598TIP3   OH235428   5.192   5.564   6.574  0.4736 -0.3911 -0.0900
 4598TIP3    H135429   5.257   5.555   6.643  0.0581 -1.5056  0.1782
 4598TIP3    H235430   5.209   5.650   6.536  0.6721  0.2734  1.4327
 4599TIP3   OH235431   3.792   2.190   2.378  0.2348  0.4497  0.5967
 4599TIP3    H135432   3.767   2.105   2.342 -0.6918 -0.0145  2.2538
 4599TIP3    H235433   3.710   2.238   2.386  0.3285  0.3631  2.4662
 4600TIP3   OH235434   2.236   5.842   6.502 -0.4730  0.3144  0.2799
 4600TIP3    H135435   2.181   5.914   6.532  0.5950  0.9656  0.7375
 4600TIP3    H235436   2.306   5.884   6.453 -0.4247 -0.5038 -0.3741
 4601TIP3   OH235437   0.443   2.109   0.905  0.1399 -0.0172  0.7572
 4601TIP3    H135438   0.355   2.096   0.870  0.1029 -0.0222  0.8517
 4601TIP3    H235439   0.438   2.192   0.952  0.4380  0.4578 -0.0409
 4602TIP3   OH235440   0.577   0.181   1.125  1.0448  0.2873  0.3203
 4602TIP3    H135441   0.502   0.225   1.165  0.6959 -1.2118  1.4225
 4602TIP3    H235442   0.574   0.207   1.033 -0.9869  0.0668  0.2732
 4603TIP3   OH235443   1.798   5.608   1.918  0.2529 -0.1692 -0.8654
 4603TIP3    H135444   1.745   5.661   1.977 -0.2667  0.0479 -1.5287
 4603TIP3    H235445   1.741   5.591   1.843  1.0346 -0.1497 -1.4669
 4604TIP3   OH235446   0.730   4.733   7.637  1.0546  0.3511 -0.1490
 4604TIP3    H135447   0.759   4.756   7.549 -0.1073 -0.3804 -0.7436
 4604TIP3    H235448   0.679   4.809   7.665 -0.1144 -0.1384 -0.8589
 4605TIP3   OH235449   0.396   6.473   2.080  0.2745 -0.0240 -0.2143
 4605TIP3    H135450   0.302   6.491   2.087  0.1033 -0.5925 -0.8202
 4605TIP3    H235451   0.431   6.492   2.166  0.2908  3.8780 -0.8943
 4606TIP3   OH235452   6.535   1.471   0.751  0.1263  0.0611  0.0427
 4606TIP3    H135453   6.509   1.420   0.674  1.1482  0.5707 -0.6647
 4606TIP3    H235454   6.621   1.506   0.728  1.3731 -1.3662  2.1841
 4607TIP3   OH235455   0.163   2.503   8.397 -0.2028  0.1165  0.2040
 4607TIP3    H135456   0.234   2.451   8.434 -0.5410 -1.3745 -1.1387
 4607TIP3    H235457   0.190   2.594   8.411  1.7324 -0.4132  0.1517
 4608TIP3   OH235458   0.297   3.420   1.734  0.0829 -0.0623 -0.6670
 4608TIP3    H135459   0.290   3.419   1.639  0.4356 -1.2480 -0.6978
 4608TIP3    H235460   0.268   3.333   1.761  2.1633 -0.5691  0.1162
 4609TIP3   OH235461   4.667   6.835   0.830 -0.3869  0.6286  0.0133
 4609TIP3    H135462   4.712   6.751   0.822  0.6783  1.1641  0.1994
 4609TIP3    H235463   4.638   6.855   0.741 -1.3136 -0.2834  0.0970
 4610TIP3   OH235464   1.089   0.392   0.322 -0.2114  0.0030 -0.1255
 4610TIP3    H135465   1.023   0.404   0.390  0.4630 -0.9747  0.7287
 4610TIP3    H235466   1.062   0.312   0.277  0.1179 -0.1307 -0.0890
 4611TIP3   OH235467   2.934   0.166   0.166  0.0479  0.0818 -0.2176
 4611TIP3    H135468   2.882   0.225   0.220  0.1042 -1.9054  2.1448
 4611TIP3    H235469   3.022   0.204   0.165  0.0491  0.1349  1.1514
 4612TIP3   OH235470   1.465   0.292   2.676 -0.1571 -0.1738 -0.6045
 4612TIP3    H135471   1.501   0.368   2.629  0.8964 -0.4013 -0.1902
 4612TIP3    H235472   1.392   0.328   2.726 -0.0298  0.4617 -0.8572
 4613TIP3   OH235473   6.684   6.663   7.376 -0.3344  0.2185 -0.7485
 4613TIP3    H135474   6.645   6.707   7.452 -0.7048  0.3983 -1.0402
 4613TIP3    H235475   6.611   6.614   7.337 -0.5855  1.5171 -2.0017
 4614TIP3   OH235476   3.303   1.276   6.531  0.6528 -0.3086 -0.8867
 4614TIP3    H135477   3.393   1.245   6.541  0.8308  0.3178 -0.4965
 4614TIP3    H235478   3.292   1.341   6.600  0.2138  0.3199 -1.5402
 4615TIP3   OH235479   4.483   0.750   1.968  0.3312 -0.1736  0.0497
 4615TIP3    H135480   4.480   0.662   2.007  2.2581 -0.4416 -0.3409
 4615TIP3    H235481   4.455   0.808   2.038  0.8941 -0.9270  0.9204
 4616TIP3   OH235482   1.681   0.868   2.009 -0.2055  0.0410  0.1046
 4616TIP3    H135483   1.774   0.850   2.013 -0.2972 -0.5379 -0.2052
 4616TIP3    H235484   1.639   0.783   2.023 -0.6413 -0.2380 -2.4131
 4617TIP3   OH235485   1.453   6.116   1.662 -0.1953 -0.0025 -0.0646
 4617TIP3    H135486   1.497   6.146   1.582 -0.3300  2.2025  0.6156
 4617TIP3    H235487   1.365   6.092   1.633 -1.0776  3.0989 -0.3240
 4618TIP3   OH235488   4.509   5.909   0.591 -0.8383 -0.0711 -0.4686
 4618TIP3    H135489   4.540   5.999   0.583  0.5285 -0.6398 -2.4148
 4618TIP3    H235490   4.565   5.869   0.658 -2.0274  0.6971  1.0473
 4619TIP3   OH235491   4.080   5.588   6.963 -0.5498 -0.1658  0.2603
 4619TIP3    H135492   3.996   5.551   6.936 -2.5442  3.7625  0.2118
 4619TIP3    H235493   4.056   5.659   7.022  2.5776  2.2580 -1.0838
 4620TIP3   OH235494   5.186   0.328   1.141 -0.3826 -0.2608 -0.2702
 4620TIP3    H135495   5.215   0.323   1.232 -1.1504  3.0151  0.3063
 4620TIP3    H235496   5.094   0.351   1.146 -0.4135  0.1216 -1.8687
 4621TIP3   OH235497   0.005   6.723   7.567 -0.2007  0.0919 -1.2677
 4621TIP3    H135498  -0.034   6.651   7.617 -0.9598  2.5966  2.1592
 4621TIP3    H235499  -0.070   6.770   7.530  0.0205  0.9322 -0.6736
 4622TIP3   OH235500   0.029   5.492   2.072 -0.3804 -0.0886 -0.5499
 4622TIP3    H135501  -0.065   5.490   2.086 -0.7760 -0.5320 -2.9350
 4622TIP3    H235502   0.063   5.549   2.141 -2.3946  0.1730  0.2660
 4623TIP3   OH235503   5.884   3.856   7.598 -0.1432 -0.1055 -0.1226
 4623TIP3    H135504   5.883   3.768   7.559 -0.3672 -1.0381  1.8467
 4623TIP3    H235505   5.975   3.884   7.592  0.2376 -1.1407  0.5769
 4624TIP3   OH235506   5.627   0.573   2.049 -0.4409 -0.2317 -0.3004
 4624TIP3    H135507   5.635   0.490   2.096  0.9749  0.2765  0.3991
 4624TIP3    H235508   5.645   0.550   1.958  1.7554 -0.4349  0.1394
 4625TIP3   OH235509   0.200   6.021   1.711 -0.6249  0.3339  0.1289
 4625TIP3    H135510   0.224   5.938   1.752 -0.3332  0.4896  0.2741
 4625TIP3    H235511   0.113   6.006   1.675 -1.0800  0.3304  1.1940
 4626TIP3   OH235512   3.338   6.105   2.180  0.1403  0.4355 -0.3329
 4626TIP3    H135513   3.293   6.156   2.113 -1.0798 -1.8720 -1.4081
 4626TIP3    H235514   3.328   6.156   2.261 -1.7201  1.4902 -1.1667
 4627TIP3   OH235515   5.812   0.547   7.652  0.4033 -0.8549  0.0698
 4627TIP3    H135516   5.808   0.637   7.684  0.1584 -1.1694  0.9486
 4627TIP3    H235517   5.899   0.540   7.613 -0.0733  0.1494 -1.2227
 4628TIP3   OH235518   1.685   2.175   2.166  0.4168  0.2636  0.3870
 4628TIP3    H135519   1.768   2.169   2.215  0.6479  0.7194  0.0577
 4628TIP3    H235520   1.645   2.089   2.176  1.4723 -0.3325 -0.4055
 4629TIP3   OH235521   6.535   2.172   2.424  0.2837 -0.9016 -0.0391
 4629TIP3    H135522   6.535   2.097   2.483  1.1198 -0.5215  0.4581
 4629TIP3    H235523   6.541   2.248   2.482 -1.0232 -0.4167 -0.5088
 4630TIP3   OH235524   5.945   3.964   0.036  0.2417 -0.1407 -0.3069
 4630TIP3    H135525   5.885   4.037   0.024 -1.1229 -0.7345  2.1916
 4630TIP3    H235526   5.933   3.910  -0.042 -0.1424  1.3087 -1.2800
 4631TIP3   OH235527   4.868   5.084   7.924 -0.3679  0.1519  0.2403
 4631TIP3    H135528   4.775   5.094   7.945 -0.2098  0.9696  0.5941
 4631TIP3    H235529   4.873   5.106   7.831 -0.5709 -0.2087  0.1401
 4632TIP3   OH235530   4.884   5.078   0.218  0.0814 -0.5594  0.5496
 4632TIP3    H135531   4.789   5.064   0.215 -0.0315  0.2540 -0.8114
 4632TIP3    H235532   4.894   5.173   0.210  1.0114 -0.6431  0.5825
 4633TIP3   OH235533   2.025   1.809   7.497  0.6104  0.1563  0.5227
 4633TIP3    H135534   2.038   1.801   7.402  1.5756 -2.6304  0.7833
 4633TIP3    H235535   1.933   1.788   7.510  0.5155  0.3734  0.2194
 4634TIP3   OH235536   5.299   0.245   3.054  0.2359  0.2049  0.2820
 4634TIP3    H135537   5.227   0.184   3.044 -0.0292  0.8842 -2.9443
 4634TIP3    H235538   5.377   0.196   3.027  0.7229  0.0699  1.8304
 4635TIP3   OH235539   4.030   3.367   0.282  0.3997  0.1433  0.0138
 4635TIP3    H135540   4.080   3.431   0.334  1.6905 -1.1977  0.5090
 4635TIP3    H235541   4.088   3.346   0.208  0.4303 -1.1404  0.3763
 4636TIP3   OH235542   3.854   2.500   1.841 -0.3308 -0.1032 -0.1145
 4636TIP3    H135543   3.788   2.511   1.772 -1.2924  0.5332  0.8793
 4636TIP3    H235544   3.815   2.435   1.900  0.8075 -1.2049 -0.5219
 4637TIP3   OH235545   6.262   0.372   8.409  0.4097 -0.2362  0.0797
 4637TIP3    H135546   6.320   0.433   8.455 -1.6665  1.5148  0.5156
 4637TIP3    H235547   6.205   0.337   8.476  0.2546 -1.1410 -0.5055
 4638TIP3   OH235548   5.894   6.673   8.329  0.2709 -0.7819  0.0276
 4638TIP3    H135549   5.889   6.583   8.297  0.2278 -0.8656  0.2703
 4638TIP3    H235550   5.891   6.665   8.424 -0.8788 -0.4527  0.0311
 4639TIP3   OH235551   1.289   1.213   8.421  0.2458  0.0233 -0.1751
 4639TIP3    H135552   1.308   1.120   8.412 -2.5963 -0.8739  1.9404
 4639TIP3    H235553   1.248   1.238   8.338  1.0081 -0.5425 -0.7447
 4640TIP3   OH235554   3.280   3.735   7.623  0.6851  0.8947 -0.1634
 4640TIP3    H135555   3.341   3.661   7.611  0.9547  1.1078 -0.1305
 4640TIP3    H235556   3.208   3.717   7.562  1.5540  1.4531 -1.4133
 4641TIP3   OH235557   3.238   6.699   7.494 -0.0472 -0.4019  0.1053
 4641TIP3    H135558   3.188   6.697   7.413 -0.4817  0.2972  0.3485
 4641TIP3    H235559   3.174   6.677   7.562  0.4356 -1.5530  0.2176
 4642TIP3   OH235560   3.012   5.300   1.165 -0.5050  0.5821  0.6087
 4642TIP3    H135561   2.984   5.391   1.154 -0.5128  0.5944  0.7288
 4642TIP3    H235562   3.086   5.304   1.226 -0.5567  0.5008  0.6785
 4643TIP3   OH235563   1.553   1.929   2.080 -0.3223  0.2089 -0.4280
 4643TIP3    H135564   1.548   1.874   2.158  1.9681  1.9428  1.0820
 4643TIP3    H235565   1.610   1.882   2.020 -0.3390 -0.1592 -0.1578
 4644TIP3   OH235566   2.311   1.901   0.472 -0.5690 -0.1546  0.2540
 4644TIP3    H135567   2.343   1.929   0.386 -2.0578 -0.8398 -0.5692
 4644TIP3    H235568   2.360   1.954   0.534  0.2371  0.6747 -1.0315
 4645TIP3   OH235569   6.475   2.854   0.091 -0.9615  0.0317  0.6255
 4645TIP3    H135570   6.388   2.816   0.076 -0.8443 -0.8179  1.9462
 4645TIP3    H235571   6.515   2.796   0.156  1.9364 -1.6674 -2.3795
 4646TIP3   OH235572   4.620   1.164   1.009  0.1019  0.5532  1.0782
 4646TIP3    H135573   4.616   1.196   1.099 -0.8966  0.0753  1.2217
 4646TIP3    H235574   4.531   1.134   0.991  0.4291  0.1263  0.1187
 4647TIP3   OH235575   2.501   5.080   7.814 -0.2396 -0.1614  0.7223
 4647TIP3    H135576   2.523   5.158   7.865 -1.2859  0.7171 -0.1155
 4647TIP3    H235577   2.575   5.068   7.755 -0.8519  1.3116 -0.4041
 4648TIP3   OH235578   5.054   2.019   0.916 -0.2464  0.5970  0.1254
 4648TIP3    H135579   4.959   2.010   0.924 -0.6270  2.6756 -1.0865
 4648TIP3    H235580   5.077   2.087   0.980  0.3675  0.3910  0.1299
 4649TIP3   OH235581   3.349   5.940   7.463  0.0759  0.3107 -0.1069
 4649TIP3    H135582   3.345   6.029   7.499  0.2738 -0.5710  2.1870
 4649TIP3    H235583   3.277   5.894   7.506  0.1050 -0.7159 -1.1236
 4650TIP3   OH235584   2.639   2.127   8.074  0.3806  0.0650  0.0195
 4650TIP3    H135585   2.603   2.096   7.991 -0.7009  0.4297  0.3246
 4650TIP3    H235586   2.697   2.057   8.103 -0.6516 -0.9005 -0.1579
 4651TIP3   OH235587   1.872   6.296   8.534  0.4023 -0.0057 -0.0822
 4651TIP3    H135588   1.829   6.234   8.593  0.9350 -0.6132 -0.3177
 4651TIP3    H235589   1.963   6.266   8.531  1.5841  2.8271  2.5941
 4652TIP3   OH235590   5.086   3.070   1.017 -0.5597  0.2904  0.1103
 4652TIP3    H135591   5.065   3.012   0.944 -1.8413 -0.6210  1.1501
 4652TIP3    H235592   5.157   3.125   0.985 -0.6483 -0.5313 -1.5828
 4653TIP3   OH235593   5.161   5.330   7.014 -0.1154 -0.4112  0.0019
 4653TIP3    H135594   5.094   5.379   6.966 -0.2083 -0.2795  0.2647
 4653TIP3    H235595   5.234   5.323   6.953 -0.7396 -1.4154 -0.6466
 4654TIP3   OH235596   4.352   1.808   0.945  0.4936  0.0991  0.6176
 4654TIP3    H135597   4.266   1.798   0.988  1.0046  1.4456  2.0455
 4654TIP3    H235598   4.414   1.808   1.017  1.5316  1.0328 -0.2527
 4655TIP3   OH235599   5.583   3.091   8.354  0.3299  0.6276 -0.1274
 4655TIP3    H135600   5.572   3.145   8.432  1.3160  0.9655 -0.2134
 4655TIP3    H235601   5.657   3.035   8.374  0.8625  1.0142 -0.9815
 4656TIP3   OH235602   3.477   5.610   6.608 -0.5938  0.2138  0.4807
 4656TIP3    H135603   3.547   5.559   6.649 -1.8086 -0.9727  1.1413
 4656TIP3    H235604   3.520   5.691   6.581  1.7408 -1.5805 -1.7891
 4657TIP3   OH235605   4.863   0.736   2.279 -0.4229  0.6052 -0.5953
 4657TIP3    H135606   4.823   0.676   2.343 -2.4103  0.2283 -2.0769
 4657TIP3    H235607   4.928   0.785   2.329 -0.7691 -0.7798  1.3318
 4658TIP3   OH235608   4.165   2.920   7.184  0.4369  0.1525  0.1870
 4658TIP3    H135609   4.158   2.843   7.127  1.1050  1.0238 -1.1233
 4658TIP3    H235610   4.112   2.987   7.140 -0.8998  0.2192  1.7787
 4659TIP3   OH235611   2.266   5.970   8.481  0.2259  0.1764 -0.3165
 4659TIP3    H135612   2.218   5.981   8.398 -2.9022 -0.2201  1.2773
 4659TIP3    H235613   2.294   5.879   8.480  0.6235  0.2937 -1.1036
 4660TIP3   OH235614   5.030   2.978   3.012 -0.2396  0.0455 -0.4442
 4660TIP3    H135615   4.955   3.037   3.022  0.5462  0.7979  1.5328
 4660TIP3    H235616   5.105   3.029   3.042  0.4348 -1.9997  1.7097
 4661TIP3   OH235617   2.911   3.711   6.682  0.3801 -0.5372  0.6041
 4661TIP3    H135618   2.889   3.803   6.668  0.5251 -0.5318  0.4117
 4661TIP3    H235619   2.930   3.705   6.776 -0.3730 -0.5298  0.7649
 4662TIP3   OH235620   1.848   5.455   2.812 -0.3615 -0.1740  0.3966
 4662TIP3    H135621   1.909   5.509   2.764 -0.6117 -1.7361 -1.8231
 4662TIP3    H235622   1.763   5.497   2.800 -0.2945 -0.0825  0.2486
 4663TIP3   OH235623   0.627   1.746   1.128  0.3125 -0.7646  0.6133
 4663TIP3    H135624   0.657   1.744   1.219 -0.7635 -1.6604  0.9708
 4663TIP3    H235625   0.685   1.809   1.085  0.3750  0.2302  2.0761
 4664TIP3   OH235626   3.882   2.264   1.145  0.5640 -0.1629  0.1656
 4664TIP3    H135627   3.827   2.226   1.077 -0.5790  0.4923  0.6857
 4664TIP3    H235628   3.972   2.256   1.112 -0.0004  0.7249 -1.7091
 4665TIP3   OH235629   6.254   1.551   0.580 -0.3250  0.0046  0.1821
 4665TIP3    H135630   6.259   1.557   0.676 -1.0372 -0.8295  0.2820
 4665TIP3    H235631   6.247   1.458   0.562 -0.0937  0.1494 -0.6984
 4666TIP3   OH235632   1.087   2.338   7.847  0.1943  0.1850 -0.4732
 4666TIP3    H135633   1.152   2.271   7.823 -0.5156 -0.9530  0.6392
 4666TIP3    H235634   1.026   2.292   7.905 -1.1559  1.4418 -0.8495
 4667TIP3   OH235635   5.495   5.834   8.575  0.0653  0.4323  0.1488
 4667TIP3    H135636   5.479   5.829   8.669 -1.5365 -0.5946 -0.1526
 4667TIP3    H235637   5.504   5.743   8.547  1.6406  0.7687 -0.5470
 4668TIP3   OH235638   6.302   4.504   2.310 -0.3134 -0.7215  0.1674
 4668TIP3    H135639   6.240   4.487   2.382 -0.4821  1.5301  0.6187
 4668TIP3    H235640   6.349   4.583   2.337  0.7690 -0.7583 -1.4862
 4669TIP3   OH235641   2.218   6.865   7.665 -0.3597 -0.2881 -0.6066
 4669TIP3    H135642   2.161   6.942   7.658  0.5169  0.4679  0.2621
 4669TIP3    H235643   2.306   6.901   7.670  0.1412 -1.4083 -1.0955
 4670TIP3   OH235644   0.837   3.889   8.577  0.1170 -0.3238 -0.0622
 4670TIP3    H135645   0.865   3.838   8.501  1.3681 -0.4680  0.4893
 4670TIP3    H235646   0.918   3.914   8.621 -0.4202  2.2461 -0.3666
 4671TIP3   OH235647   6.126   4.076   0.586  0.9584 -0.0834 -0.0735
 4671TIP3    H135648   6.156   4.112   0.502  0.3927  0.0363 -0.2323
 4671TIP3    H235649   6.206   4.047   0.630  1.2109 -0.6997 -0.9132
 4672TIP3   OH235650   3.944   0.691   8.611 -0.3094  0.6122 -0.2570
 4672TIP3    H135651   4.033   0.688   8.577  1.0001  0.5581  2.8797
 4672TIP3    H235652   3.889   0.704   8.533  2.4891  2.0984 -2.1553
 4673TIP3   OH235653   3.027   5.667   1.239  0.3960 -0.2815  0.2988
 4673TIP3    H135654   2.978   5.740   1.200 -1.0359 -0.8097  1.0265
 4673TIP3    H235655   3.100   5.652   1.179 -1.1878 -0.4574 -1.6892
 4674TIP3   OH235656   4.921   3.409   2.209  0.6217  0.5996 -0.2854
 4674TIP3    H135657   4.851   3.376   2.265  1.1333  0.5720  0.3412
 4674TIP3    H235658   4.976   3.333   2.190  1.1252  0.8432  0.1716
 4675TIP3   OH235659   1.562   1.173   2.056  0.0120  0.3465 -0.3012
 4675TIP3    H135660   1.591   1.225   1.981 -3.1966  0.7679 -1.4048
 4675TIP3    H235661   1.505   1.106   2.018 -0.8203 -0.1234  1.6616
 4676TIP3   OH235662   4.139   5.067   2.088 -0.3983  0.1632 -0.7792
 4676TIP3    H135663   4.161   5.147   2.136 -0.2415  0.2513 -0.9913
 4676TIP3    H235664   4.223   5.023   2.076 -0.5423 -0.2478 -0.2898
 4677TIP3   OH235665   5.321   4.609   2.567  0.9363  0.2810 -0.7350
 4677TIP3    H135666   5.370   4.650   2.496 -0.1867  0.7917 -1.2420
 4677TIP3    H235667   5.367   4.527   2.584  1.3697  0.2660 -1.8998
 4678TIP3   OH235668   3.076   3.193   1.513  0.0488 -0.3161  0.0397
 4678TIP3    H135669   3.129   3.268   1.540 -1.4919  0.6774  0.4693
 4678TIP3    H235670   3.028   3.168   1.592 -1.5382  0.0688 -0.7621
 4679TIP3   OH235671   6.349   5.978   0.544  0.1708 -0.2883 -0.7391
 4679TIP3    H135672   6.267   6.008   0.583 -0.0105 -1.2060 -0.3700
 4679TIP3    H235673   6.415   6.037   0.579 -0.2788  0.1751 -0.6665
 4680TIP3   OH235674   0.071   1.806   8.186  0.3852 -0.8216 -0.2069
 4680TIP3    H135675   0.005   1.747   8.222  1.4493 -1.8229  0.1551
 4680TIP3    H235676   0.131   1.749   8.137 -1.4899  0.4832 -4.5896
 4681TIP3   OH235677   2.785   4.878   6.859 -0.0352  0.5669  0.0109
 4681TIP3    H135678   2.746   4.952   6.812 -0.6797  0.0822 -0.2398
 4681TIP3    H235679   2.879   4.896   6.859 -0.1290  1.0960 -0.5556
 4682TIP3   OH235680   1.792   1.130   0.335  0.1326 -0.1560 -0.8077
 4682TIP3    H135681   1.762   1.181   0.410 -1.3348 -0.4088 -1.1832
 4682TIP3    H235682   1.807   1.043   0.370  0.8287  0.0668 -0.5367
 4683TIP3   OH235683   1.539   4.497   7.880 -0.7584 -0.1759 -0.4076
 4683TIP3    H135684   1.525   4.543   7.963  1.2671 -1.0852  0.5123
 4683TIP3    H235685   1.478   4.423   7.882 -0.1347 -0.6878  0.7154
 4684TIP3   OH235686   4.825   2.249   8.196 -0.3233 -0.7207 -0.0874
 4684TIP3    H135687   4.833   2.204   8.280  1.0194  0.5872  0.5385
 4684TIP3    H235688   4.912   2.287   8.181 -0.9748  0.3653 -1.3057
 4685TIP3   OH235689   3.199   4.859   8.606 -0.6010  0.3205  0.3097
 4685TIP3    H135690   3.175   4.920   8.676  0.9437  1.2630  0.0688
 4685TIP3    H235691   3.215   4.916   8.530  0.5200 -0.4133 -0.0208
 4686TIP3   OH235692   4.441   2.953   1.876 -0.0074  0.5651 -0.2713
 4686TIP3    H135693   4.356   2.940   1.918 -0.3307  2.6326 -0.2041
 4686TIP3    H235694   4.498   2.984   1.947  1.1959 -1.9506 -0.0307
 4687TIP3   OH235695   6.361   2.994   2.353  0.2565 -0.0874  0.3859
 4687TIP3    H135696   6.444   2.982   2.306 -0.2243  1.9854 -1.1218
 4687TIP3    H235697   6.386   2.996   2.445  1.9940  1.0701 -0.0639
 4688TIP3   OH235698   1.346   4.926   8.104 -0.3459  0.5803 -0.1362
 4688TIP3    H135699   1.277   4.991   8.118  0.4012  1.1720  0.9011
 4688TIP3    H235700   1.342   4.870   8.182  0.1241  0.4231 -0.2222
 4689TIP3   OH235701   5.538   6.171   1.482 -0.3498 -0.5962 -0.4613
 4689TIP3    H135702   5.570   6.231   1.414 -0.5064 -0.5199 -0.4675
 4689TIP3    H235703   5.531   6.225   1.561  0.0191 -0.7307 -0.3336
 4690TIP3   OH235704   5.140   3.044   0.318  0.3724  0.4571  0.3279
 4690TIP3    H135705   5.198   3.005   0.253 -1.9257 -1.3550 -0.8112
 4690TIP3    H235706   5.100   2.970   0.363  2.1289  1.6476  4.2188
 4691TIP3   OH235707   1.671   0.003   7.035  0.0149  0.1882  0.2317
 4691TIP3    H135708   1.690   0.095   7.017  0.1252  0.3580  1.1527
 4691TIP3    H235709   1.576  -0.004   7.028 -0.1028  0.6321  1.2574
 4692TIP3   OH235710   0.585   5.289   8.536 -0.6312  0.4102  0.0283
 4692TIP3    H135711   0.577   5.346   8.460 -0.8225 -0.6378 -0.7714
 4692TIP3    H235712   0.679   5.273   8.544 -0.4380  1.8933  1.0956
 4693TIP3   OH235713   4.526   6.868   1.587 -0.5554  1.0772 -0.0942
 4693TIP3    H135714   4.551   6.904   1.672  0.3663 -0.7254  0.4364
 4693TIP3    H235715   4.432   6.881   1.582 -0.9888 -0.6466  2.1576
 4694TIP3   OH235716   4.715   4.004   2.101  0.1435 -0.0799  0.6174
 4694TIP3    H135717   4.656   4.062   2.054 -0.0596 -0.8416 -0.0753
 4694TIP3    H235718   4.671   3.988   2.185 -0.2986 -0.1020  0.3789
 4695TIP3   OH235719   6.766   5.772   1.765 -0.0876 -0.1850  0.2105
 4695TIP3    H135720   6.818   5.695   1.742  0.5618  0.3232 -0.0644
 4695TIP3    H235721   6.811   5.845   1.722 -1.2553  0.2260 -0.3459
 4696TIP3   OH235722   5.826   4.276   6.889 -0.1443 -0.7640  0.3891
 4696TIP3    H135723   5.883   4.225   6.832 -0.4809  0.0889 -0.7533
 4696TIP3    H235724   5.772   4.211   6.934 -3.0637 -1.5001 -3.5756
 4697TIP3   OH235725   6.138   2.578   0.744 -0.0235 -0.0218 -0.0806
 4697TIP3    H135726   6.081   2.616   0.677 -0.3584 -2.6330 -1.3897
 4697TIP3    H235727   6.079   2.548   0.813  0.1520  0.7722  0.4365
 4698TIP3   OH235728   4.235   2.169   1.679 -0.1794  0.2210 -0.0876
 4698TIP3    H135729   4.168   2.214   1.731 -2.8771 -1.5374 -1.7447
 4698TIP3    H235730   4.246   2.223   1.601 -0.6115 -0.0753 -0.3609
 4699TIP3   OH235731   6.401   6.416   6.720 -0.2551  0.1405 -0.7763
 4699TIP3    H135732   6.493   6.416   6.693  0.2340 -0.4802  0.7659
 4699TIP3    H235733   6.376   6.508   6.721  0.1460  0.2686 -1.8392
 4700TIP3   OH235734   3.418   5.364   0.439 -0.4549 -0.4941 -0.0945
 4700TIP3    H135735   3.423   5.401   0.527 -1.1518 -0.9547  0.1487
 4700TIP3    H235736   3.341   5.308   0.441 -1.5090  0.8239 -1.5101
 4701TIP3   OH235737   3.289   1.272   0.999  0.4587 -0.2558 -0.4050
 4701TIP3    H135738   3.383   1.271   0.981  0.3539 -1.1026 -1.0080
 4701TIP3    H235739   3.273   1.187   1.041  0.3711  0.9086  2.0277
 4702TIP3   OH235740   0.369   4.444   0.661 -0.1673 -0.4935 -0.7422
 4702TIP3    H135741   0.372   4.454   0.566  0.6910  0.4562 -0.6329
 4702TIP3    H235742   0.284   4.404   0.679 -0.1552 -1.0754 -1.9388
 4703TIP3   OH235743   6.175   5.278   0.200  0.1390  0.1222  0.0187
 4703TIP3    H135744   6.149   5.368   0.220 -0.5759 -0.3517  1.3392
 4703TIP3    H235745   6.264   5.270   0.234  0.0060  0.1758  0.3792
 4704TIP3   OH235746   3.281   3.725   8.219 -0.4060 -0.1900 -0.5788
 4704TIP3    H135747   3.260   3.753   8.130  0.3055  0.5045 -0.5316
 4704TIP3    H235748   3.215   3.768   8.273 -0.6170 -0.3213 -0.7278
 4705TIP3   OH235749   1.885   0.235   8.625 -0.2579 -0.2020 -0.0775
 4705TIP3    H135750   1.826   0.189   8.565  0.3735 -0.7899 -0.2592
 4705TIP3    H235751   1.836   0.241   8.707 -0.2394 -1.4799  0.0427
 4706TIP3   OH235752   4.963   6.138   6.906  0.1176  0.2748 -0.3402
 4706TIP3    H135753   4.925   6.200   6.967  0.0035 -0.9174  0.8561
 4706TIP3    H235754   4.951   6.178   6.820  1.9678  2.9086  0.4965
 4707TIP3   OH235755   5.300   5.063   0.863 -0.6392 -0.0113 -0.0300
 4707TIP3    H135756   5.345   5.131   0.814 -0.7137  0.0049 -0.0752
 4707TIP3    H235757   5.364   5.035   0.929 -0.6278  0.1403  0.0241
 4708TIP3   OH235758   2.912   4.080   8.084  0.2604 -0.7036 -0.2886
 4708TIP3    H135759   2.864   4.039   8.156  0.0813  0.0509  0.0245
 4708TIP3    H235760   2.986   4.021   8.070 -0.9386 -2.0901 -1.0471
 4709TIP3   OH235761   3.827   1.149   6.815  0.0441 -0.6745  0.2165
 4709TIP3    H135762   3.836   1.223   6.875 -1.3440  1.4869 -2.0408
 4709TIP3    H235763   3.917   1.124   6.793  0.5753 -1.3412  2.8382
 4710TIP3   OH235764   0.986   3.350   0.045 -0.7562  0.0231 -0.0561
 4710TIP3    H135765   1.045   3.279   0.070 -0.8871 -0.4568 -1.0743
 4710TIP3    H235766   0.912   3.342   0.105 -0.0502  0.3194  0.8989
 4711TIP3   OH235767   2.203   1.582   1.790  0.0948 -0.4958 -0.3883
 4711TIP3    H135768   2.296   1.603   1.789  0.6325 -2.6745 -0.6991
 4711TIP3    H235769   2.178   1.575   1.698 -0.3567 -0.0882 -0.3038
 4712TIP3   OH235770   4.341   4.362   6.746  0.2856 -0.0277  0.0144
 4712TIP3    H135771   4.364   4.436   6.691 -1.7573 -0.8029 -2.0450
 4712TIP3    H235772   4.250   4.378   6.772  0.6046 -0.6286  1.5897
 4713TIP3   OH235773   0.468   6.578   8.456 -0.2469 -0.0268  0.2730
 4713TIP3    H135774   0.491   6.591   8.364 -0.0366 -0.3841  0.2744
 4713TIP3    H235775   0.424   6.493   8.458 -0.8207  0.2696  0.4031
 4714TIP3   OH235776   2.072   2.586   1.730  0.0538  0.5580 -0.1395
 4714TIP3    H135777   2.098   2.674   1.759 -0.5086  0.5870  0.3009
 4714TIP3    H235778   1.985   2.574   1.766  0.1432 -0.2067 -0.1586
 4715TIP3   OH235779   3.136   2.701   7.676 -0.3065  0.2679  0.3951
 4715TIP3    H135780   3.114   2.609   7.688 -0.4603  0.2460 -0.0293
 4715TIP3    H235781   3.099   2.745   7.752 -0.6390  0.0417  0.3669
 4716TIP3   OH235782   5.268   3.265   0.919 -0.0532 -0.0356  0.2082
 4716TIP3    H135783   5.218   3.347   0.916  0.8577  0.6180  1.5606
 4716TIP3    H235784   5.349   3.285   0.871 -0.8064 -0.9336 -1.5417
 4717TIP3   OH235785   0.956   1.664   0.335  0.1387  0.8705 -0.0883
 4717TIP3    H135786   0.954   1.756   0.362  2.0547  0.6604  0.9491
 4717TIP3    H235787   0.884   1.624   0.384  0.4366  1.4866  0.9004
 4718TIP3   OH235788   4.033   0.964   0.731 -0.0678  0.0553  0.7854
 4718TIP3    H135789   3.986   1.005   0.804 -0.6900 -1.0489  1.0323
 4718TIP3    H235790   3.970   0.964   0.659  0.4765  0.9592  0.2908
 4719TIP3   OH235791   6.831   4.219   2.949  0.1208 -0.2200 -0.3716
 4719TIP3    H135792   6.756   4.266   2.984  0.1250  0.3958 -1.1872
 4719TIP3    H235793   6.906   4.276   2.966  0.4675 -0.9500  0.6870
 4720TIP3   OH235794   2.272   1.304   1.680  0.6037  0.2584 -0.5807
 4720TIP3    H135795   2.363   1.302   1.708  0.2155 -2.3981  0.7843
 4720TIP3    H235796   2.226   1.347   1.753  0.2816 -2.1115  0.7022
 4721TIP3   OH235797   2.097   6.456   8.271  0.1682 -0.3565  0.6891
 4721TIP3    H135798   2.029   6.518   8.243 -0.8253 -0.9883  1.5902
 4721TIP3    H235799   2.070   6.373   8.231  1.9734 -0.1005 -1.2544
 4722TIP3   OH235800   6.608   0.484   2.183 -0.4284 -0.7127 -0.2007
 4722TIP3    H135801   6.614   0.389   2.179  0.4728 -0.6559 -0.4077
 4722TIP3    H235802   6.622   0.513   2.093 -2.4610 -0.4394 -0.4960
 4723TIP3   OH235803   5.460   1.414   2.029  0.2144  0.2346  0.2961
 4723TIP3    H135804   5.409   1.488   1.998 -1.1658 -0.3236  1.1215
 4723TIP3    H235805   5.522   1.395   1.958 -2.1139 -0.3836 -1.6803
 4724TIP3   OH235806   0.293   5.973   8.354 -0.0038 -1.0252  0.4722
 4724TIP3    H135807   0.358   6.021   8.303 -2.3586  0.0517 -1.7843
 4724TIP3    H235808   0.309   5.999   8.445  1.1050  1.1614 -0.2835
 4725TIP3   OH235809   3.701   4.996   8.419  0.1071 -0.1975 -0.0992
 4725TIP3    H135810   3.658   4.985   8.335 -0.9080  2.0635  0.0561
 4725TIP3    H235811   3.755   4.917   8.429 -1.4273 -1.5464 -1.8263
 4726TIP3   OH235812   6.588   2.195   8.401 -0.2050  0.0001  0.1899
 4726TIP3    H135813   6.661   2.253   8.421  0.7843 -1.7491  2.0092
 4726TIP3    H235814   6.626   2.126   8.346 -1.5370  1.3558 -2.6430
 4727TIP3   OH235815   6.055   4.953   8.604 -0.1041 -0.3188  0.0939
 4727TIP3    H135816   6.055   4.917   8.693 -1.3993 -0.4369  0.0754
 4727TIP3    H235817   5.962   4.967   8.585  0.2223  0.6091 -0.8843
 4728TIP3   OH235818   3.240   2.161   0.214 -0.3783  0.0312  0.3670
 4728TIP3    H135819   3.205   2.164   0.125  0.5453 -1.6210 -0.0882
 4728TIP3    H235820   3.333   2.177   0.204  0.2209 -2.7597  0.6475
 4729TIP3   OH235821   5.132   3.120   2.486  0.5971 -0.5948  0.0721
 4729TIP3    H135822   5.186   3.176   2.542 -0.0685 -0.5818  0.7163
 4729TIP3    H235823   5.121   3.170   2.405 -0.5953  0.5785  0.9039
 4730TIP3   OH235824   2.602   4.219   0.896 -0.1929 -0.0784  0.0170
 4730TIP3    H135825   2.521   4.206   0.946 -0.9366  0.5672 -0.9762
 4730TIP3    H235826   2.614   4.314   0.895  0.5714 -0.1674  0.1237
 4731TIP3   OH235827   6.226   0.874   0.900  0.5282  0.0677 -0.5095
 4731TIP3    H135828   6.208   0.959   0.859  0.5786 -0.3319 -1.3972
 4731TIP3    H235829   6.272   0.824   0.831  0.3945 -0.7159 -0.0410
 4732TIP3   OH235830   2.702   5.554   1.266  0.2247  0.3974 -0.1561
 4732TIP3    H135831   2.669   5.643   1.278  0.2360  0.6937 -1.9716
 4732TIP3    H235832   2.730   5.527   1.353  2.2836  3.0157  0.1330
 4733TIP3   OH235833   6.623   0.216   2.200  0.7391 -0.1061 -0.1460
 4733TIP3    H135834   6.614   0.187   2.291  0.0652  2.3856  0.6649
 4733TIP3    H235835   6.700   0.169   2.168  1.2071 -0.7869  1.8189
 4734TIP3   OH235836   1.391   3.959   2.152 -0.4070  0.1299  0.4745
 4734TIP3    H135837   1.468   3.962   2.207  0.3068  1.1881 -0.5259
 4734TIP3    H235838   1.366   4.051   2.140 -0.4060 -0.0341 -1.0894
 4735TIP3   OH235839   5.196   3.814   7.564  0.4457  0.2700 -0.1210
 4735TIP3    H135840   5.195   3.833   7.658  0.1446 -1.1328  0.1873
 4735TIP3    H235841   5.215   3.898   7.523 -1.3443  1.3449  1.0782
 4736TIP3   OH235842   6.629   3.900   1.823 -0.1797  0.0799 -0.0601
 4736TIP3    H135843   6.604   3.905   1.731  0.9337 -0.3861 -0.4108
 4736TIP3    H235844   6.705   3.957   1.831  0.0710 -0.3089  0.4457
 4737TIP3   OH235845   6.704   1.466   2.658 -0.4976 -0.4380 -0.8808
 4737TIP3    H135846   6.685   1.558   2.636  1.8838 -0.4176 -3.4791
 4737TIP3    H235847   6.777   1.471   2.719 -1.4857 -0.6592  0.3714
 4738TIP3   OH235848   4.769   5.362   0.430  0.1599  0.6234  0.1084
 4738TIP3    H135849   4.822   5.372   0.351  0.4497 -1.3569  0.0170
 4738TIP3    H235850   4.823   5.309   0.489 -0.9055  0.2884  0.8080
 4739TIP3   OH235851   4.045   6.635   8.233  0.6571  0.3884  0.0555
 4739TIP3    H135852   4.055   6.723   8.269  1.5294 -0.5139  2.1979
 4739TIP3    H235853   3.963   6.602   8.269  0.3382  0.2857 -0.7277
 4740TIP3   OH235854   1.946   4.476   2.759 -0.7217 -0.1969  0.2772
 4740TIP3    H135855   1.865   4.465   2.709 -1.4793 -0.8932  1.5981
 4740TIP3    H235856   1.961   4.391   2.799 -0.4562  0.4759  1.6793
 4741TIP3   OH235857   3.893   3.489   8.052 -0.2254 -0.1115  1.0340
 4741TIP3    H135858   3.955   3.555   8.082  1.3776 -1.1290  0.0876
 4741TIP3    H235859   3.923   3.407   8.092  1.1416 -1.2474 -2.0427
 4742TIP3   OH235860   6.292   3.678   0.191  0.0662  0.3548  0.3035
 4742TIP3    H135861   6.206   3.680   0.149  1.2374 -0.5377 -2.3551
 4742TIP3    H235862   6.294   3.756   0.246 -2.4569  0.3303  0.5276
 4743TIP3   OH235863   5.188   2.413   0.808 -0.2216  0.1116  0.6965
 4743TIP3    H135864   5.220   2.330   0.843  0.2982  0.5997  1.3973
 4743TIP3    H235865   5.094   2.412   0.826 -0.5529 -1.0412 -0.7932
 4744TIP3   OH235866   2.419   5.116   1.002 -0.2398 -0.1326 -0.3971
 4744TIP3    H135867   2.460   5.202   1.013 -0.9054  0.5203 -2.3957
 4744TIP3    H235868   2.438   5.069   1.083 -0.5731  2.1895  1.1182
 4745TIP3   OH235869   3.869   5.809   6.817  0.7602  0.1858  0.7580
 4745TIP3    H135870   3.889   5.794   6.725 -1.2139  0.4236  0.2367
 4745TIP3    H235871   3.874   5.722   6.857  0.9273 -0.0291  0.2803
 4746TIP3   OH235872   1.250   4.792   0.218  0.0243 -0.3435  0.9113
 4746TIP3    H135873   1.222   4.820   0.306  1.2356  0.3631  1.1002
 4746TIP3    H235874   1.169   4.789   0.167 -0.4467  1.4519  1.4682
 4747TIP3   OH235875   3.484   2.269   0.179 -0.3260 -0.1945 -0.1255
 4747TIP3    H135876   3.511   2.316   0.258 -0.8758  0.5635 -0.3776
 4747TIP3    H235877   3.561   2.218   0.154  0.2405  0.4650  0.2314
 4748TIP3   OH235878   5.178   4.070   1.627 -0.7276  0.2160 -0.5675
 4748TIP3    H135879   5.144   3.987   1.592 -0.3422  0.1754 -0.8489
 4748TIP3    H235880   5.139   4.137   1.571 -3.7315  0.5130  1.6605
 4749TIP3   OH235881   1.849   4.725   7.921 -0.1176 -0.4416 -0.0297
 4749TIP3    H135882   1.843   4.671   8.001 -0.9861  0.2244  0.3690
 4749TIP3    H235883   1.804   4.806   7.943  1.5916  0.6750 -0.4667
 4750TIP3   OH235884   6.800   1.841   1.693  0.2051 -0.7365  0.1104
 4750TIP3    H135885   6.824   1.897   1.767  0.1750 -1.5281  0.7365
 4750TIP3    H235886   6.706   1.826   1.704 -0.1394  0.4518 -1.0131
 4751TIP3   OH235887   0.117   6.747   1.492 -1.1862  0.9107  0.5402
 4751TIP3    H135888   0.172   6.723   1.418 -0.2634  1.8288  0.9107
 4751TIP3    H235889   0.052   6.807   1.456 -0.6416  1.4790  0.4889
 4752TIP3   OH235890   4.094   5.518   1.637  0.0392  0.0023 -0.1346
 4752TIP3    H135891   3.999   5.529   1.632  0.1367  1.0294  0.0340
 4752TIP3    H235892   4.109   5.484   1.726  0.0137  2.3794  0.8468
 4753TIP3   OH235893   1.182   4.515   6.803  0.3760 -0.3399 -0.0997
 4753TIP3    H135894   1.161   4.607   6.813 -0.9071 -0.4103 -1.7718
 4753TIP3    H235895   1.274   4.514   6.774  0.2424  0.4455 -0.5659
 4754TIP3   OH235896   3.647   2.259   6.344  0.3418 -0.1602  1.0197
 4754TIP3    H135897   3.639   2.194   6.275  0.6059  0.7168  0.1461
 4754TIP3    H235898   3.738   2.255   6.372  0.3762 -0.1201  0.9143
 4755TIP3   OH235899   0.635   6.434   6.731  0.1842 -0.1009  0.4198
 4755TIP3    H135900   0.666   6.452   6.643  0.9260 -0.5260  0.5843
 4755TIP3    H235901   0.683   6.497   6.786  0.1108 -0.1797  0.5751
 4756TIP3   OH235902   3.570   1.270   7.257 -0.1728 -0.2830 -0.0952
 4756TIP3    H135903   3.560   1.344   7.196  1.2654  0.4674  0.5214
 4756TIP3    H235904   3.483   1.259   7.295 -0.5337  0.7934 -0.5497
 4757TIP3   OH235905   5.353   3.417   8.534 -0.4322 -0.2122  0.4172
 4757TIP3    H135906   5.349   3.502   8.577 -0.7471  0.2834 -0.5506
 4757TIP3    H235907   5.305   3.429   8.452  1.0725 -0.7896 -0.6009
 4758TIP3   OH235908   1.699   1.717   2.630 -0.9489  0.5798 -0.2899
 4758TIP3    H135909   1.647   1.723   2.550 -1.1895  0.2213 -0.1651
 4758TIP3    H235910   1.669   1.635   2.672  0.0741  0.0989 -0.4702
 4759TIP3   OH235911   5.249   6.395   1.327 -0.3657  0.2101  0.0227
 4759TIP3    H135912   5.221   6.374   1.238  0.0874 -0.8477  0.1169
 4759TIP3    H235913   5.331   6.348   1.339 -0.3488  0.4490  0.9568
 4760TIP3   OH235914   1.392   1.451   8.299 -0.3557  0.4380  0.2093
 4760TIP3    H135915   1.373   1.361   8.325  1.6295  0.1219  0.7249
 4760TIP3    H235916   1.402   1.446   8.204 -0.1018  0.0688  0.2514
 4761TIP3   OH235917   1.306   4.753   1.978  0.8012 -0.0547 -0.0211
 4761TIP3    H135918   1.371   4.717   1.918  0.4134 -0.3949 -0.2364
 4761TIP3    H235919   1.230   4.696   1.969  0.4562  0.3629  0.1992
 4762TIP3   OH235920   5.572   2.447   2.644  0.3495 -0.2765  0.6777
 4762TIP3    H135921   5.652   2.477   2.687 -0.0223 -0.1706  1.3178
 4762TIP3    H235922   5.532   2.387   2.707  0.2571 -0.8487  0.0838
 4763TIP3   OH235923   4.851   0.495   8.061 -0.0986 -0.3903 -0.1029
 4763TIP3    H135924   4.792   0.507   7.986 -1.2980  0.7160  0.9568
 4763TIP3    H235925   4.930   0.543   8.037  0.6415 -2.2961 -1.7584
 4764TIP3   OH235926   0.948   6.540   0.950 -0.4006 -0.1147 -0.3080
 4764TIP3    H135927   0.965   6.606   1.018  1.0458 -0.0800 -0.6703
 4764TIP3    H235928   0.863   6.565   0.913 -0.0635  1.3222 -0.1683
 4765TIP3   OH235929   5.259   1.039   8.445  0.0496  0.2478  0.2849
 4765TIP3    H135930   5.233   1.130   8.456  1.1106  0.4291  1.6175
 4765TIP3    H235931   5.348   1.035   8.480 -0.0954 -1.3578  0.5679
 4766TIP3   OH235932   1.801   3.698   8.617 -0.3535  0.4267  0.2267
 4766TIP3    H135933   1.867   3.757   8.654 -1.2377  1.3132  0.4233
 4766TIP3    H235934   1.850   3.618   8.596  1.0638  1.5227 -0.8648
 4767TIP3   OH235935   4.904   0.611   6.793  0.4755 -0.1871 -0.3050
 4767TIP3    H135936   4.836   0.611   6.860 -0.2870 -1.5972 -1.0520
 4767TIP3    H235937   4.969   0.548   6.825  0.8825  0.3041 -0.1493
 4768TIP3   OH235938   6.127   0.344   1.497 -0.5161 -0.5967 -0.0417
 4768TIP3    H135939   6.044   0.381   1.527  0.3353  1.6366 -0.2336
 4768TIP3    H235940   6.137   0.378   1.408  1.5789  1.0197  0.7353
 4769TIP3   OH235941   4.552   6.194   0.530  0.3605  0.6804  0.3181
 4769TIP3    H135942   4.557   6.259   0.601  0.6351  3.1533 -1.8218
 4769TIP3    H235943   4.458   6.183   0.514  0.2683 -0.4019  1.4304
 4770TIP3   OH235944   0.811   1.558   0.999  0.0227 -0.5511 -0.6168
 4770TIP3    H135945   0.794   1.507   0.920  0.3181 -1.3388 -0.1789
 4770TIP3    H235946   0.741   1.624   1.000 -0.5649 -1.1533 -1.0141
 4771TIP3   OH235947   3.129   1.031   1.515  0.4368  0.4315  0.0909
 4771TIP3    H135948   3.117   0.952   1.568 -0.4915 -0.0284 -0.7659
 4771TIP3    H235949   3.114   1.104   1.576 -1.4686 -0.0902  0.2896
 4772TIP3   OH235950   0.549   3.521   7.167  0.5343 -0.9341  0.2985
 4772TIP3    H135951   0.561   3.529   7.072  1.6024  0.1222  0.5045
 4772TIP3    H235952   0.544   3.426   7.183 -0.6040 -1.1050 -0.9061
 4773TIP3   OH235953   5.555   3.109   2.771 -0.3304  0.0898 -0.3834
 4773TIP3    H135954   5.554   3.205   2.773 -0.0350  0.1297 -1.4703
 4773TIP3    H235955   5.477   3.084   2.821 -0.5249  0.8966 -0.2622
 4774TIP3   OH235956   2.266   2.164   3.034  0.3692  0.0530  0.0712
 4774TIP3    H135957   2.194   2.226   3.046 -0.6611 -1.2063  0.6377
 4774TIP3    H235958   2.335   2.215   2.992 -0.2770  1.6836  0.9295
 4775TIP3   OH235959   3.631   3.306   7.851  0.5222 -0.1862 -0.0352
 4775TIP3    H135960   3.591   3.221   7.831  0.0252 -0.7004  2.7183
 4775TIP3    H235961   3.723   3.294   7.830  0.2145 -0.9155 -1.0560
 4776TIP3   OH235962   5.995   4.505   1.447  0.1707  0.5965 -0.1640
 4776TIP3    H135963   5.977   4.595   1.475 -0.1869  0.3337  0.4998
 4776TIP3    H235964   5.933   4.452   1.498  0.9366 -0.0955  0.0788
 4777TIP3   OH235965   4.951   2.297   6.615  0.3967 -0.1692  0.3019
 4777TIP3    H135966   4.914   2.335   6.694 -0.8340 -0.9858  0.1469
 4777TIP3    H235967   4.963   2.205   6.636 -1.7962 -0.8392 -1.0345
 4778TIP3   OH235968   6.688   1.664   8.145  0.1668  0.1406  0.1426
 4778TIP3    H135969   6.618   1.649   8.209 -1.7839  0.6688 -1.7360
 4778TIP3    H235970   6.667   1.605   8.072  1.3378  0.7649 -0.7369
 4779TIP3   OH235971   5.689   5.816   1.147 -0.2605  0.2638 -0.2297
 4779TIP3    H135972   5.665   5.731   1.184  0.1678  0.2524  0.0228
 4779TIP3    H235973   5.784   5.821   1.156 -0.4477  1.7105  1.8551
 4780TIP3   OH235974   3.150   6.426   0.483  0.1347  0.4530 -0.1708
 4780TIP3    H135975   3.124   6.358   0.546 -3.4753  0.6226 -1.2161
 4780TIP3    H235976   3.207   6.381   0.421  0.7939 -0.6401  1.1795
 4781TIP3   OH235977   5.185   4.321   1.343  0.6269  0.0665  0.2679
 4781TIP3    H135978   5.109   4.265   1.333 -0.0164  0.8124  0.8224
 4781TIP3    H235979   5.187   4.372   1.262  0.9177 -0.3988 -0.0207
 4782TIP3   OH235980   1.643   0.524   2.043 -0.2954  0.4586 -0.2215
 4782TIP3    H135981   1.680   0.457   2.100  1.2566 -0.2016 -1.9130
 4782TIP3    H235982   1.578   0.478   1.991 -0.3460  0.6143 -0.2967
 4783TIP3   OH235983   5.557   3.305   0.570  0.3028 -0.9255 -0.3389
 4783TIP3    H135984   5.640   3.312   0.617  0.7023 -0.9752 -1.0292
 4783TIP3    H235985   5.579   3.322   0.479 -0.3600 -1.4342 -0.6054
 4784TIP3   OH235986   4.166   3.101   6.805  0.3731  0.0341 -0.2176
 4784TIP3    H135987   4.092   3.091   6.866 -0.4156 -0.3256 -1.1948
 4784TIP3    H235988   4.129   3.151   6.732  1.1375 -0.0457 -0.6636
 4785TIP3   OH235989   2.120   5.274   1.139  0.6872  0.5640  0.2030
 4785TIP3    H135990   2.136   5.222   1.218  3.3675  2.7264  1.2158
 4785TIP3    H235991   2.120   5.210   1.068 -1.5822 -1.4222  1.8067
 4786TIP3   OH235992   2.148   0.819   0.868 -0.3297  0.5314  0.3954
 4786TIP3    H135993   2.118   0.906   0.841  0.3275  0.7454  0.3326
 4786TIP3    H235994   2.159   0.771   0.786 -0.0528  0.6078  0.3856
 4787TIP3   OH235995   2.597   2.416   2.216  0.3822  0.1217 -0.1730
 4787TIP3    H135996   2.573   2.371   2.135 -0.3480  1.6946 -0.8901
 4787TIP3    H235997   2.519   2.468   2.238  1.3661  1.4775  0.2545
 4788TIP3   OH235998   2.359   1.459   8.656  0.2802 -0.5812 -0.0978
 4788TIP3    H135999   2.302   1.390   8.622 -0.0916 -0.0017 -0.6740
 4788TIP3    H236000   2.304   1.508   8.716  0.3588 -0.4059 -0.1700
 4789TIP3   OH236001   3.885   1.981   0.592  0.0483 -0.5925 -0.1946
 4789TIP3    H136002   3.968   1.983   0.640  1.8784 -2.9775 -2.9174
 4789TIP3    H236003   3.882   1.894   0.552 -2.7407  0.1853 -1.9931
 4790TIP3   OH236004   5.536   0.474   7.305  0.7057 -0.1468  0.1141
 4790TIP3    H136005   5.551   0.506   7.394 -0.0003 -0.1717  0.2434
 4790TIP3    H236006   5.444   0.449   7.303  0.9350 -0.9916 -0.3609
 4791TIP3   OH236007   1.167   2.525   7.413  0.0615 -0.1333 -0.3919
 4791TIP3    H136008   1.108   2.463   7.456 -0.2881  1.4936  1.5601
 4791TIP3    H236009   1.119   2.553   7.335 -0.8974 -0.3115  0.1208
 4792TIP3   OH236010   5.180   4.328   8.102 -0.4328  0.1019 -0.0303
 4792TIP3    H136011   5.205   4.419   8.088  0.9502 -0.4484 -1.4873
 4792TIP3    H236012   5.245   4.294   8.163 -0.1811 -0.2228 -0.4712
 4793TIP3   OH236013   2.367   3.871   7.039  0.4473  0.5722  0.1365
 4793TIP3    H136014   2.437   3.833   7.093  0.2540  0.7217  0.4944
 4793TIP3    H236015   2.410   3.941   6.991  0.7074  0.1928 -0.1999
 4794TIP3   OH236016   1.510   4.928   0.893 -0.4825 -0.3074  0.1445
 4794TIP3    H136017   1.593   4.884   0.878  0.6007  2.2247 -2.1707
 4794TIP3    H236018   1.449   4.858   0.917  1.7200 -2.5834 -0.5209
 4795TIP3   OH236019   6.128   1.173   7.794 -0.5167 -0.3875  0.1876
 4795TIP3    H136020   6.125   1.118   7.873 -0.3130 -0.8723 -0.1388
 4795TIP3    H236021   6.037   1.201   7.781 -0.3312  0.8860  1.4126
 4796TIP3   OH236022   6.252   6.396   0.355  0.4940  0.6104 -0.4981
 4796TIP3    H136023   6.188   6.346   0.407  1.8530  0.8082  1.4996
 4796TIP3    H236024   6.212   6.403   0.269 -2.0399  0.4649  0.5612
 4797TIP3   OH236025   4.000   4.814   2.508  0.6264 -0.5102  0.3056
 4797TIP3    H136026   4.094   4.797   2.498  0.8819  1.0604 -0.2182
 4797TIP3    H236027   3.988   4.902   2.472 -0.5205  0.5268  2.9201
 4798TIP3   OH236028   1.049   0.042   6.358  0.2010 -0.0503  0.3239
 4798TIP3    H136029   1.124  -0.003   6.320  1.0397  0.3846  1.3930
 4798TIP3    H236030   1.011  -0.021   6.419  0.4716  0.1590  0.7148
 4799TIP3   OH236031   0.510   6.094   8.247  0.2886 -0.2495 -0.3033
 4799TIP3    H136032   0.561   6.017   8.273 -0.1904 -0.2861  0.5762
 4799TIP3    H236033   0.567   6.168   8.265  0.7301 -0.3852 -1.0969
 4800TIP3   OH236034   5.943   2.022   7.650  0.2494  0.9534 -0.6814
 4800TIP3    H136035   5.910   2.000   7.562 -0.3621 -0.0652 -0.2114
 4800TIP3    H236036   6.037   2.029   7.639  0.1135  1.5772 -1.5731
 4801TIP3   OH236037   0.498   2.061   2.319 -0.4623 -0.8908 -0.2001
 4801TIP3    H136038   0.419   2.050   2.372  0.2678  1.3809  1.5409
 4801TIP3    H236039   0.570   2.053   2.381  0.5333  0.1420 -1.1711
 4802TIP3   OH236040   2.923   3.617   0.961 -0.1993 -0.1383 -0.5525
 4802TIP3    H136041   2.960   3.543   0.913 -0.8593 -1.2983  0.6977
 4802TIP3    H236042   2.944   3.599   1.053  0.0469  1.4760 -0.2592
 4803TIP3   OH236043   3.313   3.999   2.038 -0.8618  0.1368 -0.1036
 4803TIP3    H136044   3.340   4.051   1.963 -0.1162 -0.0057  0.0569
 4803TIP3    H236045   3.364   4.033   2.111 -1.1072 -0.1548  0.2087
 4804TIP3   OH236046   3.121   3.656   1.443  0.0878 -0.2578 -0.3984
 4804TIP3    H136047   3.143   3.570   1.478  0.1833 -0.6517 -1.3934
 4804TIP3    H236048   3.156   3.718   1.507 -0.5059 -0.9637  0.6200
 4805TIP3   OH236049   4.533   4.160   1.982  0.0332  0.0436  0.2152
 4805TIP3    H136050   4.443   4.128   1.996  0.2712 -0.0033  1.8009
 4805TIP3    H236051   4.524   4.256   1.981  0.1005  0.1040  1.7885
 4806TIP3   OH236052   4.512   1.799   8.647 -0.1125 -0.0062  0.1216
 4806TIP3    H136053   4.469   1.863   8.704  2.3141  0.2685  1.8175
 4806TIP3    H236054   4.542   1.730   8.707  0.2678 -1.0411 -1.2039
 4807TIP3   OH236055   2.560   0.178   0.703  0.3642  0.6149 -0.2634
 4807TIP3    H136056   2.565   0.103   0.644  1.2493 -0.7248  1.4278
 4807TIP3    H236057   2.486   0.158   0.761  0.2971  1.3065 -0.0993
 4808TIP3   OH236058   2.961   4.680   8.491 -0.4255  0.2325 -0.3053
 4808TIP3    H136059   3.008   4.739   8.550 -0.6315 -0.4101  0.5167
 4808TIP3    H236060   2.989   4.707   8.403 -0.3870  1.4348  0.0597
 4809TIP3   OH236061   1.351   5.704   8.063  0.0602  0.6552 -0.1191
 4809TIP3    H136062   1.429   5.759   8.051  0.8293  0.3793  2.8488
 4809TIP3    H236063   1.356   5.675   8.154 -1.8935 -1.9535 -0.7269
 4810TIP3   OH236064   5.104   5.326   6.458  0.2824  0.2464 -0.0553
 4810TIP3    H136065   5.142   5.409   6.486  2.1447 -0.6823  0.3184
 4810TIP3    H236066   5.081   5.282   6.539 -2.2883  1.0380 -0.2795
 4811TIP3   OH236067   1.742   2.322   2.592  0.0924 -0.3946  0.2649
 4811TIP3    H136068   1.828   2.330   2.632 -0.2218 -1.4535  1.2024
 4811TIP3    H236069   1.711   2.412   2.582 -0.4525 -0.0518  3.8604
 4812TIP3   OH236070   5.010   0.798   2.659 -0.0673 -0.0739  0.5482
 4812TIP3    H136071   5.025   0.840   2.575 -1.1782  2.1881  1.3834
 4812TIP3    H236072   5.049   0.711   2.651 -1.5836 -0.5723 -2.8469
 4813TIP3   OH236073   5.058   6.470   2.390  0.9235 -0.0597 -0.0993
 4813TIP3    H136074   5.080   6.380   2.365  0.1599 -0.1233 -0.5951
 4813TIP3    H236075   4.964   6.467   2.409  0.9607  0.5634  0.2026
 4814TIP3   OH236076   1.251   3.057   1.558 -0.6370 -0.2781 -1.0179
 4814TIP3    H136077   1.245   3.151   1.545  0.9643 -0.1678 -1.1607
 4814TIP3    H236078   1.303   3.025   1.483  2.2755 -0.6731  0.9878
 4815TIP3   OH236079   1.502   2.462   0.350 -0.5245 -0.6519  0.4318
 4815TIP3    H136080   1.452   2.395   0.396  0.0244 -0.5064  1.2765
 4815TIP3    H236081   1.572   2.485   0.411  1.8602 -2.3267 -1.4816
 4816TIP3   OH236082   5.091   4.028   2.771  0.3489  0.4612 -0.2530
 4816TIP3    H136083   5.174   3.984   2.754  0.0668 -1.0373  1.8999
 4816TIP3    H236084   5.111   4.093   2.838  0.1218  1.4030 -1.0751
 4817TIP3   OH236085   0.312   6.602   7.980  0.7258  0.1248 -0.3957
 4817TIP3    H136086   0.235   6.571   8.029  0.1005  2.1600  0.0237
 4817TIP3    H236087   0.297   6.574   7.890  0.5084 -1.2653  0.0600
 4818TIP3   OH236088   1.009   6.509   1.325  0.3428  0.0717 -0.1461
 4818TIP3    H136089   0.944   6.458   1.276  1.1585 -0.5761 -0.5921
 4818TIP3    H236090   1.081   6.448   1.340  1.7963  1.3255 -1.5630
 4819TIP3   OH236091   1.481   0.969   1.834 -0.4337  0.3387  0.4729
 4819TIP3    H136092   1.425   0.895   1.814 -0.4102 -0.0723  1.8628
 4819TIP3    H236093   1.550   0.933   1.890  1.9618  0.5582 -2.0823
 4820TIP3   OH236094   3.867   4.454   8.297 -0.6424 -0.4697  0.4496
 4820TIP3    H136095   3.920   4.375   8.311  0.0637  0.0278  0.6662
 4820TIP3    H236096   3.778   4.428   8.321 -0.2642 -0.9564  1.4009
 4821TIP3   OH236097   1.731   0.251   6.958  0.3384  0.2605 -0.2800
 4821TIP3    H136098   1.742   0.281   6.867 -2.5538  0.7898 -0.5296
 4821TIP3    H236099   1.737   0.331   7.010  4.0178 -0.2544  0.3354
 4822TIP3   OH236100   2.299   6.854   0.753 -0.1746 -0.1841 -0.2502
 4822TIP3    H136101   2.336   6.766   0.743  0.1686 -0.0058 -0.6162
 4822TIP3    H236102   2.301   6.890   0.664 -2.2258 -0.5485 -0.4773
 4823TIP3   OH236103   2.062   2.552   1.453  0.0937  0.0389  0.3560
 4823TIP3    H136104   2.050   2.645   1.434 -2.3844 -0.6133 -1.9375
 4823TIP3    H236105   2.045   2.544   1.547 -1.0552  1.7234  0.3345
 4824TIP3   OH236106   2.803   3.684   2.629  0.1483  0.6089 -0.4661
 4824TIP3    H136107   2.825   3.747   2.699  0.8053 -0.4060  0.2731
 4824TIP3    H236108   2.851   3.605   2.653 -1.8796 -0.7035 -0.5157
 4825TIP3   OH236109   4.389   2.607   0.866 -0.3839 -0.2451 -0.7997
 4825TIP3    H136110   4.440   2.556   0.803  0.0995 -2.3133  1.1109
 4825TIP3    H236111   4.455   2.651   0.920 -0.6881 -0.5725 -0.1495
 4826TIP3   OH236112   4.195   5.662   0.855  0.1986 -0.2314 -0.3291
 4826TIP3    H136113   4.146   5.729   0.903 -1.9579 -1.6821 -0.3992
 4826TIP3    H236114   4.233   5.606   0.923  1.8762  0.9039 -0.2743
 4827TIP3   OH236115   4.871   3.731   0.196  0.1578 -0.7036 -0.1323
 4827TIP3    H136116   4.895   3.691   0.112  0.2296 -0.2749 -0.3169
 4827TIP3    H236117   4.792   3.685   0.222 -1.5664  1.1145 -1.8513
 4828TIP3   OH236118   1.810   0.272   7.303  0.6774 -0.0296  0.1105
 4828TIP3    H136119   1.743   0.322   7.256 -0.6148 -0.8983  0.9688
 4828TIP3    H236120   1.824   0.321   7.384 -2.4093 -2.1520  2.1434
 4829TIP3   OH236121   1.651   3.557   7.992  0.4884  0.3091  0.0804
 4829TIP3    H136122   1.671   3.491   8.058  0.3539  1.0433  0.8843
 4829TIP3    H236123   1.693   3.526   7.912 -1.3268 -1.8168 -0.1411
 4830TIP3   OH236124   3.103   3.773   7.369 -0.4248 -0.5139  0.6143
 4830TIP3    H136125   3.169   3.841   7.384  0.8489 -0.9882 -2.1863
 4830TIP3    H236126   3.021   3.812   7.400  0.4952  1.7415  0.4332
 4831TIP3   OH236127   3.102   6.181   0.718 -0.1332  0.3685  0.2865
 4831TIP3    H136128   3.171   6.242   0.744  0.2847  0.6478 -1.3405
 4831TIP3    H236129   3.149   6.105   0.683 -0.6574 -0.0733  0.5263
 4832TIP3   OH236130   1.768   3.464   3.074 -0.2942 -0.2510 -0.2986
 4832TIP3    H136131   1.825   3.541   3.076 -2.2687  1.3598 -1.6066
 4832TIP3    H236132   1.819   3.395   3.116  1.9731  1.4830 -0.0104
 4833TIP3   OH236133   5.780   1.501   1.604 -0.0064  0.7701 -0.0701
 4833TIP3    H136134   5.847   1.486   1.671 -0.7342  1.0525  0.7402
 4833TIP3    H236135   5.784   1.423   1.549  0.3388  0.3503  0.5383
 4834TIP3   OH236136   3.156   3.454   7.768 -0.4071 -0.3892 -0.0093
 4834TIP3    H136137   3.161   3.459   7.863  0.7077  2.0395 -0.1182
 4834TIP3    H236138   3.206   3.376   7.745  1.3842  0.3111  1.3079
 4835TIP3   OH236139   1.025   2.022   1.014  0.1892 -0.8234  0.1064
 4835TIP3    H136140   1.032   1.975   0.931 -1.2697 -0.7599 -0.0761
 4835TIP3    H236141   1.016   1.954   1.080  1.9606 -0.9023  0.3357
 4836TIP3   OH236142   0.883   0.151   0.869 -0.2567 -0.2595  0.2527
 4836TIP3    H136143   0.883   0.059   0.843  1.0275 -0.7269  1.7782
 4836TIP3    H236144   0.830   0.152   0.949  1.7034 -0.1565  1.6241
 4837TIP3   OH236145   0.628   0.438   2.450  0.0008  0.0555  0.8551
 4837TIP3    H136146   0.598   0.512   2.503 -0.3954 -0.5171  1.4480
 4837TIP3    H236147   0.559   0.427   2.384  0.9081  1.3175 -0.3631
 4838TIP3   OH236148   1.606   0.007   0.289 -0.2147 -0.3915 -0.4025
 4838TIP3    H136149   1.667  -0.019   0.220 -0.5695 -0.0812 -0.8285
 4838TIP3    H236150   1.529   0.041   0.243 -1.7678 -3.0107  0.0461
 4839TIP3   OH236151   3.459   0.442   0.901  0.0079  0.1287  0.5890
 4839TIP3    H136152   3.433   0.352   0.918 -2.2985  0.9248  1.6817
 4839TIP3    H236153   3.526   0.436   0.833  0.7694 -2.4561  1.4728
 4840TIP3   OH236154   5.228   6.571   0.730 -0.0642 -0.2955 -0.0062
 4840TIP3    H136155   5.266   6.488   0.761 -0.8054 -0.3347  0.8282
 4840TIP3    H236156   5.138   6.549   0.706 -0.3408  0.3098  0.4478
 4841TIP3   OH236157   4.039   6.830   1.007  0.0984  0.0369  0.1635
 4841TIP3    H136158   4.101   6.902   1.016  0.9806 -0.7853  0.9378
 4841TIP3    H236159   3.992   6.828   1.090  0.8296 -0.9274  0.5749
 4842TIP3   OH236160   2.040   1.438   0.643  0.4171  0.2432 -0.8257
 4842TIP3    H136161   2.016   1.487   0.721  0.1542 -2.6378  1.0816
 4842TIP3    H236162   2.136   1.437   0.644  0.4268 -0.6979  0.1911
 4843TIP3   OH236163   6.179   1.122   1.822  0.5445  0.0960  0.8191
 4843TIP3    H136164   6.140   1.118   1.735  0.0596 -1.1287  1.0748
 4843TIP3    H236165   6.105   1.115   1.882  0.7843  1.7407  1.3716
 4844TIP3   OH236166   4.797   2.749   2.550 -0.5791  0.0728  0.3845
 4844TIP3    H136167   4.854   2.688   2.598 -1.7950 -1.9538 -0.5727
 4844TIP3    H236168   4.753   2.799   2.618  2.4933  1.9930  1.1599
 4845TIP3   OH236169   5.701   2.511   1.856 -0.0125 -0.0774 -0.4296
 4845TIP3    H136170   5.771   2.576   1.855 -0.5430  0.5629  1.1944
 4845TIP3    H236171   5.661   2.516   1.769 -0.1071  1.8605 -0.3065
 4846TIP3   OH236172   4.137   0.470   0.380 -0.4661 -0.4105  0.4769
 4846TIP3    H136173   4.184   0.552   0.387 -0.1001 -0.4954 -0.8754
 4846TIP3    H236174   4.187   0.409   0.434  1.4114 -0.6807 -1.4715
 4847TIP3   OH236175   1.877   2.849   7.748  0.1447 -0.1273  0.1533
 4847TIP3    H136176   1.927   2.849   7.830 -0.6049 -2.5542  0.6808
 4847TIP3    H236177   1.944   2.845   7.680  0.7499  1.0473  0.6346
 4848TIP3   OH236178   4.546   2.147   7.675 -0.3997 -0.3770  0.2676
 4848TIP3    H136179   4.562   2.228   7.627  0.6682 -0.5302  0.3416
 4848TIP3    H236180   4.624   2.094   7.660 -0.5125 -0.8618  1.2956
 4849TIP3   OH236181   2.311   5.068   0.336 -0.2066 -0.0041 -0.2666
 4849TIP3    H136182   2.218   5.061   0.358 -0.0428 -1.2936  0.0816
 4849TIP3    H236183   2.341   5.146   0.383 -0.6100 -0.8473  1.4832
 4850TIP3   OH236184   2.245   2.871   7.648  0.1121  0.2645 -0.0791
 4850TIP3    H136185   2.242   2.922   7.567 -1.1675  0.9636  0.3884
 4850TIP3    H236186   2.177   2.805   7.638  0.7834 -0.4461 -0.0723
 4851TIP3   OH236187   5.201   0.266   7.845  0.6738  0.2809 -0.2384
 4851TIP3    H136188   5.114   0.253   7.807  0.8469  1.3037 -1.0166
 4851TIP3    H236189   5.230   0.177   7.868 -0.8576 -0.0157  0.7157
 4852TIP3   OH236190   2.645   3.087   2.183 -0.3830  0.8022 -0.2991
 4852TIP3    H136191   2.721   3.116   2.233 -0.3251  1.4957 -0.7723
 4852TIP3    H236192   2.594   3.167   2.169 -1.3098  0.3064  0.1976
 4853TIP3   OH236193   3.794   5.794   8.433  0.4023  0.4567 -0.1466
 4853TIP3    H136194   3.752   5.763   8.514 -0.8674 -0.3660 -1.0934
 4853TIP3    H236195   3.740   5.758   8.363  2.3485 -0.1096 -1.4167
 4854TIP3   OH236196   3.634   1.031   1.856  0.1117  0.7213  0.3545
 4854TIP3    H136197   3.705   1.065   1.802  0.6849 -0.3689  0.3967
 4854TIP3    H236198   3.676   1.004   1.938  0.1398 -2.2521 -0.5296
 4855TIP3   OH236199   0.640   3.199   0.074 -0.1071  0.1772  0.1144
 4855TIP3    H136200   0.651   3.235  -0.014  1.6542  0.9332  0.6047
 4855TIP3    H236201   0.726   3.162   0.096 -0.5940 -0.2333  1.4244
 4856TIP3   OH236202   3.160   1.731   1.415  0.0860  0.9092  0.4606
 4856TIP3    H136203   3.178   1.824   1.401 -0.3419  1.5225  3.2118
 4856TIP3    H236204   3.146   1.724   1.510  2.6126 -2.3957  0.7961
 4857TIP3   OH236205   1.069   2.285   7.508  0.0291  0.0074 -0.4050
 4857TIP3    H136206   1.093   2.231   7.583  0.3122  1.4105  0.5355
 4857TIP3    H236207   1.135   2.265   7.442  1.2312  0.5475  0.5890
 4858TIP3   OH236208   6.393   6.817   2.012  0.1333  0.0496  0.3685
 4858TIP3    H136209   6.349   6.899   1.991  0.5064  0.1818  0.1191
 4858TIP3    H236210   6.321   6.757   2.034 -0.1536  0.3571  0.2698
 4859TIP3   OH236211   5.506   3.159   1.782 -0.0131  0.1784  0.0975
 4859TIP3    H136212   5.532   3.228   1.842 -0.4174  0.3936  0.0312
 4859TIP3    H236213   5.468   3.205   1.707  1.1383 -0.0610 -0.6516
 4860TIP3   OH236214   2.077   3.528   3.070 -0.4186 -0.3574  0.3412
 4860TIP3    H136215   2.106   3.437   3.063  0.9243  0.0474  0.4168
 4860TIP3    H236216   2.068   3.558   2.979 -2.2016 -0.9317  0.2740
 4861TIP3   OH236217   0.230   1.459   0.148  0.3522 -0.0490  0.4026
 4861TIP3    H136218   0.258   1.504   0.068  1.0954 -1.9680 -0.4553
 4861TIP3    H236219   0.145   1.499   0.169  0.6598  1.2588 -0.6893
 4862TIP3   OH236220   4.465   4.189   1.610  0.2290  0.3348 -0.4673
 4862TIP3    H136221   4.433   4.215   1.523 -0.0726  0.2282 -0.3902
 4862TIP3    H236222   4.523   4.260   1.636  0.8472  0.0476 -1.0384
 4863TIP3   OH236223   0.176   1.866   1.961  0.0322 -0.4436 -0.2337
 4863TIP3    H136224   0.239   1.883   2.031  2.3944  3.1177 -2.8680
 4863TIP3    H236225   0.109   1.933   1.972 -0.0705 -0.4428 -0.8516
 4864TIP3   OH236226   5.138   5.146   7.494 -0.3696  0.5145  0.4278
 4864TIP3    H136227   5.201   5.099   7.440 -1.9626 -1.9369  0.5621
 4864TIP3    H236228   5.156   5.239   7.477  1.9484 -0.1301 -0.9948
 4865TIP3   OH236229   4.432   5.764   1.475  0.0501 -0.5500  0.4391
 4865TIP3    H136230   4.424   5.794   1.384  0.9706 -0.8026  0.2711
 4865TIP3    H236231   4.347   5.785   1.514 -0.6613 -1.1706 -0.6961
 4866TIP3   OH236232   6.218   1.084   0.696 -0.3584 -0.0766  0.1139
 4866TIP3    H136233   6.131   1.078   0.657 -0.3535 -0.4847  0.1667
 4866TIP3    H236234   6.266   1.010   0.660 -0.8966 -1.5568  2.2554
 4867TIP3   OH236235   1.758   5.883   8.306 -0.6270  0.9399  0.2664
 4867TIP3    H136236   1.806   5.966   8.314 -0.3245  0.6662  1.5451
 4867TIP3    H236237   1.789   5.830   8.380 -1.9246  0.2535  0.3503
 4868TIP3   OH236238   0.771   0.123   8.414  0.3101  0.2451  0.7310
 4868TIP3    H136239   0.749   0.203   8.366  2.5392 -0.1265 -1.0428
 4868TIP3    H236240   0.849   0.147   8.465  0.8000 -0.6899  0.4392
 4869TIP3   OH236241   6.297   4.565   8.331  0.2167 -0.3847  0.0377
 4869TIP3    H136242   6.257   4.617   8.261  1.9919  0.8314 -0.1476
 4869TIP3    H236243   6.285   4.619   8.410  2.5618  0.6857 -0.2510
 4870TIP3   OH236244   4.328   6.616   1.946  0.0522 -0.9446 -0.0584
 4870TIP3    H136245   4.270   6.569   1.886 -0.5290 -1.0423  0.5699
 4870TIP3    H236246   4.332   6.705   1.912 -0.6457 -0.8809  0.0151
 4871TIP3   OH236247   4.961   1.167   0.046  0.1614 -0.7422  0.3223
 4871TIP3    H136248   4.961   1.079   0.009  0.1268 -0.7605  0.3662
 4871TIP3    H236249   4.874   1.176   0.085 -0.6399  0.0880 -1.5547
 4872TIP3   OH236250   6.819   0.382   0.203 -0.4826  1.2336  0.0997
 4872TIP3    H136251   6.844   0.331   0.280  1.0024 -0.7974 -1.6243
 4872TIP3    H236252   6.724   0.375   0.200 -0.5210  0.8815  1.4323
 4873TIP3   OH236253   0.691   3.255   0.465 -0.4860  0.6405  0.2703
 4873TIP3    H136254   0.620   3.204   0.426 -0.4933  1.2271 -0.5102
 4873TIP3    H236255   0.652   3.299   0.539 -1.1134  1.4559 -0.5264
 4874TIP3   OH236256   2.022   0.550   0.959  0.2359 -0.5161  0.6147
 4874TIP3    H136257   1.936   0.561   0.919 -0.8140 -0.2461  2.7828
 4874TIP3    H236258   2.078   0.613   0.914 -0.9789  0.0971 -0.0800
 4875TIP3   OH236259   0.160   4.206   1.972 -0.2164 -0.8462 -0.2913
 4875TIP3    H136260   0.213   4.157   2.035  0.7294  1.8971  1.2153
 4875TIP3    H236261   0.215   4.214   1.895  0.1522 -0.9820 -0.0446
 4876TIP3   OH236262   4.692   3.641   8.162  0.1089  0.1257 -0.5845
 4876TIP3    H136263   4.742   3.666   8.239  1.5680 -3.1092 -0.3120
 4876TIP3    H236264   4.756   3.600   8.104 -1.6693 -1.2169 -1.7187
 4877TIP3   OH236265   1.690   2.118   8.572  0.2740  0.7652  0.3339
 4877TIP3    H136266   1.601   2.117   8.608  1.4375  0.9729  3.5598
 4877TIP3    H236267   1.704   2.208   8.543 -1.8297 -0.1096 -4.1730
 4878TIP3   OH236268   6.873   3.013   0.934 -0.6319  0.3630  0.3842
 4878TIP3    H136269   6.939   2.970   0.988 -1.1354 -2.1243 -0.8646
 4878TIP3    H236270   6.888   2.979   0.846 -3.3840 -0.0922  0.0067
 4879TIP3   OH236271   5.517   4.852   0.473  0.1050 -0.0672  0.4719
 4879TIP3    H136272   5.531   4.809   0.558  0.1013  0.0784  0.5464
 4879TIP3    H236273   5.422   4.864   0.468  0.0097 -0.9438  0.0201
 4880TIP3   OH236274   1.784   3.821   1.123 -0.3405 -0.6780 -0.2874
 4880TIP3    H136275   1.707   3.825   1.179  1.3526  2.0740  2.1354
 4880TIP3    H236276   1.852   3.783   1.178  0.5581 -1.1379 -1.6566
 4881TIP3   OH236277   2.225   6.361   1.968  0.3383 -0.1052  0.3199
 4881TIP3    H136278   2.238   6.285   2.026 -2.0906  0.2243  1.4265
 4881TIP3    H236279   2.136   6.349   1.934  1.0753  0.6377 -2.0319
 4882TIP3   OH236280   6.597   5.012   6.645  0.2967  0.3602  0.3339
 4882TIP3    H136281   6.540   4.992   6.571  0.2020  0.4543  0.3805
 4882TIP3    H236282   6.615   5.105   6.637 -0.7897  0.6737  1.1631
 4883TIP3   OH236283   4.113   1.969   1.054 -0.0927  0.7942 -0.3541
 4883TIP3    H136284   4.203   1.982   1.084  0.4061 -1.2389 -0.8144
 4883TIP3    H236285   4.079   2.058   1.041  1.4602  1.6291  0.8819
 4884TIP3   OH236286   0.496   2.193   6.958  0.5061 -0.5521  0.5599
 4884TIP3    H136287   0.539   2.219   7.039 -0.7594 -2.8445  2.0901
 4884TIP3    H236288   0.435   2.264   6.939  0.8179  0.0201  1.6118
 4885TIP3   OH236289   2.968   4.631   7.182  0.1095 -0.2700 -0.1738
 4885TIP3    H136290   3.025   4.695   7.224  0.2435 -0.4511 -0.0828
 4885TIP3    H236291   3.016   4.548   7.186  1.0294  0.0663 -2.4478
 4886TIP3   OH236292   5.856   3.099   1.713 -0.8433  0.6658 -0.3651
 4886TIP3    H136293   5.940   3.068   1.744 -0.7784 -0.5381 -1.6436
 4886TIP3    H236294   5.877   3.157   1.640 -1.0858  1.1959 -0.0192
 4887TIP3   OH236295   4.571   4.030   2.328 -0.1493 -0.3716 -0.9502
 4887TIP3    H136296   4.475   4.030   2.327 -0.1709 -0.7339  0.3808
 4887TIP3    H236297   4.595   4.094   2.395  0.5507 -0.2690 -1.2817
 4888TIP3   OH236298   0.916   3.424   2.212  0.1952  0.5460  0.3296
 4888TIP3    H136299   0.958   3.410   2.127 -0.2603 -0.8880  0.3170
 4888TIP3    H236300   0.945   3.511   2.238  1.4576  0.4647 -0.6562
 4889TIP3   OH236301   4.604   2.954   1.651 -0.5903  0.2501  0.1391
 4889TIP3    H136302   4.599   2.872   1.602 -1.5840  1.0280 -1.1266
 4889TIP3    H236303   4.546   2.940   1.726 -2.0600  0.3196 -0.9305
 4890TIP3   OH236304   0.303   5.791   1.165  0.2108  0.2138 -0.6330
 4890TIP3    H136305   0.374   5.852   1.146 -1.5124  3.1516  1.6252
 4890TIP3    H236306   0.250   5.792   1.085  1.1027  0.3130 -1.2428
 4891TIP3   OH236307   2.461   6.400   1.111  0.3524  0.1018 -0.4216
 4891TIP3    H136308   2.477   6.326   1.169  3.4944  1.4982  0.6670
 4891TIP3    H236309   2.478   6.366   1.023  0.3194 -0.8125 -0.0799
 4892TIP3   OH236310   3.863   5.725   3.087  0.3799 -0.2296 -0.4808
 4892TIP3    H136311   3.814   5.653   3.047  0.0452  0.2246 -0.9056
 4892TIP3    H236312   3.890   5.780   3.013  0.1501  0.3736 -0.1296
 4893TIP3   OH236313   5.389   3.736   6.886 -0.0698  0.4207 -0.3182
 4893TIP3    H136314   5.451   3.806   6.865  0.0872  0.9798  1.7634
 4893TIP3    H236315   5.439   3.655   6.875  0.6859  0.8095  0.1642
 4894TIP3   OH236316   6.819   4.536   8.473 -0.0213 -0.3460  0.1667
 4894TIP3    H136317   6.762   4.460   8.468  0.9182 -1.0686 -3.9942
 4894TIP3    H236318   6.907   4.500   8.481  0.2159  0.5555  2.1042
 4895TIP3   OH236319   1.011   2.281   0.697 -0.2809 -0.4779 -0.0883
 4895TIP3    H136320   0.986   2.316   0.612  1.5069 -1.3400 -1.0278
 4895TIP3    H236321   1.101   2.249   0.685  0.3662  0.1728  2.3518
 4896TIP3   OH236322   5.764   4.242   7.394 -0.1457  0.0448 -0.2426
 4896TIP3    H136323   5.768   4.224   7.488 -1.6687  0.1469 -0.1417
 4896TIP3    H236324   5.711   4.321   7.387  0.5165  0.4190 -1.1539
 4897TIP3   OH236325   5.449   1.017   1.860 -0.6730  0.1603  0.1853
 4897TIP3    H136326   5.497   0.957   1.916 -1.3382 -0.7968 -0.2490
 4897TIP3    H236327   5.515   1.050   1.799 -0.3321 -0.2648  0.3201
 4898TIP3   OH236328   2.937   5.245   2.365  0.4858 -0.1034  0.3295
 4898TIP3    H136329   2.946   5.318   2.426  0.5778 -0.7237  1.0686
 4898TIP3    H236330   3.009   5.256   2.303 -0.8217  1.7249 -0.9663
 4899TIP3   OH236331   6.658   4.151   0.645 -0.7540  0.0994  0.1484
 4899TIP3    H136332   6.718   4.184   0.712 -1.5317  3.1114 -0.4785
 4899TIP3    H236333   6.714   4.121   0.574  0.0304  0.7782  0.4719
 4900TIP3   OH236334   4.724   3.070   8.576 -0.1842 -0.7814 -0.0353
 4900TIP3    H136335   4.689   2.995   8.624  1.3404 -2.0494 -0.8198
 4900TIP3    H236336   4.781   3.115   8.638 -1.0126 -0.2988  0.4005
 4901TIP3   OH236337   4.974   5.693   1.136  0.6885  0.8020  0.2513
 4901TIP3    H136338   5.004   5.642   1.210 -1.0724 -0.9370 -0.1434
 4901TIP3    H236339   4.896   5.646   1.104 -1.5000  4.0846  0.2653
 4902TIP3   OH236340   4.188   5.305   2.193 -0.0852 -0.4889  0.1745
 4902TIP3    H136341   4.235   5.377   2.234  1.1573 -0.3143 -1.4503
 4902TIP3    H236342   4.156   5.341   2.110 -2.1936 -0.9326  0.7357
 4903TIP3   OH236343   2.432   2.863   0.250  0.5422 -0.0113  0.1903
 4903TIP3    H136344   2.403   2.772   0.264  0.1828 -0.2919 -2.0511
 4903TIP3    H236345   2.525   2.862   0.274  0.2150 -0.6002  1.5447
 4904TIP3   OH236346   3.428   4.442   7.090 -0.0031 -0.3405 -0.0008
 4904TIP3    H136347   3.372   4.519   7.104 -0.1748 -0.6008  0.8216
 4904TIP3    H236348   3.420   4.392   7.171  0.9400 -0.7001 -0.1154
 4905TIP3   OH236349   5.198   5.966   2.108 -0.2297  0.0164 -0.4391
 4905TIP3    H136350   5.280   5.925   2.134  0.7537  0.9647 -1.9297
 4905TIP3    H236351   5.206   6.057   2.137 -1.4409 -0.2189  0.7828
 4906TIP3   OH236352   4.991   6.263   7.537 -0.2375 -0.1718  0.5490
 4906TIP3    H136353   5.066   6.322   7.538 -0.0833 -0.2828 -1.4498
 4906TIP3    H236354   4.930   6.300   7.601 -0.4462  2.5702 -1.0925
 4907TIP3   OH236355   5.335   6.080   2.718  0.0004  0.0374 -0.4010
 4907TIP3    H136356   5.299   6.085   2.629 -0.7754  1.9458 -0.0227
 4907TIP3    H236357   5.425   6.113   2.710  0.3214 -0.8638 -0.6449
 4908TIP3   OH236358   4.720   1.139   0.348  0.3494  0.1947 -0.1306
 4908TIP3    H136359   4.636   1.183   0.334  0.4170  0.0521 -1.0674
 4908TIP3    H236360   4.785   1.208   0.338  0.3937  0.1080 -0.4683
 4909TIP3   OH236361   4.578   4.178   2.792  0.3040 -0.2903 -0.1054
 4909TIP3    H136362   4.673   4.178   2.786  0.4379 -0.7691  1.5125
 4909TIP3    H236363   4.551   4.093   2.755  0.4746 -0.0773 -0.7316
 4910TIP3   OH236364   0.275   0.649   1.132 -0.6449 -0.0528 -0.1293
 4910TIP3    H136365   0.234   0.732   1.109 -2.4015 -1.1456 -1.0712
 4910TIP3    H236366   0.347   0.640   1.069 -0.5456  0.6577 -0.1294
 4911TIP3   OH236367   5.545   2.071   0.720  0.0047  0.1244  1.2234
 4911TIP3    H136368   5.493   2.002   0.678  0.1796 -0.2828  1.6698
 4911TIP3    H236369   5.533   2.056   0.814 -1.1968  1.6241  1.3580
 4912TIP3   OH236370   0.514   0.424   6.718  0.3275  0.0376  0.7053
 4912TIP3    H136371   0.566   0.387   6.790  0.3599 -0.2989  0.5085
 4912TIP3    H236372   0.561   0.398   6.639 -1.0821 -1.8319  0.4114
 4913TIP3   OH236373   1.067   2.046   6.764  0.1559  0.6900 -0.4549
 4913TIP3    H136374   1.133   2.068   6.698  0.4879  0.6654 -0.1360
 4913TIP3    H236375   0.997   2.110   6.751  0.3065  0.8047 -0.7034
 4914TIP3   OH236376   4.429   2.238   7.088  0.2878  0.1170 -0.2941
 4914TIP3    H136377   4.443   2.222   7.181  1.0993 -0.3504 -0.4891
 4914TIP3    H236378   4.450   2.155   7.045 -1.7942 -0.2341 -0.7700
 4915TIP3   OH236379   2.814   1.689   1.208  0.1511 -0.5068 -0.2045
 4915TIP3    H136380   2.751   1.675   1.138 -1.5976  1.3098  0.8739
 4915TIP3    H236381   2.872   1.758   1.176 -1.1788  0.9371  0.3818
 4916TIP3   OH236382   3.143   4.296   7.450 -0.1540  0.1374 -0.0125
 4916TIP3    H136383   3.124   4.335   7.365  0.6579 -0.1577 -0.3358
 4916TIP3    H236384   3.174   4.368   7.504 -2.3636  0.6995  0.6217
 4917TIP3   OH236385   2.572   0.590   0.065  0.2124 -0.0651 -0.3196
 4917TIP3    H136386   2.495   0.611   0.117 -0.4013 -0.8034 -0.9050
 4917TIP3    H236387   2.620   0.527   0.119 -0.8500 -1.4768 -0.9674
 4918TIP3   OH236388   3.848   3.639   1.928  0.2148  0.4679  0.4563
 4918TIP3    H136389   3.910   3.571   1.902  0.7977  0.5087  1.6482
 4918TIP3    H236390   3.803   3.602   2.004 -0.4085  0.8994  0.3024
 4919TIP3   OH236391   1.278   3.617   2.101 -0.0711  0.5767 -0.4297
 4919TIP3    H136392   1.238   3.619   2.014  0.3805  1.3732 -0.6334
 4919TIP3    H236393   1.317   3.531   2.108  0.2542  0.6600 -1.1919
 4920TIP3   OH236394   0.284   4.364   7.992  0.1287  0.2651  0.2067
 4920TIP3    H136395   0.309   4.387   8.082 -0.2119  1.2190  0.0768
 4920TIP3    H236396   0.227   4.436   7.965 -1.7671 -1.2191  0.0659
 4921TIP3   OH236397   1.981   0.083   2.105 -0.1400  0.1374 -0.0124
 4921TIP3    H136398   1.930   0.162   2.087 -0.1887 -0.0197 -0.6040
 4921TIP3    H236399   1.915   0.013   2.112 -0.4107  0.5809  3.5887
 4922TIP3   OH236400   1.401   5.483   1.905 -0.3302 -0.7140 -0.4753
 4922TIP3    H136401   1.490   5.488   1.871 -0.4086  0.3972 -0.5388
 4922TIP3    H236402   1.408   5.515   1.995 -0.4209 -2.0386  0.0282
 4923TIP3   OH236403   3.958   3.000   1.039  0.3912 -0.1125  0.2874
 4923TIP3    H136404   3.954   3.047   0.955 -1.4537 -0.7166 -0.0209
 4923TIP3    H236405   3.875   3.021   1.082  0.4393 -1.3933  1.0695
 4924TIP3   OH236406   3.523   1.787   8.458  0.0700  0.1837 -0.5437
 4924TIP3    H136407   3.438   1.749   8.436 -0.6304 -0.3163  2.5185
 4924TIP3    H236408   3.579   1.711   8.474 -0.2429  0.3638  1.7972
 4925TIP3   OH236409   5.119   0.668   1.611 -0.3666  0.2484  0.0405
 4925TIP3    H136410   5.174   0.598   1.646 -1.8964 -0.3862  1.2985
 4925TIP3    H236411   5.035   0.625   1.593 -1.3213  1.7395  0.7966
 4926TIP3   OH236412   4.386   3.416   0.354 -0.3323  0.1666  0.1974
 4926TIP3    H136413   4.310   3.410   0.296 -1.1830  2.2565  1.0142
 4926TIP3    H236414   4.372   3.495   0.406  1.7226 -0.1495  1.3853
 4927TIP3   OH236415   4.663   6.682   7.745 -0.2414 -0.1418 -0.4154
 4927TIP3    H136416   4.685   6.694   7.837  1.7130 -0.4377 -0.8120
 4927TIP3    H236417   4.576   6.641   7.746  0.8892 -2.7577  1.3878
 4928TIP3   OH236418   3.012   6.838   8.456 -0.4141  0.0591  0.3553
 4928TIP3    H136419   2.922   6.848   8.488 -0.3890 -0.6861  0.6718
 4928TIP3    H236420   3.052   6.924   8.471 -0.4928 -0.1713  2.0511
 4929TIP3   OH236421   3.028   1.242   7.187 -0.2633  0.1910 -0.2847
 4929TIP3    H136422   3.101   1.291   7.223  0.4323 -1.7462  1.1284
 4929TIP3    H236423   2.958   1.249   7.252 -1.3769  1.9668 -1.5899
 4930TIP3   OH236424   0.876   0.242   2.885  0.0404 -0.4152  0.4539
 4930TIP3    H136425   0.919   0.285   2.959  0.2430 -0.3493  0.3002
 4930TIP3    H236426   0.947   0.197   2.840  0.2858  1.2309 -0.8823
 4931TIP3   OH236427   4.929   0.101   0.687 -0.1837 -0.2718 -0.6978
 4931TIP3    H136428   4.918   0.061   0.773  2.2564 -2.4282 -1.2631
 4931TIP3    H236429   4.986   0.176   0.703 -1.6563  0.7893 -0.1751
 4932TIP3   OH236430   6.225   6.716   1.660 -0.4815 -0.2062  0.2450
 4932TIP3    H136431   6.300   6.764   1.626 -0.2560 -2.0829 -2.1842
 4932TIP3    H236432   6.184   6.777   1.722  3.3544  0.6622  2.2607
 4933TIP3   OH236433   4.900   5.894   0.212  0.1105 -0.4842  0.5236
 4933TIP3    H136434   4.895   5.895   0.308 -1.1664  0.8722  0.4748
 4933TIP3    H236435   4.865   5.809   0.187 -1.8403  0.0662  1.2028
 4934TIP3   OH236436   0.104   6.117   7.623 -0.3659 -0.3269 -0.1755
 4934TIP3    H136437   0.126   6.075   7.706 -1.4189  0.9069  0.7638
 4934TIP3    H236438   0.062   6.048   7.572 -0.5231 -0.8651  0.6611
 4935TIP3   OH236439   1.623   1.921   7.678  0.1931 -0.3115 -0.5578
 4935TIP3    H136440   1.573   1.994   7.640  1.2584  0.2118 -0.9794
 4935TIP3    H236441   1.574   1.898   7.757 -0.7379  0.1663 -0.9783
 4936TIP3   OH236442   1.952   4.972   1.157 -0.6858 -0.5075  0.1465
 4936TIP3    H136443   1.866   4.930   1.170 -1.7179  0.9367 -1.5892
 4936TIP3    H236444   1.999   4.912   1.100 -1.5776 -0.0664 -1.0846
 4937TIP3   OH236445   3.641   1.255   2.346 -0.8920  0.0873  0.1056
 4937TIP3    H136446   3.632   1.336   2.395 -2.8357  0.6195 -1.0133
 4937TIP3    H236447   3.697   1.200   2.400  0.2811  2.0603  1.0050
 4938TIP3   OH236448   1.400   4.615   0.719 -0.1183 -0.2133 -0.1324
 4938TIP3    H136449   1.374   4.593   0.808  0.3678  0.2922  0.1398
 4938TIP3    H236450   1.494   4.631   0.725  0.3027 -2.0154 -1.0918
 4939TIP3   OH236451   3.623   0.868   8.251  0.2980 -0.6397  0.0507
 4939TIP3    H136452   3.593   0.946   8.204 -4.3147 -0.8048  2.1372
 4939TIP3    H236453   3.613   0.797   8.188 -1.3543 -0.2571 -0.1712
 4940TIP3   OH236454   0.814   5.919   7.868  0.2574 -0.3888  0.9375
 4940TIP3    H136455   0.731   5.883   7.897 -0.2451  0.1712  0.2248
 4940TIP3    H236456   0.791   5.996   7.816  1.2278 -0.0765  0.9369
 4941TIP3   OH236457   5.396   6.324   2.048  0.6149 -0.6558 -0.5292
 4941TIP3    H136458   5.478   6.303   2.003  0.8598  1.6944 -1.3145
 4941TIP3    H236459   5.423   6.355   2.135  0.4763 -0.9284 -0.3882
 4942TIP3   OH236460   6.543   4.409   2.513 -0.1548  0.6476 -0.4524
 4942TIP3    H136461   6.600   4.441   2.583 -0.5413 -0.2606  0.3057
 4942TIP3    H236462   6.481   4.481   2.499 -0.3995  0.6502  0.5178
 4943TIP3   OH236463   3.712   2.859   7.895  0.3919 -0.2387 -0.0844
 4943TIP3    H136464   3.799   2.819   7.901  0.8079  0.8493  2.7509
 4943TIP3    H236465   3.689   2.879   7.986 -2.6021  0.0293 -0.8182
 4944TIP3   OH236466   4.225   5.814   2.810  0.0342 -0.1373 -0.2244
 4944TIP3    H136467   4.266   5.874   2.748 -0.9753  1.2902  0.4124
 4944TIP3    H236468   4.181   5.872   2.873 -2.2955 -1.5176 -0.4500
 4945TIP3   OH236469   4.728   2.069   2.693  0.0661  0.3204  0.7377
 4945TIP3    H136470   4.658   2.004   2.691  0.0922  0.2724  1.2569
 4945TIP3    H236471   4.684   2.153   2.708  0.0257  0.4386  0.0011
 4946TIP3   OH236472   1.438   6.821   7.453  0.4030  0.1978  0.3048
 4946TIP3    H136473   1.383   6.860   7.385 -0.2354  0.7455  1.0977
 4946TIP3    H236474   1.450   6.730   7.426  0.9393  0.6411 -0.9940
 4947TIP3   OH236475   3.246   5.457   0.074 -0.3914  0.0315 -0.5626
 4947TIP3    H136476   3.221   5.458   0.167 -0.6506  0.7467 -0.6432
 4947TIP3    H236477   3.295   5.375   0.065 -1.4822 -0.6894 -0.0956
 4948TIP3   OH236478   6.436   4.257   0.147 -0.1138 -0.1021  1.3991
 4948TIP3    H136479   6.468   4.176   0.187  2.2243 -0.3771 -0.7793
 4948TIP3    H236480   6.507   4.320   0.159 -0.3732  0.5284 -0.1006
 4949TIP3   OH236481   3.297   3.027   0.705  0.0893  0.0804  0.1721
 4949TIP3    H136482   3.242   3.087   0.654 -0.0797 -0.5522 -0.4099
 4949TIP3    H236483   3.265   3.034   0.794  0.0818  0.8695  0.1148
 4950TIP3   OH236484   2.567   0.647   0.349 -0.3546  0.0422  0.0435
 4950TIP3    H136485   2.580   0.737   0.318 -1.2864  0.0950 -0.2337
 4950TIP3    H236486   2.473   0.632   0.340 -0.1249 -1.1971 -0.5688
 4951TIP3   OH236487   3.465   1.030   2.235 -0.1784 -0.0866  0.3597
 4951TIP3    H136488   3.480   1.090   2.163  0.0989 -0.2457  0.2809
 4951TIP3    H236489   3.370   1.031   2.249 -0.3775 -0.9704 -0.8022
 4952TIP3   OH236490   2.166   6.837   2.278  0.1593 -0.8517 -0.1553
 4952TIP3    H136491   2.105   6.764   2.272  0.6917 -1.2905 -0.3766
 4952TIP3    H236492   2.124   6.909   2.231 -0.4280 -0.9694  0.1821
 4953TIP3   OH236493   5.546   5.128   8.121 -0.2045  0.3334  0.4601
 4953TIP3    H136494   5.585   5.057   8.071  1.2079  1.8154 -0.6447
 4953TIP3    H236495   5.542   5.202   8.060 -0.1260  1.6747  2.0078
 4954TIP3   OH236496   6.411   4.382   1.309  0.3809  0.0945  0.5145
 4954TIP3    H136497   6.435   4.425   1.391  0.7032 -1.5890  1.3658
 4954TIP3    H236498   6.352   4.443   1.266  1.1618  1.5562  1.4128
 4955TIP3   OH236499   6.732   5.241   2.780  0.1634  0.1224 -0.0653
 4955TIP3    H136500   6.808   5.226   2.724 -2.0772  1.3034 -3.8255
 4955TIP3    H236501   6.750   5.323   2.825  1.2604  0.1899 -0.6105
 4956TIP3   OH236502   6.608   4.337   7.565  0.1275 -0.2916 -0.7842
 4956TIP3    H136503   6.607   4.431   7.546 -1.4739 -0.2068 -0.3619
 4956TIP3    H236504   6.676   4.302   7.507  0.6189  1.0813 -1.0860
 4957TIP3   OH236505   1.876   0.114   6.567  0.5338  0.0393  0.0628
 4957TIP3    H136506   1.929   0.163   6.630  1.4329  0.2622 -0.8336
 4957TIP3    H236507   1.824   0.054   6.620  0.3951  1.0366  1.0892
 4958TIP3   OH236508   2.992   2.299   0.281 -0.0115  0.1311  0.8987
 4958TIP3    H136509   3.009   2.314   0.188 -1.1246 -2.7274  0.1395
 4958TIP3    H236510   3.079   2.293   0.321  0.6208 -1.8963 -0.6128
 4959TIP3   OH236511   6.072   2.681   1.165  0.3254  0.4465 -0.4673
 4959TIP3    H136512   6.158   2.642   1.179 -0.0561  0.2603  1.8987
 4959TIP3    H236513   6.015   2.634   1.226 -0.8954  2.2753 -0.1148
 4960TIP3   OH236514   0.912   6.557   2.126 -0.1441 -0.8048  0.1774
 4960TIP3    H136515   0.887   6.530   2.214 -1.1604  2.9686  1.2502
 4960TIP3    H236516   0.834   6.600   2.091  1.1427  0.4339 -1.3196
 4961TIP3   OH236517   5.394   5.570   0.998  0.2770 -0.3204  0.6553
 4961TIP3    H136518   5.357   5.482   1.000 -0.3150 -0.1111 -0.2745
 4961TIP3    H236519   5.318   5.628   0.998  0.6480  0.1756  0.6157
 4962TIP3   OH236520   5.822   3.375   7.462  0.1303 -0.0292 -0.3144
 4962TIP3    H136521   5.841   3.315   7.533 -1.1547 -0.4773 -0.3203
 4962TIP3    H236522   5.829   3.322   7.383 -1.4692 -0.3283 -0.2880
 4963TIP3   OH236523   6.321   6.537   0.087  0.1319 -0.4127 -0.9614
 4963TIP3    H136524   6.304   6.463   0.029 -1.1868 -0.5534 -0.4337
 4963TIP3    H236525   6.367   6.600   0.032 -1.7161 -0.2439 -2.4038
 4964TIP3   OH236526   2.442   4.617   3.069 -0.1227 -0.8518 -0.3974
 4964TIP3    H136527   2.420   4.634   2.978 -1.6902 -0.1909  0.0805
 4964TIP3    H236528   2.489   4.696   3.097 -1.3246 -0.2173 -0.1170
 4965TIP3   OH236529   5.947   1.138   1.964 -0.1886 -0.0432  0.1126
 4965TIP3    H136530   5.858   1.148   1.931 -0.0817 -1.5816 -0.7298
 4965TIP3    H236531   5.936   1.098   2.050 -0.3064 -1.2093 -0.4243
 4966TIP3   OH236532   4.576   6.393   8.522  0.4905 -0.9156  0.6029
 4966TIP3    H136533   4.604   6.395   8.614  2.2217  1.2526  0.0990
 4966TIP3    H236534   4.511   6.462   8.515 -0.4458 -1.7935  0.3876
 4967TIP3   OH236535   2.925   5.387   0.427  0.0281 -0.2834  0.1823
 4967TIP3    H136536   2.919   5.375   0.522  0.3220 -1.7732  0.0430
 4967TIP3    H236537   3.010   5.429   0.414  0.1174 -0.3414  0.5638
 4968TIP3   OH236538   1.502   5.112   1.514 -0.2331  0.4233  0.4554
 4968TIP3    H136539   1.449   5.064   1.450  0.5891  2.0981 -1.5891
 4968TIP3    H236540   1.439   5.168   1.560 -0.6419  0.2135  0.1562
 4969TIP3   OH236541   6.607   3.952   6.849 -0.3985  0.2846  0.1208
 4969TIP3    H136542   6.613   3.867   6.807 -1.0038 -0.3589  1.2959
 4969TIP3    H236543   6.553   3.937   6.926 -0.0146  1.6089  0.6729
 4970TIP3   OH236544   4.634   4.615   7.006  0.2572 -0.3634 -0.4687
 4970TIP3    H136545   4.647   4.693   6.952  0.4328 -0.1918 -0.1775
 4970TIP3    H236546   4.666   4.543   6.952 -0.3252 -0.2944 -0.9246
 4971TIP3   OH236547   2.456   0.165   2.429  0.4420  0.4897 -0.4198
 4971TIP3    H136548   2.424   0.256   2.431  1.8870  1.0218  0.2482
 4971TIP3    H236549   2.394   0.119   2.373 -0.5200  1.8166 -0.5060
 4972TIP3   OH236550   5.722   0.038   0.689  0.7462  0.0061  0.0377
 4972TIP3    H136551   5.663   0.104   0.653  0.4706  0.4218  1.2159
 4972TIP3    H236552   5.664  -0.033   0.719  0.9774 -0.3672 -0.3814
 4973TIP3   OH236553   1.918   1.187   8.602 -0.0885 -0.9169 -0.1508
 4973TIP3    H136554   1.858   1.132   8.653 -0.5149  1.2577  1.9061
 4973TIP3    H236555   1.861   1.232   8.539 -0.4447  0.1466  0.9013
 4974TIP3   OH236556   2.639   5.833   2.104 -0.2886 -0.4433  0.3786
 4974TIP3    H136557   2.621   5.763   2.042  0.5284 -1.7177  1.5154
 4974TIP3    H236558   2.692   5.896   2.054 -2.7422  0.4584 -1.2557
 4975TIP3   OH236559   5.785   3.793   8.284 -0.0541 -0.0123 -0.4629
 4975TIP3    H136560   5.849   3.846   8.331 -0.4449 -0.0870  0.1689
 4975TIP3    H236561   5.701   3.837   8.300 -0.2114 -0.1040 -1.0001
 4976TIP3   OH236562   6.566   3.259   1.972  0.0271 -0.3937 -0.2123
 4976TIP3    H136563   6.631   3.196   1.941  0.2902 -0.6310  0.7894
 4976TIP3    H236564   6.521   3.289   1.893  1.3731 -0.2058 -0.9208
 4977TIP3   OH236565   2.417   2.017   0.741  0.2167 -0.2623 -0.9495
 4977TIP3    H136566   2.375   2.103   0.735  0.6368  0.2736  2.1549
 4977TIP3    H236567   2.511   2.036   0.738  0.3127 -0.7362 -1.1278
 4978TIP3   OH236568   0.265   4.622   8.038 -0.4137  0.2445 -0.7975
 4978TIP3    H136569   0.329   4.629   8.109 -0.3585 -4.1067 -0.1434
 4978TIP3    H236570   0.318   4.632   7.958  0.3449  0.6992 -0.2529
 4979TIP3   OH236571   4.797   6.508   2.414  0.2167  0.6971  0.4124
 4979TIP3    H136572   4.737   6.455   2.466  1.2282  2.0443  3.1108
 4979TIP3    H236573   4.778   6.598   2.440  2.6417  1.2198  0.5256
 4980TIP3   OH236574   4.054   3.423   0.859  0.1377  0.4041 -0.1537
 4980TIP3    H136575   4.077   3.356   0.923  0.4212  1.3351  0.7495
 4980TIP3    H236576   4.102   3.399   0.780  0.6696 -0.1455  0.3295
 4981TIP3   OH236577   6.753   6.824   1.594  0.5399 -0.3066  0.1162
 4981TIP3    H136578   6.702   6.849   1.671 -0.0738  1.8667 -0.8948
 4981TIP3    H236579   6.707   6.749   1.558  0.4757 -0.9612  1.4868
 4982TIP3   OH236580   5.342   3.760   1.047 -0.2696 -0.3251  0.4569
 4982TIP3    H136581   5.314   3.836   1.099  0.4085  1.9725 -2.2649
 4982TIP3    H236582   5.285   3.761   0.971  0.8923 -1.4781 -0.4796
 4983TIP3   OH236583   2.086   2.659   7.619 -0.4798  0.0851 -0.1642
 4983TIP3    H136584   2.057   2.639   7.708  0.8801 -0.2166  0.2317
 4983TIP3    H236585   2.010   2.641   7.564 -1.2616  0.0499  0.9106
 4984TIP3   OH236586   2.994   1.174   7.977 -0.3556  0.0347  0.0706
 4984TIP3    H136587   3.016   1.081   7.965 -0.3186 -0.0168  0.5176
 4984TIP3    H236588   2.943   1.176   8.058  1.2955  0.6527  1.1411
 4985TIP3   OH236589   6.648   2.364   2.181  0.1534  0.2928  0.5191
 4985TIP3    H136590   6.573   2.422   2.194  0.8966  1.8928 -1.7214
 4985TIP3    H236591   6.613   2.288   2.135 -1.0746 -1.8788  4.5758
 4986TIP3   OH236592   0.221   0.259   0.205  0.2840 -0.4788  0.8782
 4986TIP3    H136593   0.180   0.243   0.120  0.4191  2.5447  0.1195
 4986TIP3    H236594   0.149   0.287   0.262  0.3988 -1.1669  1.3698
 4987TIP3   OH236595   5.827   3.295   1.940  0.0934  0.3711 -0.4675
 4987TIP3    H136596   5.750   3.348   1.922  0.7381  1.0157 -1.4277
 4987TIP3    H236597   5.841   3.245   1.860 -0.3138 -1.0441  0.3036
 4988TIP3   OH236598   1.880   2.156   2.386 -0.0019 -0.2758 -0.0610
 4988TIP3    H136599   1.877   2.060   2.396 -1.1402 -0.1483  1.1578
 4988TIP3    H236600   1.835   2.189   2.464 -0.4084  1.2284 -0.9057
 4989TIP3   OH236601   4.853   4.813   1.858  0.2701  0.5605  0.2968
 4989TIP3    H136602   4.772   4.778   1.821  0.0054  0.5168  0.8927
 4989TIP3    H236603   4.824   4.862   1.936  0.6899  1.5682 -0.1572
 4990TIP3   OH236604   2.462   0.670   2.655  0.0749  0.3760 -0.3877
 4990TIP3    H136605   2.368   0.658   2.671 -0.2126  1.9468 -0.7785
 4990TIP3    H236606   2.467   0.721   2.574  1.3482 -1.4506 -1.5333
 4991TIP3   OH236607   5.522   0.171   0.237  0.4055  0.2936 -0.0978
 4991TIP3    H136608   5.505   0.194   0.145  1.1920 -0.4856 -0.4644
 4991TIP3    H236609   5.530   0.075   0.235  0.8399  0.3129  0.7167
 4992TIP3   OH236610   3.315   1.168   0.155  0.2740 -0.8669  0.1216
 4992TIP3    H136611   3.375   1.219   0.211 -0.2947  2.6874 -2.1872
 4992TIP3    H236612   3.369   1.142   0.080  0.1372 -2.3895  0.5179
 4993TIP3   OH236613   2.433   5.586   6.337 -0.1421 -0.1502 -0.4665
 4993TIP3    H136614   2.373   5.517   6.364 -1.1754  1.6565  2.2075
 4993TIP3    H236615   2.515   5.565   6.381 -0.9075  1.0543  1.6867
 4994TIP3   OH236616   1.381   6.443   0.829 -0.1106  0.0870  0.2558
 4994TIP3    H136617   1.429   6.360   0.826 -0.3552 -0.0654  0.4798
 4994TIP3    H236618   1.291   6.419   0.805  0.2175  0.6115 -1.6734
 4995TIP3   OH236619   5.204   0.766   0.142 -0.2327 -0.5044 -0.1418
 4995TIP3    H136620   5.232   0.687   0.096  1.5823  0.0752 -0.1193
 4995TIP3    H236621   5.284   0.819   0.150 -0.5631 -0.2547  3.0448
 4996TIP3   OH236622   6.849   3.647   0.457 -0.6171  0.7338  0.3101
 4996TIP3    H136623   6.920   3.697   0.497 -1.4278  2.2289 -0.0835
 4996TIP3    H236624   6.893   3.575   0.412  0.5776  1.1814  0.7222
 4997TIP3   OH236625   0.943   5.677   7.964 -0.0560 -0.3621  0.0996
 4997TIP3    H136626   0.885   5.605   7.985  0.7301 -0.5327  1.8811
 4997TIP3    H236627   0.885   5.746   7.931 -1.0059 -1.1835  0.0012
 4998TIP3   OH236628   6.546   0.385   0.150 -0.0313  0.2862  0.1307
 4998TIP3    H136629   6.532   0.449   0.080 -1.0460  1.6230  1.4811
 4998TIP3    H236630   6.514   0.303   0.114  0.7127  0.6475 -1.4308
 4999TIP3   OH236631   5.339   1.818   2.709 -0.2701  0.2007 -0.0183
 4999TIP3    H136632   5.405   1.787   2.647  0.2755  1.2702 -0.0083
 4999TIP3    H236633   5.280   1.744   2.722  0.2497 -0.3909 -0.9540
 5000TIP3   OH236634   3.619   2.885   8.167  0.6120  0.6049  0.2575
 5000TIP3    H136635   3.533   2.927   8.170  0.1697 -0.1049 -1.1651
 5000TIP3    H236636   3.604   2.797   8.202 -0.0038 -0.5868 -2.6978
 5001TIP3   OH236637   0.690   2.497   2.635 -0.1207 -0.1001  0.1344
 5001TIP3    H136638   0.746   2.421   2.652  0.1188  0.1631  0.5665
 5001TIP3    H236639   0.752   2.569   2.619 -0.3186  0.3052  1.1059
 5002TIP3   OH236640   0.635   5.224   2.713  0.3739 -0.1254 -0.0509
 5002TIP3    H136641   0.688   5.144   2.703  2.2929  1.1983 -1.0254
 5002TIP3    H236642   0.614   5.250   2.624 -0.0284  0.6182  0.2565
 5003TIP3   OH236643   5.268   0.784   0.425  0.2205  0.1909 -0.4387
 5003TIP3    H136644   5.289   0.871   0.457  1.3486 -0.2602  0.1169
 5003TIP3    H236645   5.203   0.798   0.356 -2.0989  1.2436  1.7755
 5004TIP3   OH236646   1.916   0.907   8.123 -0.1036 -0.2031  0.0281
 5004TIP3    H136647   1.879   0.941   8.205  0.6082 -0.9460  0.6862
 5004TIP3    H236648   1.868   0.826   8.107 -0.5530  0.1749 -0.5412
 5005TIP3   OH236649   6.068   5.423   1.264  0.5414 -0.4502 -0.2712
 5005TIP3    H136650   6.037   5.333   1.256 -0.7286 -0.1119  0.4072
 5005TIP3    H236651   6.162   5.416   1.279  0.1697 -1.8160  1.9258
 5006TIP3   OH236652   1.000   2.529   8.384  0.0872 -0.4485  0.0839
 5006TIP3    H136653   0.972   2.620   8.380  0.3241 -0.4183 -2.3072
 5006TIP3    H236654   0.972   2.492   8.301  1.4373 -2.1315  0.3276
 5007TIP3   OH236655   0.554   4.565   7.191  0.8776  0.0263 -0.2333
 5007TIP3    H136656   0.611   4.504   7.144 -0.4493 -1.3580 -0.1070
 5007TIP3    H236657   0.492   4.595   7.125  0.9204  0.4819 -0.0680
 5008TIP3   OH236658   2.715   5.031   0.098  0.1133 -0.1624 -0.0414
 5008TIP3    H136659   2.779   5.102   0.088 -1.2890  1.1888  0.3051
 5008TIP3    H236660   2.768   4.956   0.124  1.6173  0.7967 -0.1698
 5009TIP3   OH236661   6.681   1.782   0.314 -0.3293 -0.3965 -0.1406
 5009TIP3    H136662   6.741   1.837   0.365  2.3116 -1.1181 -2.2607
 5009TIP3    H236663   6.656   1.836   0.240  0.9917 -1.3956 -1.3757
 5010TIP3   OH236664   5.936   1.380   0.394 -0.3783  0.4954 -0.1540
 5010TIP3    H136665   5.910   1.377   0.486  0.2168 -0.4969 -0.0076
 5010TIP3    H236666   5.996   1.455   0.389 -0.4760  0.6046  0.2405
 5011TIP3   OH236667   6.487   3.524   0.754  0.7472 -1.0206  0.8828
 5011TIP3    H136668   6.482   3.446   0.698 -0.0531 -0.6024  0.3460
 5011TIP3    H236669   6.410   3.517   0.811  0.2281 -0.2360  0.2983
 5012TIP3   OH236670   1.305   5.454   8.569  0.3817 -0.2918  0.4097
 5012TIP3    H136671   1.322   5.397   8.494 -0.7085  0.1956 -0.2283
 5012TIP3    H236672   1.212   5.440   8.588  0.4595  0.1952  1.1702
 5013TIP3   OH236673   4.966   2.096   7.342  0.7826 -0.9981  0.3677
 5013TIP3    H136674   4.994   2.083   7.433  0.0020 -2.6072  0.4119
 5013TIP3    H236675   4.994   2.185   7.321  1.3544 -0.7439  2.0443
 5014TIP3   OH236676   3.559   5.740   1.609  0.1498 -0.2945  0.0137
 5014TIP3    H136677   3.475   5.740   1.565  0.0933  0.9339  0.0923
 5014TIP3    H236678   3.611   5.807   1.564  1.1953 -1.2048 -0.2083
 5015TIP3   OH236679   2.282   1.049   0.539 -0.2675  0.0296  0.2577
 5015TIP3    H136680   2.335   1.092   0.606 -1.5798  1.7919  0.2222
 5015TIP3    H236681   2.218   1.115   0.512  0.6952 -0.2928 -3.3399
 5016TIP3   OH236682   6.243   0.566   0.429 -0.3908 -1.0322  0.3238
 5016TIP3    H136683   6.303   0.495   0.451 -0.0326 -1.5708 -2.0624
 5016TIP3    H236684   6.170   0.523   0.385 -0.4633 -0.0186 -0.6050
 5017TIP3   OH236685   0.954   0.039   1.456  0.3112 -0.2678 -0.3600
 5017TIP3    H136686   0.907  -0.003   1.528  1.3158 -0.7143  0.0537
 5017TIP3    H236687   1.034  -0.013   1.445  0.5292  0.2364 -1.3058
 5018TIP3   OH236688   1.353   1.079   1.511  0.5920 -0.3536  0.9723
 5018TIP3    H136689   1.364   1.112   1.600 -0.1374 -0.0642  0.9643
 5018TIP3    H236690   1.441   1.079   1.474  0.5203  3.0926  0.4352
 5019TIP3   OH236691   6.525   1.841   1.677  0.2315 -0.2841 -0.0266
 5019TIP3    H136692   6.478   1.849   1.761 -1.7927 -1.4795 -0.9721
 5019TIP3    H236693   6.485   1.907   1.621  0.6580 -0.3854 -0.4539
 5020TIP3   OH236694   6.786   4.875   7.582  0.2064 -0.6781 -0.5440
 5020TIP3    H136695   6.866   4.918   7.552 -0.2409 -0.8280 -1.9909
 5020TIP3    H236696   6.786   4.890   7.677  2.5811 -1.7679 -0.3092
 5021TIP3   OH236697   2.780   2.756   6.827 -0.8656 -0.3527 -0.0054
 5021TIP3    H136698   2.790   2.779   6.735 -1.6465 -1.0733 -0.2837
 5021TIP3    H236699   2.805   2.835   6.875 -1.0290  0.2169 -0.8510
 5022TIP3   OH236700   6.591   1.616   8.435  0.0038 -0.3677  0.0453
 5022TIP3    H136701   6.621   1.557   8.504 -1.4086  0.7624  1.6887
 5022TIP3    H236702   6.661   1.682   8.428  0.1998 -0.5476  0.3007
 5023TIP3   OH236703   0.896   2.255   1.360  0.6423 -0.1313 -0.3032
 5023TIP3    H136704   0.913   2.313   1.286 -2.9545 -0.4420 -1.5734
 5023TIP3    H236705   0.850   2.310   1.424  1.4160 -0.4841  0.5732
 5024TIP3   OH236706   2.371   0.650   0.696 -0.5944  0.3666  0.6245
 5024TIP3    H136707   2.369   0.663   0.791  1.3858 -0.1084  0.7844
 5024TIP3    H236708   2.449   0.697   0.667 -1.4338  0.9288 -0.8694
 5025TIP3   OH236709   1.772   4.907   0.727  0.0468  0.1849  0.3931
 5025TIP3    H136710   1.865   4.915   0.748  0.5153  0.9686 -1.7730
 5025TIP3    H236711   1.746   4.824   0.767  1.9668 -0.6321  0.0704
 5026TIP3   OH236712   6.738   6.538   7.708 -0.1384  0.1070 -0.5548
 5026TIP3    H136713   6.769   6.452   7.679  2.9518  0.6617  0.6827
 5026TIP3    H236714   6.710   6.523   7.799  0.9885  0.4910 -0.1331
 5027TIP3   OH236715   5.904   0.050   1.145 -0.0199 -0.1903 -0.4057
 5027TIP3    H136716   5.971   0.017   1.205  1.4177  0.4219 -1.6286
 5027TIP3    H236717   5.935   0.137   1.120  0.1489 -0.9413 -3.0730
 5028TIP3   OH236718   3.080   6.586   7.280  0.3318  0.3074 -0.3232
 5028TIP3    H136719   3.008   6.524   7.288  0.7578 -0.1883 -0.2615
 5028TIP3    H236720   3.154   6.533   7.251  0.7497  0.7570 -0.1015
 5029TIP3   OH236721   2.054   3.880   1.691 -0.0372  0.3375  0.2980
 5029TIP3    H136722   1.981   3.920   1.738 -0.6696 -1.1686  0.6489
 5029TIP3    H236723   2.132   3.926   1.722 -0.6972  1.0359  0.9421
 5030TIP3   OH236724   2.964   0.511   7.267  0.0699 -0.0659  0.9329
 5030TIP3    H136725   2.958   0.592   7.217  1.4653 -0.6676 -0.2658
 5030TIP3    H236726   2.937   0.536   7.356  0.7599  1.7783  0.6781
 5031TIP3   OH236727   2.044   1.347   1.012  0.0030  0.0938  0.3501
 5031TIP3    H136728   2.021   1.257   1.036 -0.2654  0.3425  1.0436
 5031TIP3    H236729   2.139   1.348   1.007 -0.0190 -0.3796 -0.2745
 5032TIP3   OH236730   1.907   3.148   0.654 -0.2636  0.0569  0.0671
 5032TIP3    H136731   1.890   3.059   0.624  0.9658 -0.8108  1.8490
 5032TIP3    H236732   2.002   3.153   0.664 -0.3247  1.5327  0.1275
 5033TIP3   OH236733   6.849   4.532   7.931 -0.2446 -0.5424  0.0758
 5033TIP3    H136734   6.833   4.440   7.952 -2.1651 -0.4376 -0.7254
 5033TIP3    H236735   6.785   4.580   7.984  2.3153  0.5792  2.3501
 5034TIP3   OH236736   3.258   1.743   1.087 -0.0755  0.0401  0.5180
 5034TIP3    H136737   3.320   1.744   1.160 -0.2856 -1.5197  0.7488
 5034TIP3    H236738   3.183   1.693   1.120 -1.4899  1.8653  0.2422
 5035TIP3   OH236739   2.988   6.466   1.602 -0.0724 -0.5062 -0.2174
 5035TIP3    H136740   2.966   6.470   1.509  1.2051  1.1100 -0.5049
 5035TIP3    H236741   2.958   6.549   1.638  0.1760 -0.7702  0.6438
 5036TIP3   OH236742   3.251   6.513   1.925  0.0225  0.0674  0.0145
 5036TIP3    H136743   3.212   6.430   1.897 -1.2967  0.7861 -0.3737
 5036TIP3    H236744   3.312   6.489   1.994  0.5972 -1.3632 -0.9336
 5037TIP3   OH236745   4.868   1.503   1.033 -0.5388 -0.2405 -0.0236
 5037TIP3    H136746   4.863   1.415   1.069 -2.2801 -0.5325 -0.8662
 5037TIP3    H236747   4.826   1.558   1.099 -2.0179 -0.5050 -0.6796
 5038TIP3   OH236748   2.064   3.951   8.070 -0.1736  0.1305 -0.0247
 5038TIP3    H136749   2.042   4.015   8.002 -0.2469  0.5144  0.3607
 5038TIP3    H236750   1.981   3.908   8.090 -0.0518 -0.3821 -0.5770
 5039TIP3   OH236751   1.132   6.512   8.432  0.1577 -0.1406 -0.3261
 5039TIP3    H136752   1.181   6.474   8.359 -1.4864 -0.2107 -1.4668
 5039TIP3    H236753   1.194   6.570   8.476  0.9582  0.6773 -2.4030
 5040TIP3   OH236754   4.430   2.222   8.527 -0.4609 -0.0707  0.2728
 5040TIP3    H136755   4.428   2.317   8.515  0.1105  0.1385  1.6314
 5040TIP3    H236756   4.363   2.205   8.592 -1.0271 -0.6953 -0.4621
 5041TIP3   OH236757   6.465   0.112   6.731 -0.0623 -0.1205 -0.5088
 5041TIP3    H136758   6.540   0.150   6.775  0.2087 -0.1153 -0.9708
 5041TIP3    H236759   6.393   0.172   6.748 -0.1323 -0.4797  0.5221
 5042TIP3   OH236760   2.080   2.107   0.690 -0.5654 -0.1494  0.7113
 5042TIP3    H136761   2.092   2.150   0.775  0.2310 -0.4428  0.7505
 5042TIP3    H236762   2.113   2.018   0.703  1.0194  0.2430 -0.3149
 5043TIP3   OH236763   0.856   3.541   8.171  0.6613  0.4337  0.1479
 5043TIP3    H136764   0.768   3.514   8.145  0.5979 -0.2250  1.0159
 5043TIP3    H236765   0.908   3.534   8.090 -0.0517  0.7200 -0.3439
 5044TIP3   OH236766   6.137   2.681   1.691  0.4807  0.3964  0.5124
 5044TIP3    H136767   6.178   2.696   1.776  1.3631  2.2767 -0.2062
 5044TIP3    H236768   6.085   2.601   1.704  2.3907 -0.6710  2.1412
 5045TIP3   OH236769   2.088   3.475   8.421 -0.2090  0.1296 -0.1777
 5045TIP3    H136770   2.109   3.565   8.444  1.0755  0.1141 -1.1991
 5045TIP3    H236771   2.171   3.428   8.429 -0.8056 -0.9249  0.0892
 5046TIP3   OH236772   3.457   3.640   1.140  0.8916 -0.0658  0.6183
 5046TIP3    H136773   3.456   3.649   1.044  1.5760  0.2729  0.6389
 5046TIP3    H236774   3.367   3.660   1.166  0.9456  0.8682  0.1294
 5047TIP3   OH236775   1.720   3.729   1.646  0.1027  0.1767 -0.4404
 5047TIP3    H136776   1.771   3.787   1.590 -2.4289  1.7632 -1.2610
 5047TIP3    H236777   1.654   3.691   1.589 -0.6930 -0.5078  0.8681
 5048TIP3   OH236778   5.785   4.098   1.896 -0.4552 -0.1453 -0.3045
 5048TIP3    H136779   5.849   4.150   1.848  1.1404 -0.3533  1.4816
 5048TIP3    H236780   5.834   4.020   1.924 -2.4875 -2.1608 -1.9953
 5049TIP3   OH236781   4.426   3.256   7.768 -0.1587  0.4792  0.2489
 5049TIP3    H136782   4.426   3.340   7.815 -0.6258  0.8567 -0.4215
 5049TIP3    H236783   4.350   3.261   7.710  1.1046  0.5165 -1.4418
 5050TIP3   OH236784   4.518   5.319   8.265 -0.5631 -0.1593 -0.1497
 5050TIP3    H136785   4.465   5.374   8.322  0.9140  1.1877 -0.0167
 5050TIP3    H236786   4.486   5.230   8.281 -2.4670  0.5472  0.2172
 5051TIP3   OH236787   0.897   1.198   2.021  0.0992 -0.4933 -0.3120
 5051TIP3    H136788   0.847   1.193   1.940 -1.5248 -1.3469  0.6998
 5051TIP3    H236789   0.833   1.181   2.090  1.5470 -0.3439  1.1241
 5052TIP3   OH236790   1.146   0.306   3.005  0.0143  0.4414  0.1785
 5052TIP3    H136791   1.208   0.269   3.068  1.1306  0.9361 -0.5906
 5052TIP3    H236792   1.146   0.243   2.932 -0.6626  0.2736  0.3146
 5053TIP3   OH236793   1.155   0.886   6.973 -0.2028 -0.3532  0.2871
 5053TIP3    H136794   1.165   0.831   6.896  1.6943 -0.6224  0.6570
 5053TIP3    H236795   1.220   0.852   7.035 -0.6272  0.8095  1.4253
 5054TIP3   OH236796   1.379   5.759   1.807  0.2249  0.3107  0.3423
 5054TIP3    H136797   1.399   5.669   1.783  0.2636  0.4525 -0.1736
 5054TIP3    H236798   1.462   5.806   1.795 -0.3108  0.8450 -1.5398
 5055TIP3   OH236799   6.529   3.518   1.531  0.5132 -0.3680 -0.0214
 5055TIP3    H136800   6.582   3.564   1.596  1.3114 -0.4066 -0.6418
 5055TIP3    H236801   6.534   3.572   1.452 -2.5505  1.0886  0.6102
 5056TIP3   OH236802   4.008   4.683   0.034  0.1294 -0.2999 -0.2785
 5056TIP3    H136803   4.075   4.749   0.016 -0.0321 -0.1297 -0.2507
 5056TIP3    H236804   3.987   4.694   0.127  0.2248 -0.5053 -0.2299
 5057TIP3   OH236805   1.960   3.987   0.533 -0.0029 -0.3932 -0.3731
 5057TIP3    H136806   1.991   4.052   0.596 -1.9675  1.3377 -1.0631
 5057TIP3    H236807   1.995   4.017   0.449  0.0154 -0.8903 -0.5457
 5058TIP3   OH236808   2.568   1.668   0.520  0.1663 -0.6404 -0.0724
 5058TIP3    H136809   2.586   1.620   0.440  0.4356 -0.0562 -0.3685
 5058TIP3    H236810   2.620   1.749   0.512 -1.2499  0.2846 -0.1613
 5059TIP3   OH236811   0.029   6.851   0.727  0.4954 -0.5387 -0.1822
 5059TIP3    H136812   0.114   6.850   0.682  0.3408  0.8598 -0.5419
 5059TIP3    H236813  -0.030   6.807   0.666  0.7955 -0.8784 -0.2399
 5060TIP3   OH236814   3.536   1.205   6.940  0.0422  0.1385  0.4513
 5060TIP3    H136815   3.549   1.288   6.985  0.9354  0.3368 -0.1488
 5060TIP3    H236816   3.555   1.224   6.848  0.2232 -0.7105  0.3002
 5061TIP3   OH236817   3.916   6.119   0.344  0.5452 -0.1389  0.3224
 5061TIP3    H136818   3.944   6.191   0.287 -0.3413  1.2752  1.5717
 5061TIP3    H236819   3.863   6.063   0.289  0.0359  0.9702 -0.3543
 5062TIP3   OH236820   2.642   3.371   0.392  0.3255 -0.3618 -0.4358
 5062TIP3    H136821   2.651   3.436   0.322  0.4047 -1.7988 -1.8044
 5062TIP3    H236822   2.563   3.398   0.439 -0.8454 -0.4572 -2.2810
 5063TIP3   OH236823   2.222   4.643   2.351  0.3285 -0.6314  0.2266
 5063TIP3    H136824   2.152   4.701   2.380 -0.5838 -1.4820 -0.2191
 5063TIP3    H236825   2.290   4.651   2.418 -0.1599  0.2635  0.6239
 5064TIP3   OH236826   1.142   0.268   0.781  0.2201 -0.6582 -0.4781
 5064TIP3    H136827   1.110   0.359   0.780 -2.0795 -1.3506  1.5579
 5064TIP3    H236828   1.064   0.215   0.794  1.7782 -2.7792  0.8876
 5065TIP3   OH236829   2.454   3.406   1.838 -0.1879 -0.2109  0.3785
 5065TIP3    H136830   2.426   3.422   1.748  0.2489 -0.7294  0.1455
 5065TIP3    H236831   2.373   3.395   1.887 -0.4249 -0.0554  0.0254
 5066TIP3   OH236832   6.799   4.821   8.455 -0.7864 -0.1297  0.2070
 5066TIP3    H136833   6.829   4.734   8.428 -0.3408 -0.3916  1.4775
 5066TIP3    H236834   6.704   4.818   8.446 -0.8045 -0.8747  0.6049
 5067TIP3   OH236835   1.866   0.187   0.810 -0.0874  0.7451  0.4127
 5067TIP3    H136836   1.903   0.171   0.897  0.0758  0.2340  0.2547
 5067TIP3    H236837   1.776   0.154   0.817 -0.2422  1.1858  0.5389
 5068TIP3   OH236838   2.130   1.763   8.076  0.1288 -0.1568  0.9113
 5068TIP3    H136839   2.097   1.765   7.986 -0.4339  2.4784  1.1112
 5068TIP3    H236840   2.053   1.780   8.130  0.8495  0.5154  1.7453
 5069TIP3   OH236841   5.249   0.008   8.650  0.2577 -0.4831  0.1355
 5069TIP3    H136842   5.325  -0.042   8.680  1.2406  0.0827 -1.3196
 5069TIP3    H236843   5.177  -0.055   8.651  1.1362 -1.5204 -0.1657
 5070TIP3   OH236844   6.733   2.488   1.485 -0.0757  0.0483  0.7896
 5070TIP3    H136845   6.789   2.563   1.467  1.3017 -0.7215  1.7102
 5070TIP3    H236846   6.738   2.435   1.405  0.4326  0.0410  0.8233
 5071TIP3   OH236847   2.779   5.118   8.001  0.1029  0.0801  0.2473
 5071TIP3    H136848   2.859   5.142   8.048  0.4739  0.6121 -0.6314
 5071TIP3    H236849   2.717   5.187   8.022 -0.8809 -1.4223  2.6618
 5072TIP3   OH236850   6.177   3.919   7.893 -0.5655 -0.5249  0.0355
 5072TIP3    H136851   6.234   3.921   7.816 -0.5364  0.7257  0.0594
 5072TIP3    H236852   6.232   3.950   7.965 -2.1129  4.9140 -0.6479
 5073TIP3   OH236853   0.339   6.333   8.507  0.2655 -0.0350 -0.0453
 5073TIP3    H136854   0.356   6.276   8.582 -0.9383  0.7283  0.8563
 5073TIP3    H236855   0.246   6.355   8.515 -0.1276 -0.7020 -2.3358
 5074TIP3   OH236856   4.173   0.614   1.833 -0.4143  0.0159  0.4885
 5074TIP3    H136857   4.173   0.520   1.850 -0.4214 -0.3418 -1.3019
 5074TIP3    H236858   4.246   0.648   1.884 -0.6875 -0.8738  1.5047
 5075TIP3   OH236859   5.343   6.893   1.981 -0.0377  0.4944 -0.0328
 5075TIP3    H136860   5.333   6.831   1.910  0.8538 -0.6470  0.8063
 5075TIP3    H236861   5.267   6.950   1.974 -0.7661 -0.5574 -0.9564
 5076TIP3   OH236862   5.923   4.852   2.004 -0.7781  0.1378 -0.0500
 5076TIP3    H136863   6.005   4.837   2.050 -1.5665  0.0557  1.3859
 5076TIP3    H236864   5.856   4.849   2.072 -1.8169  1.9649 -0.9150
 5077TIP3   OH236865   5.556   6.566   6.829  0.0505  0.3101  0.3342
 5077TIP3    H136866   5.499   6.643   6.833  0.7923  0.8679  0.3431
 5077TIP3    H236867   5.627   6.585   6.890  0.1139 -0.4993  0.5260
 5078TIP3   OH236868   3.395   6.652   2.841 -0.1683  0.4999  0.0789
 5078TIP3    H136869   3.364   6.742   2.838 -1.8211  0.0223  1.2095
 5078TIP3    H236870   3.415   6.630   2.750  0.2609  1.9944 -0.2016
 5079TIP3   OH236871   1.573   3.682   2.135  0.0488 -0.0634 -0.0999
 5079TIP3    H136872   1.616   3.630   2.203 -0.3382  0.1571  0.3169
 5079TIP3    H236873   1.481   3.655   2.139  0.0665 -0.2238 -0.7001
 5080TIP3   OH236874   0.249   6.788   0.602 -0.4235  0.0847  0.1858
 5080TIP3    H136875   0.263   6.739   0.521 -1.3823 -0.9740  0.6395
 5080TIP3    H236876   0.336   6.821   0.624 -0.1683  0.5620 -1.3611
 5081TIP3   OH236877   4.236   2.625   8.534  0.2505 -0.0959  0.3888
 5081TIP3    H136878   4.231   2.593   8.624 -0.1141 -0.0747  0.3775
 5081TIP3    H236879   4.323   2.664   8.528  1.5987 -2.9948 -0.2650
 5082TIP3   OH236880   4.534   1.589   8.440 -0.6099 -0.1255 -0.0437
 5082TIP3    H136881   4.528   1.654   8.509  0.9224  0.2276 -0.2001
 5082TIP3    H236882   4.494   1.630   8.364  2.0761  1.5339 -0.7081
 5083TIP3   OH236883   0.875   3.043   2.687 -0.8313  0.2237  0.4356
 5083TIP3    H136884   0.853   3.123   2.734  1.7730  0.3050  1.7116
 5083TIP3    H236885   0.956   3.013   2.727 -1.2687 -2.6438 -0.5504
 5084TIP3   OH236886   4.781   4.946   1.541 -0.2882 -0.1239  0.0074
 5084TIP3    H136887   4.825   4.863   1.558  4.1938  2.0454  0.3327
 5084TIP3    H236888   4.727   4.961   1.618  2.8493 -0.5011  2.4852
 5085TIP3   OH236889   0.254   4.040   0.167  0.0916  0.7897 -0.2031
 5085TIP3    H136890   0.289   3.964   0.215  1.1595  0.9512 -0.7076
 5085TIP3    H236891   0.169   4.009   0.134  0.4877 -0.1823 -0.3666
 5086TIP3   OH236892   6.521   1.396   7.347 -0.3660  0.0140  0.1942
 5086TIP3    H136893   6.550   1.366   7.433  0.1873 -0.4497 -0.1467
 5086TIP3    H236894   6.531   1.320   7.290  1.4029  0.9142 -0.7683
 5087TIP3   OH236895   5.919   5.354   1.532 -0.1527 -0.5191 -0.0741
 5087TIP3    H136896   6.014   5.337   1.536  0.4663  2.6304  1.2378
 5087TIP3    H236897   5.909   5.416   1.460 -0.5261  2.2914  2.2202
 5088TIP3   OH236898   4.280   5.957   7.591  0.5254 -0.8954  0.4932
 5088TIP3    H136899   4.192   5.955   7.629  0.3882 -0.0039  0.2475
 5088TIP3    H236900   4.276   5.894   7.518  0.8570 -2.7815  2.0129
 5089TIP3   OH236901   4.463   5.445   2.067  0.2884 -0.4575 -0.0282
 5089TIP3    H136902   4.518   5.372   2.095 -1.0221 -1.6065 -0.3356
 5089TIP3    H236903   4.428   5.482   2.148  0.9225 -0.1832  0.1263
 5090TIP3   OH236904   3.265   3.049   0.979  0.1138 -0.2746 -0.7135
 5090TIP3    H136905   3.219   2.985   1.034 -0.1600 -0.8321 -1.5596
 5090TIP3    H236906   3.229   3.133   1.005  0.7356 -0.4122  0.6695
 5091TIP3   OH236907   4.459   0.495   7.483  0.2333 -0.4129  0.1200
 5091TIP3    H136908   4.547   0.476   7.450 -0.4490 -1.0135 -1.4500
 5091TIP3    H236909   4.413   0.535   7.408 -0.3479  1.4731  1.4097
 5092TIP3   OH236910   1.949   1.201   6.983 -0.4248  0.1733 -0.1768
 5092TIP3    H136911   1.949   1.294   7.006 -1.4902  0.1590 -0.0827
 5092TIP3    H236912   2.009   1.195   6.908 -1.1374  1.1042 -0.8444
 5093TIP3   OH236913   5.922   4.979   0.388  0.5302 -0.2934 -0.0693
 5093TIP3    H136914   5.963   4.899   0.421  1.1460 -0.0855 -0.3003
 5093TIP3    H236915   5.940   5.045   0.455  0.4685 -0.2291 -0.1164
 5094TIP3   OH236916   2.721   5.279   0.919  0.1698 -0.4290 -0.5980
 5094TIP3    H136917   2.643   5.314   0.877  1.3662  0.1001 -2.5112
 5094TIP3    H236918   2.769   5.356   0.950 -0.3665 -0.7815  1.2253
 5095TIP3   OH236919   1.399   2.139   0.957 -0.8478 -0.4126 -0.3464
 5095TIP3    H136920   1.488   2.105   0.968 -0.5379 -0.0705 -1.6453
 5095TIP3    H236921   1.347   2.087   1.018  0.1995 -0.7639  0.2930
 5096TIP3   OH236922   0.277   4.994   0.937 -0.2607  0.0774  0.2189
 5096TIP3    H136923   0.208   5.045   0.892 -1.8977 -0.4589  1.9901
 5096TIP3    H236924   0.273   4.908   0.895 -0.2469  0.2331 -0.1060
 5097TIP3   OH236925   0.277   1.632   8.340  0.0092  0.8554 -0.0941
 5097TIP3    H136926   0.313   1.573   8.407  0.8338  1.2719 -0.1621
 5097TIP3    H236927   0.248   1.574   8.270 -0.3034  0.4553  0.3601
 5098TIP3   OH236928   3.058   1.710   8.196 -0.0371  0.4646 -0.0668
 5098TIP3    H136929   2.971   1.698   8.158  0.1545  0.1470 -0.4163
 5098TIP3    H236930   3.118   1.692   8.124  0.3346 -0.1940  0.4009
 5099TIP3   OH236931   0.506   3.722   1.538 -0.1338  0.0486 -0.5879
 5099TIP3    H136932   0.578   3.785   1.534  2.9415 -3.1956 -1.7392
 5099TIP3    H236933   0.446   3.751   1.469  1.9468  0.9339 -2.1697
 5100TIP3   OH236934   6.270   5.419   8.151  0.1195 -0.1311 -0.5223
 5100TIP3    H136935   6.269   5.341   8.206  1.9593  0.7808  0.9112
 5100TIP3    H236936   6.193   5.409   8.095 -1.5618 -1.3926  1.8207
 5101TIP3   OH236937   2.264   3.477   7.167 -0.1985 -0.0476  0.0629
 5101TIP3    H136938   2.333   3.506   7.108  0.7986  0.0890  1.2525
 5101TIP3    H236939   2.266   3.539   7.240 -0.4118 -1.0242  0.9332
 5102TIP3   OH236940   3.413   2.784   0.171 -0.0929 -0.0320  0.1007
 5102TIP3    H136941   3.434   2.854   0.233 -1.1416 -0.2005  0.6699
 5102TIP3    H236942   3.405   2.706   0.226  1.1457 -0.6392 -0.5386
 5103TIP3   OH236943   2.830   3.373   8.190  0.7328 -0.4522  0.1185
 5103TIP3    H136944   2.756   3.418   8.231  0.4885 -0.5387 -0.2212
 5103TIP3    H236945   2.816   3.385   8.096  2.6690  2.0225  0.0489
 5104TIP3   OH236946   2.087   2.936   8.251  0.4645 -0.5920  0.1133
 5104TIP3    H136947   2.062   2.980   8.332  0.5862 -0.3280  0.0108
 5104TIP3    H236948   2.119   2.850   8.278  2.0919  0.1078  0.5053
 5105TIP3   OH236949   6.506   4.368   7.922 -0.1035  0.1061  0.2064
 5105TIP3    H136950   6.516   4.291   7.866  0.7633  1.7709 -2.1098
 5105TIP3    H236951   6.456   4.430   7.869  0.3647  1.6242  1.4529
 5106TIP3   OH236952   0.292   2.259   1.665 -0.6605  0.3405  0.1896
 5106TIP3    H136953   0.204   2.221   1.675 -1.0134  1.1509  0.3137
 5106TIP3    H236954   0.332   2.250   1.752 -0.0946 -1.2521 -0.2121
 5107TIP3   OH236955   3.205   2.976   0.048  0.2716 -0.2291  0.0299
 5107TIP3    H136956   3.126   2.974   0.101  0.2855 -1.2925  0.0252
 5107TIP3    H236957   3.250   2.894   0.068  2.2225  1.0827  1.3098
 5108TIP3   OH236958   3.742   2.529   2.214 -0.5318  0.3004 -0.3992
 5108TIP3    H136959   3.804   2.473   2.260  1.2326  0.6948 -2.1718
 5108TIP3    H236960   3.796   2.586   2.160 -2.4086  1.5301 -1.0956
 5109TIP3   OH236961   2.726   4.988   7.647  0.0195 -0.0327 -0.2542
 5109TIP3    H136962   2.702   4.990   7.554 -1.2410 -1.0355  0.0258
 5109TIP3    H236963   2.707   4.898   7.675 -0.1926  0.4197  1.1214
 5110TIP3   OH236964   6.503   6.239   6.904 -0.6575  0.7018 -0.2391
 5110TIP3    H136965   6.457   6.309   6.857 -0.7521  0.3650 -0.6676
 5110TIP3    H236966   6.441   6.165   6.901  0.2600 -0.0682 -1.6725
 5111TIP3   OH236967   1.815   1.305   8.364 -0.1572  0.3853 -0.2311
 5111TIP3    H136968   1.746   1.285   8.302 -0.6278  1.6130 -0.1310
 5111TIP3    H236969   1.796   1.394   8.394  0.7555  0.2786  0.7409
 5112TIP3   OH236970   3.342   5.883   0.360 -0.1555 -0.6382  0.2988
 5112TIP3    H136971   3.276   5.872   0.291  1.3364  0.5486 -1.4155
 5112TIP3    H236972   3.408   5.940   0.321  3.1910 -3.7114  0.9242
 5113TIP3   OH236973   2.810   4.367   7.275 -0.3573  0.0794  0.1496
 5113TIP3    H136974   2.763   4.293   7.237 -0.7139  0.8197 -0.8843
 5113TIP3    H236975   2.888   4.376   7.221 -0.2940  0.4392  0.2997
 5114TIP3   OH236976   2.661   1.935   0.540  0.3473  0.1414 -0.2943
 5114TIP3    H136977   2.748   1.973   0.552  0.7700 -0.2377 -1.8714
 5114TIP3    H236978   2.631   1.972   0.457 -0.5918 -0.4749 -0.2347
 5115TIP3   OH236979   1.042   4.188   1.386 -0.0237 -0.5287 -0.3862
 5115TIP3    H136980   1.121   4.199   1.439 -0.1606  0.1419 -0.3122
 5115TIP3    H236981   0.996   4.272   1.394 -0.1572 -0.4904 -1.3871
 5116TIP3   OH236982   3.412   0.931   0.864 -0.5046 -0.6960  0.5730
 5116TIP3    H136983   3.443   1.020   0.878 -0.9433 -0.5047  0.3323
 5116TIP3    H236984   3.484   0.888   0.817 -1.6267  0.5250 -2.5194
 5117TIP3   OH236985   0.193   0.199   8.310  0.7845  0.0317 -0.4801
 5117TIP3    H136986   0.189   0.290   8.341  0.0822 -0.3115  0.4725
 5117TIP3    H236987   0.101   0.173   8.300  0.9761 -0.6267 -0.5903
 5118TIP3   OH236988   1.747   4.299   1.143 -0.3010 -0.5684  0.0853
 5118TIP3    H136989   1.660   4.262   1.161 -0.6531  0.8642  1.6477
 5118TIP3    H236990   1.796   4.227   1.104 -1.8678 -1.7238  0.1280
 5119TIP3   OH236991   4.136   2.556   0.951  0.1737 -0.0380 -0.0267
 5119TIP3    H136992   4.219   2.561   0.904 -0.3070 -1.0142 -1.0462
 5119TIP3    H236993   4.140   2.626   1.016  2.1723 -0.6727  0.5933
 5120TIP3   OH236994   2.967   1.831   0.296 -0.2720 -0.4036 -0.1687
 5120TIP3    H136995   2.986   1.740   0.317  2.9393  0.2354  0.2624
 5120TIP3    H236996   2.913   1.828   0.217  0.0718 -2.6602 -0.3685
 5121TIP3   OH236997   2.588   2.184   7.322  0.3089  0.0985  0.1824
 5121TIP3    H136998   2.583   2.122   7.394  0.5974 -1.8210 -1.3618
 5121TIP3    H236999   2.552   2.265   7.357 -0.9584 -1.1889  2.0169
 5122TIP3   OH237000   3.365   6.590   0.941 -0.0763 -0.1797  0.2762
 5122TIP3    H137001   3.385   6.643   0.864  2.0023 -0.4344  0.6029
 5122TIP3    H237002   3.405   6.637   1.014 -0.6319 -0.7706  0.9746
 5123TIP3   OH237003   4.880   4.469   0.199 -0.0033  0.5308  0.1393
 5123TIP3    H137004   4.915   4.551   0.164 -0.2925  1.5247  2.0470
 5123TIP3    H237005   4.831   4.495   0.277 -2.4055 -1.1661 -0.6995
 5124TIP3   OH237006   6.748   2.490   0.471  0.3636  0.2780  0.8889
 5124TIP3    H137007   6.730   2.412   0.418  1.2338  0.2219  0.6593
 5124TIP3    H237008   6.675   2.495   0.532  0.8357 -1.3511  1.6419
 5125TIP3   OH237009   4.901   3.468   7.240  0.0333  0.7706  0.2630
 5125TIP3    H137010   4.812   3.435   7.248  0.3375 -0.2333 -0.3515
 5125TIP3    H237011   4.895   3.539   7.177 -0.3179  0.6742  0.1867
 5126TIP3   OH237012   3.933   6.476   1.608  0.7702 -0.0763  0.1057
 5126TIP3    H137013   3.991   6.462   1.683  0.8119  0.0035  0.0876
 5126TIP3    H237014   3.969   6.420   1.539  0.1895 -0.8747  0.4351
 5127TIP3   OH237015   6.429   6.741   7.994 -0.9528 -0.3376  0.3585
 5127TIP3    H137016   6.353   6.750   8.052 -0.5588  0.4914  0.7639
 5127TIP3    H237017   6.401   6.781   7.912 -1.2456 -0.8145  0.2220
 5128TIP3   OH237018   6.878   2.733   0.518  0.3517 -0.2225  0.5056
 5128TIP3    H137019   6.820   2.660   0.498  2.7411 -1.7313 -1.4295
 5128TIP3    H237020   6.947   2.695   0.572  0.7528  1.0084  0.8988
 5129TIP3   OH237021   0.740   4.407   8.112 -0.2688 -0.2878  0.0658
 5129TIP3    H137022   0.660   4.365   8.079 -0.1358 -0.9667  0.6068
 5129TIP3    H237023   0.724   4.419   8.205  0.7267 -1.5120  0.4175
 5130TIP3   OH237024   0.624   4.867   2.522  0.0208  0.1267 -0.4275
 5130TIP3    H137025   0.685   4.851   2.450 -0.2719 -1.5253 -0.3397
 5130TIP3    H237026   0.670   4.927   2.580  1.3326 -0.6170 -0.6675
 5131TIP3   OH237027   3.545   4.724   0.448 -0.1512 -0.3584  0.6814
 5131TIP3    H137028   3.530   4.721   0.353 -0.0651 -1.1930  0.6905
 5131TIP3    H237029   3.477   4.782   0.481  0.8222  1.3197 -0.0809
 5132TIP3   OH237030   1.643   4.490   8.547  0.1398  0.4068  0.3933
 5132TIP3    H137031   1.553   4.500   8.578 -0.4509  0.2828 -1.1790
 5132TIP3    H237032   1.634   4.447   8.462  1.7627 -0.5593  0.6759
 5133TIP3   OH237033   0.999   0.929   8.418  0.1922 -0.0159  0.1508
 5133TIP3    H137034   0.973   0.855   8.363 -1.1184  1.3601 -1.1944
 5133TIP3    H237035   1.017   0.999   8.356  0.3088  1.1219  1.4311
 5134TIP3   OH237036   6.046   0.941   6.622  0.4403  0.2065  0.0082
 5134TIP3    H137037   6.063   0.900   6.538  1.1455 -0.6079  0.5257
 5134TIP3    H237038   6.133   0.956   6.659  0.1381  0.4601  0.6254
 5135TIP3   OH237039   0.823   6.010   8.159 -0.0811  0.1458  0.5129
 5135TIP3    H137040   0.863   5.969   8.235 -0.2329 -2.4846 -0.7398
 5135TIP3    H237041   0.884   5.994   8.087 -0.6594  1.2359 -0.2629
 5136TIP3   OH237042   4.185   5.059   7.298 -0.5219  0.6000  0.0500
 5136TIP3    H137043   4.261   5.099   7.255  2.0351 -2.3630  1.4413
 5136TIP3    H237044   4.155   4.992   7.238 -0.5357  0.2028  0.4948
 5137TIP3   OH237045   1.396   0.547   7.928 -0.0484 -0.3879 -0.2821
 5137TIP3    H137046   1.334   0.506   7.988  0.4244  0.2621  0.6737
 5137TIP3    H237047   1.475   0.493   7.935  0.1938  0.0075  0.1216
 5138TIP3   OH237048   1.847   5.954   1.010 -0.1093  0.9638  0.2753
 5138TIP3    H137049   1.876   5.863   1.001 -1.4225  0.6891 -2.2926
 5138TIP3    H237050   1.813   5.959   1.099 -0.1170 -1.1113  0.4475
 5139TIP3   OH237051   4.117   6.056   8.179 -0.3676  0.4839  0.0523
 5139TIP3    H137052   4.079   5.998   8.114  1.3994 -1.1125  0.3595
 5139TIP3    H237053   4.194   6.093   8.137  0.7010 -0.4331  1.1380
 5140TIP3   OH237054   5.424   4.303   0.101  0.1136 -0.0828  0.9009
 5140TIP3    H137055   5.483   4.336   0.033 -0.2196  0.6052  0.9314
 5140TIP3    H237056   5.349   4.363   0.097 -0.6734 -1.0672  0.7221
 5141TIP3   OH237057   6.589   1.090   1.568  0.2123  0.1516 -0.8868
 5141TIP3    H137058   6.557   1.055   1.651 -1.4626 -1.7554 -2.2371
 5141TIP3    H237059   6.653   1.156   1.593 -0.0880 -0.4876  1.9028
 5142TIP3   OH237060   4.119   4.425   8.627 -0.2323 -0.1597 -0.4259
 5142TIP3    H137061   4.190   4.480   8.660 -0.3117  0.3517 -1.0947
 5142TIP3    H237062   4.055   4.487   8.592  0.1720 -0.7098 -2.1893
 5143TIP3   OH237063   0.429   2.014   8.430  0.0060  0.0126  0.0862
 5143TIP3    H137064   0.404   2.091   8.379 -0.1319 -0.3598 -0.4184
 5143TIP3    H237065   0.524   2.024   8.443 -0.0510  0.3912  0.2444
 5144TIP3   OH237066   6.257   2.729   1.933 -0.2155  0.0596  0.6497
 5144TIP3    H137067   6.251   2.797   2.000 -1.0882 -0.0945  0.7428
 5144TIP3    H237068   6.223   2.650   1.975 -0.3047 -0.1553  0.1859
 5145TIP3   OH237069   6.595   4.365   3.029 -0.7465 -0.2898 -0.6499
 5145TIP3    H137070   6.569   4.409   2.948 -1.8959 -0.2588 -0.2824
 5145TIP3    H237071   6.571   4.426   3.098 -3.7510 -1.9980 -0.0214
 5146TIP3   OH237072   5.800   5.682   2.136  0.1897  0.2034 -0.4554
 5146TIP3    H137073   5.733   5.653   2.074 -0.0490 -1.1798  0.4141
 5146TIP3    H237074   5.760   5.671   2.222  1.2533  0.1359  0.0473
 5147TIP3   OH237075   5.863   1.293   6.579  0.0837 -0.2364  0.5638
 5147TIP3    H137076   5.805   1.218   6.583  1.1604 -1.0900  0.6525
 5147TIP3    H237077   5.949   1.256   6.556  0.3684  1.0997 -0.7366
 5148TIP3   OH237078   3.884   5.188   0.253 -0.1261 -0.4343  0.6387
 5148TIP3    H137079   3.813   5.202   0.316 -0.5028  0.9214 -0.0391
 5148TIP3    H237080   3.962   5.176   0.306 -0.3878  0.9872  1.3923
 5149TIP3   OH237081   6.215   0.784   2.477  0.0486 -0.1235 -0.2785
 5149TIP3    H137082   6.174   0.870   2.477 -1.4003 -0.7440  1.1602
 5149TIP3    H237083   6.309   0.802   2.471 -0.2078  1.5574  0.1965
 5150TIP3   OH237084   2.409   5.257   1.377  0.0414  0.2672 -0.2999
 5150TIP3    H137085   2.334   5.310   1.402  0.4586  0.0683  1.4682
 5150TIP3    H237086   2.427   5.203   1.453  2.1888  0.5346 -0.5606
 5151TIP3   OH237087   2.601   3.650   8.166  0.4298 -0.1622 -0.3989
 5151TIP3    H137088   2.577   3.559   8.149  1.3210 -0.9496  2.0956
 5151TIP3    H237089   2.659   3.674   8.094 -0.0705 -1.4472 -1.2565
 5152TIP3   OH237090   2.666   0.010   8.145  0.6491 -0.3903 -0.5080
 5152TIP3    H137091   2.729   0.052   8.204  0.6481 -1.8059  0.5818
 5152TIP3    H237092   2.629  -0.062   8.198 -2.0134  0.4775 -1.0286
 5153TIP3   OH237093   0.216   3.034   1.326 -0.1036  0.3104  0.2030
 5153TIP3    H137094   0.287   3.078   1.280 -0.1202  0.2646  0.1324
 5153TIP3    H237095   0.160   3.105   1.358 -1.2326  0.3196 -1.6601
 5154TIP3   OH237096   5.091   2.286   2.213 -0.2209 -0.0096  0.1096
 5154TIP3    H137097   5.062   2.366   2.168  0.0769  0.9776  1.5853
 5154TIP3    H237098   5.020   2.224   2.200 -1.3722  1.1589  0.5955
 5155TIP3   OH237099   4.851   2.118   2.195  0.1029 -0.1965 -0.0798
 5155TIP3    H137100   4.832   2.149   2.284  1.0494 -0.4933  0.2427
 5155TIP3    H237101   4.876   2.026   2.207  0.2352 -0.2357 -0.6506
 5156TIP3   OH237102   5.341   4.769   7.541 -0.2117 -0.1500 -0.3903
 5156TIP3    H137103   5.297   4.822   7.608  0.7286  3.2526 -2.2044
 5156TIP3    H237104   5.422   4.740   7.582  0.0825  1.3905  0.1868
 5157TIP3   OH237105   6.510   6.762   6.883  0.0356  0.1473  0.4537
 5157TIP3    H137106   6.483   6.846   6.846 -0.0077 -0.0060  0.1314
 5157TIP3    H237107   6.606   6.764   6.879  0.0181 -0.1084 -0.2182
 5158TIP3   OH237108   4.086   4.967   8.380 -0.0351  0.1465  0.0009
 5158TIP3    H137109   4.076   4.913   8.302 -0.9440  0.9292 -0.4532
 5158TIP3    H237110   4.004   4.956   8.428  0.2909  0.1146  0.5638
 5159TIP3   OH237111   3.095   5.573   0.725 -0.1759  0.2414 -0.0252
 5159TIP3    H137112   3.184   5.550   0.698 -0.7302 -0.1410 -1.5900
 5159TIP3    H237113   3.047   5.490   0.721 -0.4804  0.3043  1.4877
 5160TIP3   OH237114   6.014   3.705   0.097  0.9723 -0.5041  0.2999
 5160TIP3    H137115   5.982   3.793   0.077  0.6532 -1.1937 -2.9157
 5160TIP3    H237116   5.943   3.663   0.146 -0.1541  0.1603 -0.7046
 5161TIP3   OH237117   5.438   1.834   1.030 -0.0634 -0.5419  0.2862
 5161TIP3    H137118   5.388   1.855   1.109  0.6438  1.2717  0.2821
 5161TIP3    H237119   5.371   1.817   0.964 -0.6594 -0.6058  0.8899
 5162TIP3   OH237120   1.530   0.351   0.755  0.5325 -0.4963  0.3471
 5162TIP3    H137121   1.553   0.265   0.792  0.3712 -0.3217  0.8557
 5162TIP3    H237122   1.542   0.340   0.661  1.9231 -0.6541  0.5132
 5163TIP3   OH237123   4.892   3.511   1.091 -0.1304 -0.4972  0.3265
 5163TIP3    H137124   4.910   3.421   1.117  2.5233 -0.7085 -1.8339
 5163TIP3    H237125   4.949   3.526   1.016 -0.4354  3.0286  0.6479
 5164TIP3   OH237126   0.538   0.465   8.019  0.2976 -0.7858  0.6040
 5164TIP3    H137127   0.481   0.395   7.987  1.5765 -2.5630  2.0110
 5164TIP3    H237128   0.486   0.545   8.009 -1.5252 -2.0239 -0.3176
 5165TIP3   OH237129   0.191   0.877   7.244  0.1512 -0.2117 -0.2055
 5165TIP3    H137130   0.266   0.931   7.269  0.1322  1.0696 -2.5884
 5165TIP3    H237131   0.129   0.938   7.203 -1.6192 -1.4473  0.4659
 5166TIP3   OH237132   0.972   2.830   1.970  0.3256  0.4772  0.2236
 5166TIP3    H137133   0.890   2.878   1.957  0.0550 -0.2036 -0.6896
 5166TIP3    H237134   0.948   2.756   2.026  0.4531  0.6509  0.5057
 5167TIP3   OH237135   1.076   0.787   1.335 -0.0489  0.2147 -0.1830
 5167TIP3    H137136   1.020   0.710   1.326  0.5663 -0.3883  0.9159
 5167TIP3    H237137   1.066   0.812   1.427  0.5593  0.8224 -0.2817
 5168TIP3   OH237138   5.540   0.829   7.364 -0.4485 -0.4445 -0.2900
 5168TIP3    H137139   5.546   0.759   7.430  1.2475 -0.5335 -0.5004
 5168TIP3    H237140   5.597   0.800   7.293  0.2212  1.1151 -0.4225
 5169TIP3   OH237141   6.807   2.387   7.721 -0.5436  0.4321  0.1015
 5169TIP3    H137142   6.770   2.473   7.743 -0.7155  0.4922 -0.4073
 5169TIP3    H237143   6.784   2.374   7.629 -2.1645 -0.9826  0.6457
 5170TIP3   OH237144   4.855   1.140   1.351 -0.1542  0.2622  0.1127
 5170TIP3    H137145   4.826   1.186   1.430  1.8822  0.0668  1.0348
 5170TIP3    H237146   4.942   1.106   1.373  0.7633  0.7412 -2.4348
 5171TIP3   OH237147   6.297   6.408   1.299  0.9342  0.2135  0.7334
 5171TIP3    H137148   6.208   6.379   1.282  0.8325  0.5727  0.6313
 5171TIP3    H237149   6.293   6.503   1.289  1.5428  0.1459 -0.2371
 5172TIP3   OH237150   1.856   3.806   6.899  0.5328  0.3280 -0.1920
 5172TIP3    H137151   1.797   3.852   6.959 -0.4920  2.6442 -2.7586
 5172TIP3    H237152   1.943   3.842   6.919  0.4425  0.0366  0.7859
 5173TIP3   OH237153   2.567   0.950   0.268  0.0135 -0.0396  0.0788
 5173TIP3    H137154   2.620   0.952   0.189 -1.1212  0.1187 -0.7035
 5173TIP3    H237155   2.494   1.009   0.249  1.5994  3.0808  2.6680
 5174TIP3   OH237156   5.023   5.693   1.937  0.0997  0.2682 -0.0738
 5174TIP3    H137157   5.078   5.770   1.926 -0.7115  0.8355 -0.2117
 5174TIP3    H237158   4.971   5.711   2.015  1.1873 -0.9393  0.9913
 5175TIP3   OH237159   6.785   4.357   0.832  0.0159  0.3091  0.3460
 5175TIP3    H137160   6.742   4.437   0.861 -0.9500 -0.1832  0.3131
 5175TIP3    H237161   6.818   4.317   0.912 -1.6293 -0.4622  0.6803
 5176TIP3   OH237162   2.943   2.870   0.893  0.3389  0.0770  0.5802
 5176TIP3    H137163   2.905   2.957   0.881  0.5159  0.3526  1.9134
 5176TIP3    H237164   2.934   2.829   0.807  1.2252  1.7830 -0.3833
 5177TIP3   OH237165   2.831   0.971   0.538  0.1105  0.0370  0.0792
 5177TIP3    H137166   2.744   0.983   0.576  0.0515 -0.2977  0.0501
 5177TIP3    H237167   2.828   0.885   0.496  0.9936 -0.7792  1.5815
 5178TIP3   OH237168   4.901   6.674   1.330  0.6171  0.1696  0.2536
 5178TIP3    H137169   4.951   6.716   1.259  1.8270 -0.1169  0.9139
 5178TIP3    H237170   4.820   6.726   1.335  1.3009  1.3218 -0.1322
 5179TIP3   OH237171   6.601   1.315   8.307  0.2494  0.2644  0.5228
 5179TIP3    H137172   6.517   1.283   8.339  0.6475 -0.2690  1.0780
 5179TIP3    H237173   6.643   1.353   8.385 -0.2221  2.2053 -0.1332
 5180TIP3   OH237174   3.636   1.941   8.254  0.1830 -0.1049  0.4253
 5180TIP3    H137175   3.685   1.872   8.209  1.5294 -0.3089  2.0951
 5180TIP3    H237176   3.583   1.894   8.319 -0.3299  0.3006  0.3029
 5181TIP3   OH237177   2.816   1.295   1.044  0.0694 -0.0540  0.3123
 5181TIP3    H137178   2.741   1.250   1.083  0.8417 -0.7991  0.9856
 5181TIP3    H237179   2.889   1.275   1.103  0.5185  1.8326  0.4697
 5182TIP3   OH237180   0.493   0.144   1.384  0.1917  0.4541  0.0166
 5182TIP3    H137181   0.576   0.116   1.345  1.4103  1.3057  1.8609
 5182TIP3    H237182   0.516   0.170   1.473 -1.7946  2.1582  0.1032
 5183TIP3   OH237183   5.909   6.186   0.836  0.4359 -0.2215  0.3659
 5183TIP3    H137184   5.934   6.248   0.905  0.2245  1.0155 -0.6233
 5183TIP3    H237185   5.907   6.239   0.756 -0.3424 -1.3851 -0.4226
 5184TIP3   OH237186   3.243   1.907   7.561 -0.2641  0.0146 -0.3444
 5184TIP3    H137187   3.191   1.827   7.549 -0.0317 -0.1178 -0.4702
 5184TIP3    H237188   3.200   1.972   7.505 -1.4234  0.4284  0.9899
 5185TIP3   OH237189   2.293   5.706   8.489  0.3673  0.0561 -0.5377
 5185TIP3    H137190   2.383   5.674   8.478  0.4685  0.6637 -1.6664
 5185TIP3    H237191   2.238   5.632   8.464  0.4220 -1.3015  2.7993
 5186TIP3   OH237192   4.643   0.524   1.727 -1.0250  0.0726 -0.2490
 5186TIP3    H137193   4.575   0.458   1.730 -0.5109 -0.6166 -2.3085
 5186TIP3    H237194   4.634   0.572   1.810 -1.9995 -1.9540  0.8905
 5187TIP3   OH237195   0.450   1.923   1.899 -0.3573 -0.7730 -0.0023
 5187TIP3    H137196   0.527   1.916   1.954  1.2565  1.4914 -1.8143
 5187TIP3    H237197   0.377   1.905   1.958  1.3200  0.3704  2.5991
 5188TIP3   OH237198   3.483   3.193   1.619  0.4655 -0.5677 -0.4010
 5188TIP3    H137199   3.443   3.164   1.701 -0.6338  1.0155 -0.3377
 5188TIP3    H237200   3.568   3.227   1.645  0.4173 -0.7317 -0.0187
 5189TIP3   OH237201   4.380   6.609   8.249  0.1884 -0.3681  0.6759
 5189TIP3    H137202   4.350   6.699   8.257  0.8273 -0.0890  0.0523
 5189TIP3    H237203   4.320   6.558   8.304 -1.1152  0.2238 -0.1698
 5190TIP3   OH237204   4.400   5.397   7.661 -0.5032 -0.4087 -0.2732
 5190TIP3    H137205   4.405   5.473   7.720  1.1551  0.2055 -1.1555
 5190TIP3    H237206   4.306   5.378   7.657 -0.7531  0.0230  1.9019
 5191TIP3   OH237207   3.620   1.291   6.704  0.0642 -0.1485  0.0793
 5191TIP3    H137208   3.656   1.343   6.631  0.0407  1.0283  0.8908
 5191TIP3    H237209   3.684   1.221   6.716 -0.0670 -0.5279 -1.2466
 5192TIP3   OH237210   3.323   3.625   8.564 -0.0512  0.3115 -0.1285
 5192TIP3    H137211   3.315   3.578   8.647  1.4781  1.4514  0.7155
 5192TIP3    H237212   3.292   3.714   8.584 -0.4163  0.3864 -0.9999
 5193TIP3   OH237213   5.067   1.572   1.320  0.1660 -0.1735 -0.1668
 5193TIP3    H137214   5.011   1.520   1.377  0.1590 -1.1372 -1.0271
 5193TIP3    H237215   5.012   1.644   1.292  0.6344  1.2609  2.2797
 5194TIP3   OH237216   4.034   3.686   8.180 -0.2526  0.0377 -0.0321
 5194TIP3    H137217   3.955   3.739   8.191 -1.5560 -1.5383 -1.2042
 5194TIP3    H237218   4.054   3.654   8.268 -1.7070 -0.5679  0.1041
 5195TIP3   OH237219   0.556   5.794   7.970  0.0688  0.5030 -0.5698
 5195TIP3    H137220   0.499   5.867   7.992 -1.5374  0.3057 -3.5999
 5195TIP3    H237221   0.533   5.771   7.880  2.9588 -1.4856 -0.9541
 5196TIP3   OH237222   3.294   6.468   7.160 -0.1631 -0.3019 -0.0284
 5196TIP3    H137223   3.298   6.404   7.089 -0.1889 -0.0711 -0.2392
 5196TIP3    H237224   3.365   6.529   7.142 -0.3019 -0.1216  0.0260
 5197TIP3   OH237225   6.647   4.636   0.885 -0.2232  0.1502 -0.4492
 5197TIP3    H137226   6.571   4.578   0.877 -0.7457  0.6670  0.6336
 5197TIP3    H237227   6.617   4.720   0.851 -0.8596  0.9534  1.9327
 5198TIP3   OH237228   4.618   3.530   1.456 -0.0725  0.0046  0.0625
 5198TIP3    H137229   4.542   3.584   1.478  1.3029  1.6027  1.1452
 5198TIP3    H237230   4.691   3.592   1.452  1.3654 -1.6203  0.1093
 5199TIP3   OH237231   3.282   2.168   0.901  0.4541  0.1547 -0.1866
 5199TIP3    H137232   3.343   2.110   0.946  0.7930  1.7791  1.5671
 5199TIP3    H237233   3.326   2.191   0.819  1.7389  0.4460  0.5615
 5200TIP3   OH237234   5.507   5.744   0.183 -0.0100 -0.0751 -0.2092
 5200TIP3    H137235   5.485   5.651   0.179  0.5300 -0.4879  3.2472
 5200TIP3    H237236   5.422   5.788   0.186 -0.2671 -0.5048 -0.9026
 5201TIP3   OH237237   6.153   5.009   1.617 -0.4703 -0.0937 -0.1174
 5201TIP3    H137238   6.247   4.992   1.625 -0.6388 -0.7479  0.5748
 5201TIP3    H237239   6.113   4.952   1.683 -1.1521  2.0909  1.4943
 5202TIP3   OH237240   1.807   3.000   1.499 -0.5064  0.2344  0.1097
 5202TIP3    H137241   1.790   3.092   1.523 -2.0013  0.8656 -2.8787
 5202TIP3    H237242   1.720   2.965   1.480  0.3389 -0.5390 -2.7371
 5203TIP3   OH237243   6.643   2.805   1.510  0.5287 -0.2141 -0.9395
 5203TIP3    H137244   6.606   2.745   1.446  2.4631 -0.7260 -1.6227
 5203TIP3    H237245   6.622   2.892   1.476 -0.2785 -0.4842 -1.1536
 5204TIP3   OH237246   5.093   2.830   0.613  0.1426  0.3760  0.3884
 5204TIP3    H137247   5.041   2.782   0.676  0.0697 -0.4730 -0.2926
 5204TIP3    H237248   5.155   2.881   0.665  0.3757 -0.6486  1.1253
 5205TIP3   OH237249   5.589   2.690   2.081 -0.1385  0.0988 -0.0738
 5205TIP3    H137250   5.587   2.783   2.055 -0.1920  0.2228  0.3593
 5205TIP3    H237251   5.620   2.644   2.003 -0.0069  0.4942 -0.2589
 5206TIP3   OH237252   6.510   1.976   0.984  0.6727  0.3040 -0.3114
 5206TIP3    H137253   6.479   1.894   0.945 -0.6689  0.1795  0.9532
 5206TIP3    H237254   6.442   2.040   0.964  1.4140  0.9826 -0.7437
 5207TIP3   OH237255   2.487   1.899   2.307  0.1292 -0.1904  0.3642
 5207TIP3    H137256   2.522   1.978   2.266  0.2862 -0.4018  0.0903
 5207TIP3    H237257   2.515   1.906   2.399 -0.8321  0.6305  0.6067
 5208TIP3   OH237258   5.103   4.882   1.141  0.1539  0.5185 -1.0377
 5208TIP3    H137259   5.071   4.955   1.088 -0.8397  1.3192  0.5962
 5208TIP3    H237260   5.162   4.922   1.204  1.6729 -0.4835 -1.7618
 5209TIP3   OH237261   0.296   0.813   7.973 -0.3989  0.1132  0.2462
 5209TIP3    H137262   0.313   0.903   7.946  0.5902  0.5224  2.1104
 5209TIP3    H237263   0.382   0.778   7.996 -0.9553 -0.8088  0.9872
 5210TIP3   OH237264   3.233   4.323   8.159 -0.3352  0.5110  0.1671
 5210TIP3    H137265   3.236   4.396   8.220  2.6147  0.1664  0.5415
 5210TIP3    H237266   3.164   4.347   8.097 -0.3985  2.9331  1.0783
 5211TIP3   OH237267   0.490   1.015   8.266  0.0492  0.4745 -0.1461
 5211TIP3    H137268   0.521   1.003   8.176 -0.0783  0.5666 -0.2030
 5211TIP3    H237269   0.569   1.022   8.319  0.1637 -1.0120 -0.0563
 5212TIP3   OH237270   5.421   4.794   1.341  0.5551 -0.1045 -0.3025
 5212TIP3    H137271   5.514   4.814   1.349  1.1183 -0.9775 -3.1866
 5212TIP3    H237272   5.418   4.717   1.283 -1.9667 -0.0302 -0.3866
 5213TIP3   OH237273   0.732   5.478   8.381 -0.4070  0.4997 -0.4446
 5213TIP3    H137274   0.744   5.537   8.455 -0.6012 -0.3928  0.3195
 5213TIP3    H237275   0.817   5.478   8.336  0.9940 -1.7677  1.9196
 5214TIP3   OH237276   6.540   0.470   1.698 -0.0028 -0.5517  0.5584
 5214TIP3    H137277   6.449   0.452   1.675  0.0390  0.4921 -0.4590
 5214TIP3    H237278   6.577   0.512   1.621  1.4057 -1.1318  0.8877
 5215TIP3   OH237279   2.411   3.206   0.816 -0.2039  0.1066  0.5659
 5215TIP3    H137280   2.455   3.182   0.898  0.7179  1.1600  0.4063
 5215TIP3    H237281   2.388   3.298   0.828  0.2456  0.3670 -0.4860
 5216TIP3   OH237282   0.777   0.097   7.313 -0.1930 -0.6599  0.0166
 5216TIP3    H137283   0.739   0.075   7.228  0.1197 -1.1685  0.0069
 5216TIP3    H237284   0.862   0.053   7.313 -0.0935 -0.4647  0.4969
 5217TIP3   OH237285   4.666   5.717   6.929  0.0498 -0.3033 -0.1203
 5217TIP3    H137286   4.752   5.740   6.895 -0.2342  1.0405 -0.0122
 5217TIP3    H237287   4.650   5.628   6.897  1.6813 -0.7834  0.3038
 5218TIP3   OH237288   5.521   0.181   0.526 -0.4390  0.1328  0.5838
 5218TIP3    H137289   5.523   0.276   0.536 -1.3130  0.2023  0.2119
 5218TIP3    H237290   5.515   0.166   0.432 -0.7270 -0.2802  0.6627
 5219TIP3   OH237291   5.550   6.792   0.359  0.2319 -0.1764 -0.1231
 5219TIP3    H137292   5.590   6.727   0.417 -1.6446 -1.3550 -0.0770
 5219TIP3    H237293   5.474   6.824   0.407 -0.6115 -0.2117 -1.3957
 5220TIP3   OH237294   2.880   1.041   2.149  0.2439  0.2278 -0.2052
 5220TIP3    H137295   2.873   1.115   2.089  0.4256  0.7543  0.4057
 5220TIP3    H237296   2.933   0.977   2.102 -1.4210 -0.2991 -1.4808
 5221TIP3   OH237297   4.694   2.089   1.774 -0.5642 -0.3631  0.6016
 5221TIP3    H137298   4.638   2.166   1.774 -0.2773 -0.1463 -0.3350
 5221TIP3    H237299   4.635   2.016   1.795 -0.7064  0.1685  2.2020
 5222TIP3   OH237300   0.958   6.604   0.504  0.0275 -0.0265 -0.2329
 5222TIP3    H137301   1.048   6.627   0.525  0.2029  0.1481 -1.1524
 5222TIP3    H237302   0.942   6.642   0.418 -1.8459  2.3853  1.0687
 5223TIP3   OH237303   6.150   0.735   0.637 -0.7539 -0.3795  0.0159
 5223TIP3    H137304   6.085   0.691   0.691  0.6843 -1.7267  0.7156
 5223TIP3    H237305   6.172   0.671   0.569  0.5312 -0.3386  0.3662
 5224TIP3   OH237306   4.293   5.244   1.833 -0.4044  0.1279  0.2856
 5224TIP3    H137307   4.272   5.336   1.847  0.6757  0.7519 -1.7531
 5224TIP3    H237308   4.363   5.225   1.895 -0.6021  0.6795  0.6877
 5225TIP3   OH237309   5.003   5.645   2.304 -0.4666  0.5558  0.5101
 5225TIP3    H137310   5.026   5.663   2.395 -1.5555  0.5439  0.7934
 5225TIP3    H237311   4.953   5.721   2.276  0.6988  1.0229 -0.4082
 5226TIP3   OH237312   5.465   2.575   2.427  0.2574  0.4284 -0.1343
 5226TIP3    H137313   5.515   2.530   2.496  1.2603  1.6482 -0.0104
 5226TIP3    H237314   5.376   2.579   2.461  0.3228 -0.6923  0.2178
 5227TIP3   OH237315   5.164   6.312   1.788 -0.1371 -0.3429  0.4444
 5227TIP3    H137316   5.132   6.325   1.699 -2.1231 -1.2938  0.9500
 5227TIP3    H237317   5.096   6.349   1.844  2.2776  2.6958  1.6347
 5228TIP3   OH237318   0.203   0.697   7.015  0.1660  0.3562  0.2337
 5228TIP3    H137319   0.201   0.777   7.067  0.8684 -0.4816  1.6009
 5228TIP3    H237320   0.111   0.674   7.002 -0.0327  0.2718  1.6342
 5229TIP3   OH237321   2.659   0.751   7.238  1.1494  0.6291 -0.0707
 5229TIP3    H137322   2.608   0.822   7.200  0.4613 -0.4803 -1.2894
 5229TIP3    H237323   2.645   0.759   7.333 -0.4245  0.9824 -0.3158
 5230TIP3   OH237324   6.594   2.754   7.510  0.2088 -0.1707 -0.1147
 5230TIP3    H137325   6.664   2.806   7.471  2.3234 -1.5126  1.6619
 5230TIP3    H237326   6.577   2.795   7.594  0.2743 -0.9841  0.3074
 5231TIP3   OH237327   3.977   1.047   0.054 -0.2701  0.3420 -0.0580
 5231TIP3    H137328   3.922   1.012   0.125 -1.2541  0.6320 -0.6553
 5231TIP3    H237329   3.981   0.976  -0.010 -0.9632  0.7356 -0.5564
 5232TIP3   OH237330   0.379   4.750   0.555  0.1774  0.5501 -0.7909
 5232TIP3    H137331   0.405   4.663   0.523 -0.8255  0.2494 -0.8012
 5232TIP3    H237332   0.306   4.776   0.499 -1.0633  0.3793  0.6877
 5233TIP3   OH237333   0.555   5.247   1.912 -0.4183  0.1452  0.6332
 5233TIP3    H137334   0.484   5.234   1.849 -0.0235  1.1308 -0.0411
 5233TIP3    H237335   0.584   5.337   1.897  2.0011 -0.6775 -0.1802
 5234TIP3   OH237336   5.387   2.428   0.602 -0.2786 -0.0690 -0.3700
 5234TIP3    H137337   5.384   2.507   0.548  1.1142  0.0188 -0.3527
 5234TIP3    H237338   5.322   2.444   0.671 -0.9500  0.4819 -1.1142
 5235TIP3   OH237339   5.432   3.974   0.431 -0.9766  0.1205  0.1585
 5235TIP3    H137340   5.439   4.068   0.416 -0.8196  0.3406  1.5076
 5235TIP3    H237341   5.512   3.951   0.478 -1.5696 -0.4503  0.9247
 5236TIP3   OH237342   3.350   0.110   7.481  0.2835  0.5520 -0.1051
 5236TIP3    H137343   3.303   0.027   7.477  2.4638 -0.8092  1.0684
 5236TIP3    H237344   3.427   0.093   7.535  3.5899  1.8933 -3.8602
 5237TIP3   OH237345   0.372   4.924   8.071 -0.4541 -0.3750  0.2328
 5237TIP3    H137346   0.460   4.944   8.040  0.0939 -0.0828  1.9035
 5237TIP3    H237347   0.316   4.983   8.021  0.5680  1.2320  0.8971
 5238TIP3   OH237348   3.669   2.684   0.398  0.0978  0.0016 -0.1866
 5238TIP3    H137349   3.694   2.687   0.490  0.6221  1.3443 -0.3580
 5238TIP3    H237350   3.578   2.715   0.397 -0.1005 -0.5532 -0.0760
 5239TIP3   OH237351   5.116   4.300   0.317  0.0312 -0.0254  0.0525
 5239TIP3    H137352   5.147   4.383   0.352 -0.2109 -0.3598  1.1175
 5239TIP3    H237353   5.051   4.324   0.252 -0.2119  0.6312  0.5248
 5240TIP3   OH237354   5.705   4.881   0.706 -0.2214 -0.2608  0.3022
 5240TIP3    H137355   5.714   4.975   0.690 -2.0668 -0.0624  0.2712
 5240TIP3    H237356   5.635   4.874   0.770  1.3849 -1.5336  2.0359
 5241TIP3   OH237357   4.060   3.614   7.372  0.6359 -0.1469  0.6128
 5241TIP3    H137358   4.153   3.607   7.354  0.0870  0.5612 -3.5683
 5241TIP3    H237359   4.041   3.708   7.364 -0.5851 -0.4027  0.2666
 5242TIP3   OH237360   2.179   2.499   0.169  0.1732  0.1451 -0.3410
 5242TIP3    H137361   2.273   2.485   0.182  0.1014  0.0302  0.0835
 5242TIP3    H237362   2.169   2.513   0.075  1.1465  4.3254 -0.0006
 5243TIP3   OH237363   0.090   1.137   1.765 -0.0662 -0.4329 -0.3349
 5243TIP3    H137364   0.093   1.225   1.726 -1.5940  0.0767  0.6038
 5243TIP3    H237365   0.142   1.145   1.845  0.0089 -0.4620 -0.3804
 5244TIP3   OH237366   4.365   5.491   0.420  0.6160  0.0871 -0.0809
 5244TIP3    H137367   4.349   5.532   0.505  0.1928 -0.9671  0.3670
 5244TIP3    H237368   4.288   5.513   0.368  0.9016  0.7813 -0.2203
 5245TIP3   OH237369   1.514   1.007   8.099  0.2856  0.6879  0.3634
 5245TIP3    H137370   1.529   1.076   8.164 -3.5291  0.5798  1.6266
 5245TIP3    H237371   1.528   0.925   8.147  0.1370  0.5935  0.2463
 5246TIP3   OH237372   0.761   0.961   1.342 -0.2802 -0.2069 -0.1461
 5246TIP3    H137373   0.750   1.010   1.260  2.8840  0.5983 -0.2185
 5246TIP3    H237374   0.798   0.877   1.314 -0.6361 -0.5433  0.3798
 5247TIP3   OH237375   6.825   3.596   8.326 -0.1710 -0.4151  0.4754
 5247TIP3    H137376   6.867   3.677   8.297  0.2494 -0.5560  0.6867
 5247TIP3    H237377   6.865   3.578   8.411 -0.8802 -0.3872  0.8236
 5248TIP3   OH237378   5.991   3.105   7.313  0.1489 -0.5626  0.6258
 5248TIP3    H137379   6.051   3.093   7.239  0.0890  2.6170 -0.0923
 5248TIP3    H237380   5.914   3.147   7.274 -0.5722 -0.3067  2.2646
 5249TIP3   OH237381   5.606   3.899   2.111 -0.2290  0.2254 -0.1900
 5249TIP3    H137382   5.555   3.839   2.166 -0.1650 -0.6834 -1.0786
 5249TIP3    H237383   5.667   3.842   2.064 -0.6902  0.8645 -1.6520
 5250TIP3   OH237384   2.302   5.973   0.977  0.1371  0.2664 -0.6377
 5250TIP3    H137385   2.245   6.050   0.983  0.0487  0.2631 -1.3282
 5250TIP3    H237386   2.246   5.904   0.942  0.3127 -0.0185 -0.3683
 5251TIP3   OH237387   4.250   5.912   8.427  0.0702 -0.3425  0.2757
 5251TIP3    H137388   4.343   5.892   8.425  0.2968  0.6254  0.2768
 5251TIP3    H237389   4.240   5.986   8.367 -0.7103 -0.4769  0.2228
 5252TIP3   OH237390   0.774   5.366   1.458  0.1617 -0.3149  0.3025
 5252TIP3    H137391   0.837   5.354   1.387 -1.0374 -1.8521 -0.5799
 5252TIP3    H237392   0.716   5.289   1.452 -3.2885  2.1199 -0.5239
 5253TIP3   OH237393   3.177   4.857   7.873 -0.1744 -0.3039 -0.1311
 5253TIP3    H137394   3.083   4.868   7.888 -0.1181 -1.3195  1.1055
 5253TIP3    H237395   3.198   4.773   7.914  1.9564  1.5074  2.8756
 5254TIP3   OH237396   2.339   1.041   6.435 -0.1768  0.2562 -0.0450
 5254TIP3    H137397   2.328   1.086   6.519 -2.2176 -1.1280  0.5189
 5254TIP3    H237398   2.261   1.064   6.385  1.0396  1.1049 -1.6388
 5255TIP3   OH237399   0.429   0.623   8.444  0.3986  0.3352 -0.4893
 5255TIP3    H137400   0.399   0.533   8.436  1.4835 -0.0540 -0.3584
 5255TIP3    H237401   0.377   0.672   8.380 -0.4072 -0.3166 -0.3515
 5256TIP3   OH237402   4.189   1.495   0.786  0.3240  0.4385  0.2900
 5256TIP3    H137403   4.137   1.422   0.753  0.1736  0.3872  0.6359
 5256TIP3    H237404   4.125   1.555   0.823  0.3859  1.0646 -0.5798
 5257TIP3   OH237405   2.004   4.149   7.560 -0.5445  0.1923 -0.0581
 5257TIP3    H137406   1.908   4.152   7.562 -0.5810 -0.7857  0.0866
 5257TIP3    H237407   2.028   4.203   7.485 -1.3161 -1.3766 -1.4943
 5258TIP3   OH237408   1.593   5.823   8.100 -0.5696 -0.2975 -0.1532
 5258TIP3    H137409   1.627   5.823   8.190 -0.6051  0.2936 -0.1319
 5258TIP3    H237410   1.668   5.798   8.046 -0.9151 -2.1154  0.1543
 5259TIP3   OH237411   1.182   2.714   8.158  0.4485  0.6160 -0.1066
 5259TIP3    H137412   1.201   2.620   8.157 -0.6405  0.3576  0.7823
 5259TIP3    H237413   1.116   2.726   8.090  0.9120  0.8301 -0.5268
 5260TIP3   OH237414   4.363   2.886   8.390  0.1141 -0.7804 -0.2435
 5260TIP3    H137415   4.427   2.865   8.322  0.0899 -2.6079  0.2588
 5260TIP3    H237416   4.280   2.893   8.343  0.1478 -1.7296 -0.4544
 5261TIP3   OH237417   6.720   2.106   1.533  0.1367 -0.2603 -0.1566
 5261TIP3    H137418   6.635   2.142   1.557  0.5230  0.9763 -0.6000
 5261TIP3    H237419   6.721   2.019   1.574 -1.3134 -0.2842 -0.1263
 5262TIP3   OH237420   1.644   3.395   2.294  0.0468 -0.1984  0.6161
 5262TIP3    H137421   1.663   3.455   2.366 -1.3553  0.4441  0.5032
 5262TIP3    H237422   1.548   3.387   2.296  0.0102 -0.3749 -1.0054
 5263TIP3   OH237423   1.641   2.630   8.373  0.4514 -0.0869 -0.1839
 5263TIP3    H137424   1.711   2.695   8.370 -0.6012  1.0719 -1.2243
 5263TIP3    H237425   1.614   2.620   8.281 -1.7654  0.7312  0.3100
 5264TIP3   OH237426   3.835   4.808   8.194  0.7818 -0.2156  0.0224
 5264TIP3    H137427   3.917   4.821   8.146  0.0836 -2.3883 -1.9551
 5264TIP3    H237428   3.861   4.756   8.271  1.3451 -0.4429 -0.3154
 5265TIP3   OH237429   4.334   2.478   2.286  0.2660 -0.3640  0.0138
 5265TIP3    H137430   4.265   2.460   2.222 -1.1338 -0.1648  1.4079
 5265TIP3    H237431   4.415   2.455   2.240 -0.6757 -0.2907 -1.7928
 5266TIP3   OH237432   3.915   2.880   8.194 -0.3485  0.0381  0.1909
 5266TIP3    H137433   3.821   2.864   8.203 -0.5084  0.9395  0.2241
 5266TIP3    H237434   3.956   2.804   8.235 -1.0398 -1.1930 -1.2980
 5267TIP3   OH237435   5.561   4.181   1.150 -0.4069 -0.2957  0.4804
 5267TIP3    H137436   5.531   4.126   1.077 -1.2261  1.8187 -0.8816
 5267TIP3    H237437   5.651   4.204   1.128 -0.6760  0.3979  0.0528
 5268TIP3   OH237438   4.198   1.622   1.202 -0.0358  0.1364  0.0554
 5268TIP3    H137439   4.267   1.681   1.232 -0.0962  0.5367 -0.5851
 5268TIP3    H237440   4.238   1.535   1.205 -0.2114  0.0772  1.8391
 5269TIP3   OH237441   3.711   0.570   8.224  0.5706  0.1079  0.7150
 5269TIP3    H137442   3.773   0.565   8.152 -1.5154  2.3144 -1.4233
 5269TIP3    H237443   3.625   0.571   8.182 -0.8856 -1.0677  3.4283
 5270TIP3   OH237444   4.294   5.471   1.121  0.0900  0.6732 -0.3857
 5270TIP3    H137445   4.246   5.503   1.197 -0.9653  0.0148 -0.7574
 5270TIP3    H237446   4.357   5.408   1.157  0.5465  1.3809  0.0809
 5271TIP3   OH237447   2.447   4.357   2.121  0.0544 -0.7037 -0.0830
 5271TIP3    H137448   2.360   4.396   2.108 -0.7440 -1.5991  2.1883
 5271TIP3    H237449   2.506   4.432   2.126 -0.3714 -0.1015 -2.5864
 5272TIP3   OH237450   4.917   5.568   2.697 -0.3681 -0.2570  0.3750
 5272TIP3    H137451   4.893   5.477   2.680 -1.0585 -0.0941  0.4384
 5272TIP3    H237452   4.833   5.613   2.710 -0.1387  0.6939 -1.1653
 5273TIP3   OH237453   1.440   6.607   2.508 -0.8285  0.2879  0.4375
 5273TIP3    H137454   1.390   6.631   2.430 -1.9322 -1.1253  0.6799
 5273TIP3    H237455   1.399   6.656   2.579 -0.0279  1.3262  0.2038
 5274TIP3   OH237456   3.562   5.213   7.224  0.2679  0.5521  0.1684
 5274TIP3    H137457   3.567   5.143   7.289  0.1552 -0.8024 -1.2049
 5274TIP3    H237458   3.636   5.270   7.243 -0.5321  0.9693  2.2880
 5275TIP3   OH237459   2.912   3.553   0.352 -0.1265 -0.4008 -0.3994
 5275TIP3    H137460   2.953   3.469   0.330  0.6811 -0.2873  0.6067
 5275TIP3    H237461   2.922   3.606   0.273  0.9659 -0.6499 -0.4378
 5276TIP3   OH237462   6.854   1.540   0.438 -0.4068  0.0018  0.4556
 5276TIP3    H137463   6.903   1.607   0.391 -0.4135 -0.2772  0.0503
 5276TIP3    H237464   6.904   1.460   0.425 -0.3418 -0.0586  1.0283
 5277TIP3   OH237465   5.069   0.228   6.765 -0.6092 -0.2934 -0.5255
 5277TIP3    H137466   5.139   0.164   6.751  0.6546  0.8746  0.0721
 5277TIP3    H237467   5.090   0.300   6.705 -0.9544  0.3131  0.0594
 5278TIP3   OH237468   4.114   4.811   6.799 -0.1504 -0.2496  0.0362
 5278TIP3    H137469   4.052   4.759   6.850 -0.5769  1.3798  1.2245
 5278TIP3    H237470   4.200   4.781   6.829 -0.3945 -0.1959  0.8177
 5279TIP3   OH237471   0.482   2.850   2.343  0.3530 -0.1573 -0.2536
 5279TIP3    H137472   0.544   2.777   2.340  1.3999  0.7099 -0.2580
 5279TIP3    H237473   0.478   2.876   2.435  0.5744  0.2614 -0.3583
 5280TIP3   OH237474   3.307   4.236   7.773 -0.3196 -0.1368  0.8582
 5280TIP3    H137475   3.308   4.328   7.749 -0.0135 -0.0549  1.1725
 5280TIP3    H237476   3.269   4.191   7.697  0.2976  0.1546  0.3762
 5281TIP3   OH237477   4.285   2.416   8.303 -0.5016 -0.2302 -0.0223
 5281TIP3    H137478   4.320   2.442   8.217 -1.3418  2.3063  0.3239
 5281TIP3    H237479   4.249   2.497   8.340 -0.5487 -1.3418  2.5666
 5282TIP3   OH237480   5.700   5.760   1.454 -0.9000 -0.4448 -0.0884
 5282TIP3    H137481   5.761   5.830   1.476 -0.2702 -0.5949 -1.2650
 5282TIP3    H237482   5.747   5.706   1.391 -1.8764 -1.1540 -0.2341
 5283TIP3   OH237483   5.559   1.984   1.333  1.1946  0.3635 -0.1607
 5283TIP3    H137484   5.466   1.990   1.351  1.4142  1.9120  0.6735
 5283TIP3    H237485   5.598   2.057   1.381  2.8672 -0.3542 -0.3178
 5284TIP3   OH237486   0.587   4.577   0.183 -0.7272  0.1702  0.2856
 5284TIP3    H137487   0.658   4.556   0.242  0.0942 -0.0644 -0.7568
 5284TIP3    H237488   0.590   4.509   0.116 -2.6210 -0.4741  0.7819
 5285TIP3   OH237489   0.838   0.314   1.161  0.2009 -0.1178 -0.2288
 5285TIP3    H137490   0.751   0.349   1.144 -0.4726 -0.1144  2.6887
 5285TIP3    H237491   0.822   0.223   1.188  1.3640 -0.8533 -1.8392
 5286TIP3   OH237492   1.584   0.655   1.663 -0.3958  0.3447 -0.1170
 5286TIP3    H137493   1.493   0.683   1.675 -1.3596 -2.8989  1.1670
 5286TIP3    H237494   1.632   0.700   1.734 -1.1823  1.2541 -0.1448
 5287TIP3   OH237495   0.674   4.684   2.007  0.0919 -1.0635 -0.3937
 5287TIP3    H137496   0.628   4.751   2.057  2.0956 -0.2943  0.5129
 5287TIP3    H237497   0.691   4.725   1.922  2.4676  0.2027  0.5846
 5288TIP3   OH237498   2.544   1.324   1.692 -0.0866  0.0335  0.0339
 5288TIP3    H137499   2.612   1.386   1.720 -1.3124  1.0616  0.8431
 5288TIP3    H237500   2.585   1.275   1.620  1.8858 -0.1622  1.2125
 5289TIP3   OH237501   4.477   5.771   8.261  0.1278  0.0923  0.2050
 5289TIP3    H137502   4.542   5.712   8.300  0.3036  0.3246  0.2691
 5289TIP3    H237503   4.530   5.838   8.217 -0.0133 -1.2422 -2.1881
 5290TIP3   OH237504   2.389   6.760   2.394 -0.1832  0.4312  0.1613
 5290TIP3    H137505   2.308   6.800   2.365  0.8692  3.8744  1.4752
 5290TIP3    H237506   2.421   6.711   2.318 -0.9226  3.3496 -2.2108
 5291TIP3   OH237507   4.268   1.541   7.887 -0.7056  0.4124  0.0309
 5291TIP3    H137508   4.343   1.572   7.836 -1.0881  2.7078  0.7381
 5291TIP3    H237509   4.196   1.600   7.862 -1.3862  0.3732  1.7806
 5292TIP3   OH237510   3.885   2.655   7.168 -0.1127 -0.2315  0.3413
 5292TIP3    H137511   3.977   2.680   7.163 -0.1198 -0.3841 -1.1948
 5292TIP3    H237512   3.884   2.563   7.141 -0.6649 -0.3575  0.7744
 5293TIP3   OH237513   3.521   3.529   7.755 -0.5890 -0.0135 -0.0803
 5293TIP3    H137514   3.560   3.446   7.782  0.2347  0.1179 -0.8211
 5293TIP3    H237515   3.488   3.513   7.666  0.7827  0.8070 -0.7665
 5294TIP3   OH237516   0.376   3.793   0.922  0.3541 -0.6358  0.6045
 5294TIP3    H137517   0.333   3.841   0.993 -0.0598 -0.7494  0.4296
 5294TIP3    H237518   0.305   3.750   0.875  0.4585  0.6714 -0.8201
 5295TIP3   OH237519   2.061   2.853   1.790 -0.6316  0.0327  0.0997
 5295TIP3    H137520   1.973   2.870   1.758 -1.5128 -2.7463  0.8538
 5295TIP3    H237521   2.057   2.870   1.884  0.5046  2.7700 -0.2502
 5296TIP3   OH237522   3.116   2.831   1.076 -0.2303 -1.1122  0.4074
 5296TIP3    H137523   3.156   2.744   1.074  0.2441 -0.9752  2.2845
 5296TIP3    H237524   3.055   2.831   1.002  0.6324 -2.5970 -0.3561
 5297TIP3   OH237525   3.119   6.208   1.048  0.0152 -0.1147 -0.0181
 5297TIP3    H137526   3.069   6.152   0.988 -1.6450 -0.1396  1.3099
 5297TIP3    H237527   3.111   6.164   1.133 -0.1794  1.4022  0.7880
 5298TIP3   OH237528   0.853   5.531   0.365  0.1784  0.4308 -0.2473
 5298TIP3    H137529   0.897   5.500   0.444  0.4533  1.6475  0.1067
 5298TIP3    H237530   0.773   5.479   0.360 -0.2920  0.9350  1.3459
 5299TIP3   OH237531   5.486   0.007   0.996 -0.4384 -0.5668  0.2409
 5299TIP3    H137532   5.545  -0.053   1.043 -0.0673 -0.4375 -0.0525
 5299TIP3    H237533   5.492  -0.022   0.905 -1.1938 -0.8505  0.2767
 5300TIP3   OH237534   6.628   4.598   1.166 -0.1744  0.4442 -0.4780
 5300TIP3    H137535   6.561   4.653   1.206  0.7841  0.8569  0.5905
 5300TIP3    H237536   6.633   4.630   1.075 -0.4027  1.3722 -0.1747
 5301TIP3   OH237537   3.993   6.621   7.479  0.2315 -0.0795  0.1683
 5301TIP3    H137538   3.913   6.664   7.449  0.0141 -1.4515 -1.3666
 5301TIP3    H237539   4.046   6.611   7.400  0.3319 -2.4182  0.4536
 5302TIP3   OH237540   3.523   2.327   2.428  0.1790 -0.2657  0.7831
 5302TIP3    H137541   3.478   2.366   2.353 -0.7225 -0.5972  1.1401
 5302TIP3    H237542   3.472   2.249   2.449 -0.0104  0.2092  2.1968
 5303TIP3   OH237543   0.967   0.822   8.160  0.5739 -0.5781  0.1400
 5303TIP3    H137544   0.887   0.867   8.136  0.5234  0.9944  2.8475
 5303TIP3    H237545   0.960   0.736   8.118 -2.2416 -0.2654 -0.2075
 5304TIP3   OH237546   3.635   1.379   6.442 -0.2788 -0.2389 -0.1233
 5304TIP3    H137547   3.574   1.451   6.426 -0.6602 -0.6697 -0.6275
 5304TIP3    H237548   3.713   1.421   6.476 -1.9725  0.1506  3.9407
 5305TIP3   OH237549   6.495   6.476   7.300  0.2888 -0.3132  0.4811
 5305TIP3    H137550   6.495   6.381   7.292  1.2425 -0.1748 -1.9193
 5305TIP3    H237551   6.499   6.508   7.210  2.6509  1.9464  1.2583
 5306TIP3   OH237552   6.286   0.085   0.062  0.7492 -0.4121  0.3807
 5306TIP3    H137553   6.226   0.143   0.015  0.3986 -1.1779 -0.1457
 5306TIP3    H237554   6.371   0.098   0.018  0.8283  0.1893  0.7019
 5307TIP3   OH237555   5.836   3.792   1.216  0.2635 -0.3291 -0.0809
 5307TIP3    H137556   5.777   3.775   1.142 -0.3416  0.7014  0.1412
 5307TIP3    H237557   5.777   3.796   1.292  0.2342  2.9466 -0.1337
 5308TIP3   OH237558   4.402   5.301   0.203 -0.6792 -0.1665 -0.9847
 5308TIP3    H137559   4.415   5.347   0.286 -0.1642  0.5014 -1.4308
 5308TIP3    H237560   4.399   5.370   0.138  1.3068 -0.8265 -1.8270
 5309TIP3   OH237561   1.013   5.084   0.239 -0.2349  0.6808 -0.9288
 5309TIP3    H137562   1.009   5.179   0.233  0.0791  0.6501 -1.8215
 5309TIP3    H237563   0.993   5.064   0.331 -2.0732  1.4973 -1.1073
 5310TIP3   OH237564   6.140   3.421   6.951  0.1314 -0.5508 -0.5501
 5310TIP3    H137565   6.086   3.438   6.874 -0.3099  0.2669 -0.0726
 5310TIP3    H237566   6.218   3.476   6.939  0.2909 -0.7991 -0.6513
 5311TIP3   OH237567   0.703   3.538   8.447 -0.1601  0.4867  0.2709
 5311TIP3    H137568   0.611   3.514   8.458 -0.5294  2.0357  0.8783
 5311TIP3    H237569   0.701   3.611   8.385  0.7014  0.2467 -0.0440
 5312TIP3   OH237570   6.525   0.409   8.380  0.2573  0.0266  0.1864
 5312TIP3    H137571   6.462   0.350   8.339 -2.4156  0.5827  3.0881
 5312TIP3    H237572   6.515   0.491   8.333 -0.6453 -0.1160  0.1175
 5313TIP3   OH237573   2.060   4.122   0.291  0.6154 -0.2037 -0.1891
 5313TIP3    H137574   2.113   4.129   0.212  0.1577 -1.5920 -0.6485
 5313TIP3    H237575   2.063   4.210   0.329  1.6082  0.2543 -1.2380
 5314TIP3   OH237576   4.578   1.926   8.397  0.1603  0.5192 -0.2451
 5314TIP3    H137577   4.512   1.892   8.457 -1.2734  1.5646 -1.1441
 5314TIP3    H237578   4.622   1.995   8.447 -0.9016  1.2629 -0.2975
 5315TIP3   OH237579   2.284   1.593   0.455 -0.5844  0.1098  0.0566
 5315TIP3    H137580   2.365   1.578   0.503  0.7778  2.3636 -1.3499
 5315TIP3    H237581   2.261   1.684   0.474 -1.2159  0.3698 -1.7090
 5316TIP3   OH237582   1.582   1.464   0.715 -0.1594  0.5322  0.4143
 5316TIP3    H137583   1.519   1.480   0.644 -0.7277 -1.3094  0.4504
 5316TIP3    H237584   1.651   1.413   0.674  1.0720  2.0354  0.5223
 5317TIP3   OH237585   2.391   5.443   8.517  0.5081  0.2832 -0.2500
 5317TIP3    H137586   2.457   5.473   8.454  1.5806  0.4078  0.8796
 5317TIP3    H237587   2.430   5.463   8.603 -0.8633  0.0408  0.4572
 5318TIP3   OH237588   6.497   1.318   1.114  0.0593 -0.5105 -0.5854
 5318TIP3    H137589   6.411   1.276   1.120 -0.6811  0.8298 -1.4253
 5318TIP3    H237590   6.543   1.268   1.047  1.2341 -3.3167  2.0612
 5319TIP3   OH237591   3.096   3.767   0.567  0.1105  0.2594 -0.6530
 5319TIP3    H137592   3.058   3.780   0.653 -0.9815 -1.5278 -0.8181
 5319TIP3    H237593   3.089   3.853   0.524 -1.0723  0.6889  0.3521
 5320TIP3   OH237594   0.564   2.811   2.718 -0.2105  0.3212  0.6862
 5320TIP3    H137595   0.613   2.788   2.639 -2.7951 -1.6653 -0.4802
 5320TIP3    H237596   0.502   2.878   2.689 -0.1909  0.6784  1.4401
 5321TIP3   OH237597   5.749   0.901   1.512  0.4504  0.1363 -0.1348
 5321TIP3    H137598   5.829   0.941   1.477  0.3328 -0.5888 -1.3179
 5321TIP3    H237599   5.769   0.807   1.512 -0.2507 -0.0132 -0.0568
 5322TIP3   OH237600   5.498   3.183   8.594 -0.3149  0.5668 -0.0381
 5322TIP3    H137601   5.441   3.243   8.545 -1.1385 -0.5379 -0.4683
 5322TIP3    H237602   5.466   3.188   8.684 -0.7289  0.3639 -0.1741
 5323TIP3   OH237603   6.228   0.469   0.936  0.1206 -0.0849 -0.0410
 5323TIP3    H137604   6.302   0.443   0.882  0.9130  2.0503 -0.0932
 5323TIP3    H237605   6.170   0.516   0.876  0.2065  0.8657  0.5966
 5324TIP3   OH237606   6.197   4.687   7.821 -0.0083  1.1416 -0.3176
 5324TIP3    H137607   6.139   4.693   7.745 -0.2423  1.2469 -0.1335
 5324TIP3    H237608   6.281   4.720   7.790 -0.2356  1.6614 -0.3933
 5325TIP3   OH237609   2.240   4.041   8.255 -0.2044  0.2334 -0.2112
 5325TIP3    H137610   2.309   3.974   8.256 -1.9516 -1.6902  0.5103
 5325TIP3    H237611   2.174   4.005   8.195  0.3234  3.0993 -2.7300
 5326TIP3   OH237612   4.357   5.468   8.069 -0.9617 -0.2490 -0.0437
 5326TIP3    H137613   4.309   5.501   8.144 -0.1907  0.6349  0.0805
 5326TIP3    H237614   4.442   5.442   8.105 -0.4606  0.5024 -0.6450
 5327TIP3   OH237615   2.019   6.823   1.700 -0.2852 -0.2342 -0.4953
 5327TIP3    H137616   1.993   6.893   1.640  0.6991 -1.0906 -1.9834
 5327TIP3    H237617   2.072   6.868   1.766 -2.9000  1.0265  0.8864
 5328TIP3   OH237618   4.632   3.700   7.359  0.0384  0.4984  0.2454
 5328TIP3    H137619   4.611   3.610   7.332 -0.7572  0.6280  0.4094
 5328TIP3    H237620   4.638   3.748   7.276  0.2465  0.3402  0.1679
 5329TIP3   OH237621   5.531   4.197   0.727 -0.4086  0.0638 -0.2208
 5329TIP3    H137622   5.605   4.228   0.675 -0.0044  3.8563  2.1606
 5329TIP3    H237623   5.457   4.251   0.699 -1.4228 -1.2344 -0.1511
 5330TIP3   OH237624   2.423   4.856   7.526  0.0183  0.2893 -0.5507
 5330TIP3    H137625   2.395   4.875   7.436 -0.2402 -1.3609 -0.8545
 5330TIP3    H237626   2.518   4.855   7.522 -0.0000 -0.2480 -0.9199
 5331TIP3   OH237627   5.566   5.742   6.627  0.1293  0.4185  0.2221
 5331TIP3    H137628   5.617   5.687   6.568  1.8775  0.4099  1.6612
 5331TIP3    H237629   5.516   5.681   6.681 -1.1879  0.4177 -0.9443
 5332TIP3   OH237630   3.615   4.426   0.086  0.1043  0.0180  0.0556
 5332TIP3    H137631   3.660   4.484   0.147 -0.6993  0.4216  0.2854
 5332TIP3    H237632   3.572   4.361   0.142  1.3478 -1.0915 -0.2160
 5333TIP3   OH237633   3.307   4.627   8.005 -0.0222  0.6378  0.2807
 5333TIP3    H137634   3.305   4.563   7.933 -1.3993 -0.3921  1.1850
 5333TIP3    H237635   3.397   4.623   8.038  0.4572  0.6629 -0.9617
 5334TIP3   OH237636   1.862   0.761   8.538 -0.4408 -0.0634  0.1423
 5334TIP3    H137637   1.896   0.673   8.523  0.0773  0.4074 -1.6931
 5334TIP3    H237638   1.929   0.819   8.500 -1.7821  1.0224 -0.6449
 5335TIP3   OH237639   5.226   6.200   7.926 -0.0499  0.2841 -0.0569
 5335TIP3    H137640   5.199   6.111   7.945 -1.3226  0.8990  1.2567
 5335TIP3    H237641   5.289   6.222   7.994  2.7867 -0.6185 -2.2228
 5336TIP3   OH237642   2.966   3.095   1.287 -0.2331  0.0293 -0.2185
 5336TIP3    H137643   3.028   3.063   1.221 -1.6766 -0.8013 -1.2305
 5336TIP3    H237644   3.021   3.129   1.358  1.3594 -0.3652 -1.2207
 5337TIP3   OH237645   3.363   2.420   1.156  0.1001 -0.1943  0.3364
 5337TIP3    H137646   3.390   2.500   1.202 -1.7549 -0.0274  1.2345
 5337TIP3    H237647   3.443   2.369   1.147  1.1574  1.3529  0.5662
 5338TIP3   OH237648   0.829   1.979   2.871  0.2038 -0.4123  0.2236
 5338TIP3    H137649   0.914   1.996   2.829  0.3048  2.4872  1.3553
 5338TIP3    H237650   0.782   1.923   2.809  3.3530 -3.2586  0.1400
 5339TIP3   OH237651   4.039   1.211   1.253 -0.8818  0.4174  0.0794
 5339TIP3    H137652   4.041   1.253   1.340 -1.7810 -2.0035  1.3606
 5339TIP3    H237653   4.128   1.224   1.219 -0.9361  2.7430  0.6383
 5340TIP3   OH237654   4.531   0.470   1.212 -0.2777 -0.4264  0.2577
 5340TIP3    H137655   4.536   0.452   1.306 -0.9589 -2.0093  0.0287
 5340TIP3    H237656   4.612   0.518   1.192  0.7976 -1.7241  1.3167
 5341TIP3   OH237657   2.593   4.555   0.582 -0.2519 -0.0535 -0.1528
 5341TIP3    H137658   2.644   4.623   0.626 -0.3987 -0.3668  0.5097
 5341TIP3    H237659   2.633   4.548   0.495 -0.5097  1.1812 -0.3901
 5342TIP3   OH237660   3.891   4.580   1.919 -0.6670 -0.2043 -0.6275
 5342TIP3    H137661   3.796   4.572   1.904 -0.6206 -0.0479 -1.0060
 5342TIP3    H237662   3.928   4.590   1.832 -0.5728  2.4965 -0.3643
 5343TIP3   OH237663   6.563   4.691   1.695  0.4116 -0.5089  0.4903
 5343TIP3    H137664   6.639   4.716   1.642  0.7461 -0.0362  1.1802
 5343TIP3    H237665   6.593   4.698   1.785 -0.1520 -1.3035  0.7569
 5344TIP3   OH237666   3.679   3.368   7.072 -0.3068  0.2767  0.0633
 5344TIP3    H137667   3.684   3.278   7.105 -2.0574  0.5435  1.2092
 5344TIP3    H237668   3.752   3.413   7.114  1.3690 -0.8422 -1.4988
 5345TIP3   OH237669   2.858   1.454   3.097 -1.0499  0.2992  0.1831
 5345TIP3    H137670   2.882   1.372   3.054 -0.4158  1.0283 -0.9192
 5345TIP3    H237671   2.906   1.452   3.180  0.2308  0.2411 -0.5309
 5346TIP3   OH237672   3.891   3.134   0.798 -0.0112  0.5643  0.1218
 5346TIP3    H137673   3.960   3.192   0.764 -0.3807 -0.2271 -2.1385
 5346TIP3    H237674   3.809   3.174   0.769 -0.3067 -0.6146 -0.7086
 5347TIP3   OH237675   2.335   0.025   1.531  0.0556  0.1781  0.2434
 5347TIP3    H137676   2.298   0.070   1.454  1.4322 -0.8174 -1.0482
 5347TIP3    H237677   2.278   0.053   1.603 -1.6488  0.7130 -1.2044
 5348TIP3   OH237678   0.633   3.404   2.170  0.0964 -0.0462  0.2853
 5348TIP3    H137679   0.717   3.448   2.187 -0.1560 -0.2093  2.2434
 5348TIP3    H237680   0.568   3.475   2.171  0.1505  0.0270 -0.7921
 5349TIP3   OH237681   1.765   2.565   1.103 -0.2825  0.1806  0.0009
 5349TIP3    H137682   1.680   2.522   1.096  0.7705 -2.0305 -0.1842
 5349TIP3    H237683   1.749   2.642   1.157 -2.4698  0.0893 -0.4237
 5350TIP3   OH237684   5.871   3.525   7.782 -0.3984 -0.1386 -0.7363
 5350TIP3    H137685   5.861   3.438   7.742 -0.7849 -1.7385  2.5042
 5350TIP3    H237686   5.965   3.534   7.796 -0.4777 -0.7708  0.3045
 5351TIP3   OH237687   3.026   0.841   1.091 -0.1812 -0.2955  0.1816
 5351TIP3    H137688   3.031   0.905   1.020  0.4608 -0.8170 -0.2628
 5351TIP3    H237689   3.098   0.781   1.074  2.2125  1.4486  3.2093
 5352TIP3   OH237690   0.827   4.995   2.679 -0.5244 -0.0865 -0.2850
 5352TIP3    H137691   0.887   4.928   2.712  2.1193  0.7294 -2.9909
 5352TIP3    H237692   0.859   5.015   2.591 -3.9649  1.5065 -1.3673
 5353TIP3   OH237693   0.479   6.248   2.614  0.6797  0.7284  0.0976
 5353TIP3    H137694   0.555   6.287   2.657  0.2284 -0.1605  1.8239
 5353TIP3    H237695   0.514   6.180   2.558  1.1459 -0.9838  2.3157
 5354TIP3   OH237696   5.035   1.578   0.838  0.7909  0.3040  0.7104
 5354TIP3    H137697   4.964   1.555   0.897  0.3491  1.6505  0.7142
 5354TIP3    H237698   5.110   1.527   0.871 -0.1967 -1.3615  0.5204
 5355TIP3   OH237699   3.392   4.411   1.959  0.4392 -0.0209 -0.1944
 5355TIP3    H137700   3.384   4.397   2.054 -3.1321 -1.9389 -0.6502
 5355TIP3    H237701   3.320   4.470   1.937  1.2181  0.3983 -1.7789
 5356TIP3   OH237702   5.733   3.978   2.689  0.3622  0.6139 -0.6144
 5356TIP3    H137703   5.656   4.034   2.687 -0.4432 -0.4792 -1.5953
 5356TIP3    H237704   5.730   3.936   2.775  0.9354  1.9504  0.1055
 5357TIP3   OH237705   6.689   3.804   2.488  0.7278 -0.5021 -1.1083
 5357TIP3    H137706   6.764   3.745   2.475 -0.1915 -1.9497 -0.0894
 5357TIP3    H237707   6.623   3.750   2.531  0.2310  1.5409  0.8772
 5358TIP3   OH237708   5.835   3.046   1.000  0.2728  0.5375  0.2274
 5358TIP3    H137709   5.777   3.041   1.076  1.0791  0.8400  0.8732
 5358TIP3    H237710   5.903   3.108   1.025  0.9235  0.1323 -0.4782
 5359TIP3   OH237711   3.206   4.561   8.304 -0.5672 -0.6261  0.3427
 5359TIP3    H137712   3.145   4.629   8.275 -1.0142 -0.7682  0.9318
 5359TIP3    H237713   3.269   4.608   8.360 -1.0361 -0.7275  0.9744
 5360TIP3   OH237714   3.252   0.316   0.642 -0.5009 -0.5586  0.3339
 5360TIP3    H137715   3.232   0.235   0.689  1.2900  0.2192  2.6031
 5360TIP3    H237716   3.217   0.386   0.697  1.8124  0.3997  0.6799
 5361TIP3   OH237717   6.063   0.221   7.640  0.0417 -0.4616  0.8167
 5361TIP3    H137718   6.116   0.179   7.707 -0.5118  0.3458  1.7992
 5361TIP3    H237719   5.976   0.228   7.679  0.2728  2.2929  1.1036
 5362TIP3   OH237720   1.983   3.445   0.635  0.7887 -0.1701  0.5698
 5362TIP3    H137721   1.994   3.382   0.564 -1.1628  1.1351 -0.9936
 5362TIP3    H237722   1.889   3.450   0.648  0.8243  2.7827  0.2476
 5363TIP3   OH237723   6.799   1.805   8.499 -0.0302 -0.4485  0.4399
 5363TIP3    H137724   6.767   1.841   8.582  0.7386 -0.4938  0.7604
 5363TIP3    H237725   6.893   1.820   8.500 -0.1249  0.4382 -0.8768
 5364TIP3   OH237726   6.495   2.679   1.335  0.6570  0.0869  0.5808
 5364TIP3    H137727   6.498   2.592   1.376  1.4509  0.0308  0.4226
 5364TIP3    H237728   6.417   2.720   1.372 -0.1203 -0.9435  0.1530
 5365TIP3   OH237729   6.530   0.316   1.124  0.7056 -0.2443 -0.6834
 5365TIP3    H137730   6.571   0.381   1.068  2.4707 -1.5307 -0.9559
 5365TIP3    H237731   6.492   0.253   1.063 -1.3705  0.6752 -0.4276
 5366TIP3   OH237732   5.752   0.312   0.258 -0.2971 -0.4884 -0.5474
 5366TIP3    H137733   5.664   0.275   0.265 -1.2022  1.4984 -0.5487
 5366TIP3    H237734   5.794   0.289   0.341 -1.6341  0.3988  0.4331
 5367TIP3   OH237735   3.136   2.621   7.056 -0.4397 -0.0924 -0.2446
 5367TIP3    H137736   3.229   2.603   7.042  0.0124  0.6831  1.5152
 5367TIP3    H237737   3.134   2.709   7.093 -1.9295  0.1141 -0.7612
 5368TIP3   OH237738   3.593   1.551   1.642  0.3152  0.0313 -0.1320
 5368TIP3    H137739   3.600   1.646   1.629  0.9160  0.2464  1.5373
 5368TIP3    H237740   3.509   1.528   1.603  0.3750  1.1585 -0.9959
 5369TIP3   OH237741   1.949   1.422   7.958 -0.5708 -0.1279  0.2173
 5369TIP3    H137742   1.943   1.343   8.012 -0.0893 -0.9504 -0.8983
 5369TIP3    H237743   2.043   1.440   7.954 -0.2216 -1.8995 -2.8199
 5370TIP3   OH237744   2.729   5.144   2.186  0.0404  0.2100 -1.0097
 5370TIP3    H137745   2.720   5.058   2.145  0.2638 -0.0185 -0.5846
 5370TIP3    H237746   2.740   5.205   2.113  1.4052 -0.3155 -1.2704
 5371TIP3   OH237747   5.872   4.511   0.891 -0.2253 -0.3230  0.3803
 5371TIP3    H137748   5.800   4.486   0.834  0.1990  1.0529 -0.8282
 5371TIP3    H237749   5.901   4.596   0.857  2.0008 -0.8498  0.7946
 5372TIP3   OH237750   3.761   1.505   8.294  0.6456  0.1194  0.7557
 5372TIP3    H137751   3.781   1.595   8.266  0.7847  0.5943  2.3103
 5372TIP3    H237752   3.845   1.459   8.286  0.9740  0.5689  1.5690
 5373TIP3   OH237753   3.840   6.878   2.881 -0.0367 -0.7230 -0.3471
 5373TIP3    H137754   3.861   6.807   2.942 -0.1145 -0.3638  0.1009
 5373TIP3    H237755   3.924   6.919   2.863 -0.3277  1.1414  1.9695
 5374TIP3   OH237756   0.051   5.430   8.186  0.1267  0.7822  0.3903
 5374TIP3    H137757   0.044   5.510   8.238  0.2680  0.3565  1.0815
 5374TIP3    H237758   0.136   5.393   8.209 -0.1823  0.1363  0.5144
 5375TIP3   OH237759   0.373   5.710   8.280 -0.1911 -0.3231  0.5429
 5375TIP3    H137760   0.383   5.692   8.373 -1.7103  0.9167  0.9967
 5375TIP3    H237761   0.306   5.778   8.276 -0.5826 -0.7589 -1.4997
 5376TIP3   OH237762   3.975   4.555   1.629 -0.4252  0.3049 -0.1364
 5376TIP3    H137763   4.061   4.535   1.594 -0.5669 -0.5909 -0.0138
 5376TIP3    H237764   3.940   4.624   1.573  0.4889  0.8936  0.0042
 5377TIP3   OH237765   4.552   6.598   0.480  0.5504  0.6858 -0.1751
 5377TIP3    H137766   4.560   6.658   0.406  0.8086  1.2698  0.3077
 5377TIP3    H237767   4.633   6.547   0.480  1.3982  1.9463  0.7536
 5378TIP3   OH237768   5.653   2.666   8.091  0.1417 -0.6174 -0.5209
 5378TIP3    H137769   5.590   2.707   8.151 -0.9362 -1.9585 -0.6743
 5378TIP3    H237770   5.732   2.719   8.098 -0.1896 -0.3227  1.5600
 5379TIP3   OH237771   5.457   0.284   1.072 -0.0632  0.2896 -0.6805
 5379TIP3    H137772   5.473   0.209   1.015  0.8296  0.5922 -0.8406
 5379TIP3    H237773   5.362   0.292   1.074 -0.2185 -1.2540 -0.1270
 5380TIP3   OH237774   5.641   5.713   1.717 -0.9273  0.0451 -0.2005
 5380TIP3    H137775   5.628   5.698   1.624 -0.8061 -0.9050 -0.0796
 5380TIP3    H237776   5.727   5.756   1.723 -2.0405  2.4812 -0.6867
 5381TIP3   OH237777   3.512   6.619   7.499  0.3789 -0.4937 -0.6199
 5381TIP3    H137778   3.422   6.649   7.487  1.1586  2.0975 -0.6451
 5381TIP3    H237779   3.522   6.609   7.593  0.3658  0.3563 -0.5193
 5382TIP3   OH237780   1.845   5.169   0.532  0.2242  0.0585  0.0948
 5382TIP3    H137781   1.819   5.104   0.467  0.6001  0.4781 -0.4816
 5382TIP3    H237782   1.929   5.138   0.566 -1.0703 -1.4566  2.1749
 5383TIP3   OH237783   4.278   4.726   1.234  0.3534  0.1272  0.0772
 5383TIP3    H137784   4.279   4.720   1.138 -0.3444  0.1820  0.0611
 5383TIP3    H237785   4.370   4.736   1.258  0.4566  1.1925 -0.6690
 5384TIP3   OH237786   6.275   4.351   1.702 -0.1344 -0.0320  0.7778
 5384TIP3    H137787   6.351   4.357   1.644  1.1267 -0.2257  2.3566
 5384TIP3    H237788   6.222   4.281   1.664  0.0715  0.6149 -0.7817
 5385TIP3   OH237789   5.750   4.593   8.331  0.3093 -0.4787  0.7926
 5385TIP3    H137790   5.686   4.623   8.266  1.2480  0.5214  0.2853
 5385TIP3    H237791   5.768   4.671   8.384  1.7214 -0.4840  0.3728
 5386TIP3   OH237792   2.285   1.588   1.210  0.4811 -0.1227  0.2574
 5386TIP3    H137793   2.369   1.632   1.198  0.4144 -0.1990 -0.5814
 5386TIP3    H237794   2.306   1.509   1.259  0.7719  0.2734  0.7804
 5387TIP3   OH237795   3.185   2.223   7.252 -0.5573  0.3231 -0.0611
 5387TIP3    H137796   3.116   2.246   7.190  0.1685 -0.1102 -1.0444
 5387TIP3    H237797   3.197   2.302   7.305 -1.2112  0.6796 -0.4357
 5388TIP3   OH237798   1.346   6.239   0.009  0.6326  0.4537 -0.7150
 5388TIP3    H137799   1.434   6.219   0.042  0.3922 -0.3101 -0.5106
 5388TIP3    H237800   1.287   6.200   0.073  0.1259  1.6904 -0.4175
 5389TIP3   OH237801   3.608   2.720   7.517  0.5476 -0.0457 -0.4606
 5389TIP3    H137802   3.534   2.745   7.571  1.4907 -1.4033  1.5672
 5389TIP3    H237803   3.683   2.765   7.555  0.9122  0.8761 -2.1458
 5390TIP3   OH237804   3.146   2.803   8.378  0.6950  0.3200 -0.3411
 5390TIP3    H137805   3.112   2.888   8.405 -0.4695 -0.4354  0.7159
 5390TIP3    H237806   3.071   2.759   8.338  1.3202 -0.1707 -0.9976
 5391TIP3   OH237807   5.779   3.635   0.876 -0.1770  0.2994  0.3245
 5391TIP3    H137808   5.726   3.701   0.920  2.6923  1.3620  2.5451
 5391TIP3    H237809   5.822   3.682   0.805  2.9246  1.4701  2.7204
 5392TIP3   OH237810   0.540   3.546   1.729  0.2311  0.3002  0.0608
 5392TIP3    H137811   0.520   3.613   1.663  0.6124  0.6580  0.2969
 5392TIP3    H237812   0.456   3.506   1.749 -0.1374  1.2345  0.4709
 5393TIP3   OH237813   6.243   4.241   0.876  0.2817 -0.4219 -0.8542
 5393TIP3    H137814   6.266   4.169   0.934  1.4664  0.6801  0.1127
 5393TIP3    H237815   6.166   4.211   0.828 -0.4501 -1.5425  0.9571
 5394TIP3   OH237816   1.721   3.231   1.733 -0.3821  0.8333  0.5879
 5394TIP3    H137817   1.703   3.178   1.810  2.9875 -1.5704 -0.0544
 5394TIP3    H237818   1.817   3.231   1.726 -0.5119  1.6702 -3.1108
 5395TIP3   OH237819   4.997   2.497   0.292 -0.3033 -0.1378 -0.3072
 5395TIP3    H137820   5.034   2.441   0.360 -0.5797 -0.3451 -0.3281
 5395TIP3    H237821   4.986   2.582   0.334  1.5704  0.3497 -0.6967
 5396TIP3   OH237822   5.670   1.142   2.061 -0.3319  0.3650 -0.5557
 5396TIP3    H137823   5.668   1.051   2.090  2.5748 -0.6737 -3.1294
 5396TIP3    H237824   5.602   1.148   1.994 -2.2418  0.9000  1.3011
 5397TIP3   OH237825   0.638   4.663   8.036  0.1076 -0.6876 -0.7048
 5397TIP3    H137826   0.665   4.737   8.090 -1.2127 -1.1249  0.6080
 5397TIP3    H237827   0.702   4.595   8.055  0.7075 -0.2523 -1.1128
 5398TIP3   OH237828   1.526   3.944   7.271 -0.2873  0.3782  0.2028
 5398TIP3    H137829   1.480   3.873   7.316 -1.3276  1.5673  1.1163
 5398TIP3    H237830   1.492   3.943   7.182 -1.3763  0.5845  0.5933
 5399TIP3   OH237831   1.564   1.834   8.516  0.0434  0.4057 -0.1196
 5399TIP3    H137832   1.526   1.785   8.590 -2.3982  0.5375 -1.2036
 5399TIP3    H237833   1.627   1.893   8.557 -0.3395 -0.3802  1.7307
 5400TIP3   OH237834   0.672   2.764   7.956  0.8184 -0.0631 -0.3175
 5400TIP3    H137835   0.599   2.769   7.895  0.2104  0.2967  0.4259
 5400TIP3    H237836   0.697   2.672   7.956  0.2716 -0.2169 -0.4726
 5401TIP3   OH237837   0.716   0.820   0.934 -0.4934  0.0755 -0.4080
 5401TIP3    H137838   0.665   0.796   1.012  0.0553  0.4860  0.0885
 5401TIP3    H237839   0.696   0.752   0.870  1.2210 -1.8937  1.0226
 5402TIP3   OH237840   0.937   3.694   1.332  0.0667 -0.1811  0.7243
 5402TIP3    H137841   0.928   3.773   1.280  0.0618  0.3530  1.5242
 5402TIP3    H237842   0.847   3.669   1.354 -0.1163 -1.7731 -1.4879
 5403TIP3   OH237843   3.867   0.462   0.310 -0.4273 -0.0849 -0.2285
 5403TIP3    H137844   3.958   0.466   0.337 -0.4885 -0.4020  0.0294
 5403TIP3    H237845   3.861   0.524   0.237  0.5100 -1.7142 -1.7583
 5404TIP3   OH237846   1.932   5.761   1.348 -0.2986 -0.0276 -0.6351
 5404TIP3    H137847   2.015   5.795   1.314  0.0967  0.5118  0.7662
 5404TIP3    H237848   1.913   5.685   1.295 -0.0067  1.0714 -2.3853
 5405TIP3   OH237849   4.496   2.678   0.508  0.2447 -0.3310 -0.1078
 5405TIP3    H137850   4.413   2.688   0.556 -0.5143 -1.3474 -1.1460
 5405TIP3    H237851   4.475   2.619   0.436  1.7035  0.0104 -0.8569
 5406TIP3   OH237852   4.373   1.081   0.927  0.4274 -0.3614  0.0472
 5406TIP3    H137853   4.289   1.110   0.961  0.9102  0.7196  0.3529
 5406TIP3    H237854   4.376   1.117   0.838  1.5379  1.6146  0.8418
 5407TIP3   OH237855   0.158   5.955   0.281  0.8468  0.3430  0.4569
 5407TIP3    H137856   0.173   6.021   0.348  3.1445  0.7311 -0.3560
 5407TIP3    H237857   0.105   5.999   0.215  1.3122  0.9908  0.5082
 5408TIP3   OH237858   5.502   6.168   7.756  0.0121 -0.2264 -0.0605
 5408TIP3    H137859   5.450   6.137   7.681 -0.5761  0.2523  0.1430
 5408TIP3    H237860   5.463   6.252   7.779 -0.7992 -1.0490  1.7393
 5409TIP3   OH237861   1.991   5.795   0.716  0.0447 -0.3155  0.0635
 5409TIP3    H137862   1.896   5.793   0.710 -0.0399  0.2400  1.0373
 5409TIP3    H237863   2.017   5.869   0.660 -0.0240 -0.9065 -0.7758
 5410TIP3   OH237864   0.417   6.033   7.999  0.2246 -0.0221  0.1035
 5410TIP3    H137865   0.400   6.118   7.959 -1.7516 -0.6857 -0.5942
 5410TIP3    H237866   0.462   6.053   8.081 -0.1955  1.6748 -0.0550
 5411TIP3   OH237867   5.801   2.093   0.667  0.0988 -0.1371 -0.1001
 5411TIP3    H137868   5.785   2.123   0.577 -1.4311  1.0022  0.5270
 5411TIP3    H237869   5.714   2.079   0.704  0.6752  0.6826  1.6287
 5412TIP3   OH237870   3.693   1.592   2.067  0.5635  0.1369  0.0122
 5412TIP3    H137871   3.700   1.515   2.124  0.7713  0.3384  0.2663
 5412TIP3    H237872   3.782   1.629   2.067  0.4527  0.4032 -0.0655
 5413TIP3   OH237873   4.420   2.223   2.482 -0.0467  0.1697 -0.1828
 5413TIP3    H137874   4.498   2.256   2.526 -1.3448  0.9575  1.6499
 5413TIP3    H237875   4.446   2.212   2.391  1.6181  2.3604 -0.0362
 5414TIP3   OH237876   6.184   4.630   0.054  0.5622  0.6999 -0.2264
 5414TIP3    H137877   6.229   4.546   0.051 -0.7402 -0.0603  0.6653
 5414TIP3    H237878   6.195   4.666  -0.034 -2.0430 -2.1621 -1.9080
 5415TIP3   OH237879   6.550   0.283   1.414 -0.1238 -0.2529  0.2803
 5415TIP3    H137880   6.621   0.343   1.389 -0.9922  1.4117  1.6067
 5415TIP3    H237881   6.505   0.263   1.331  0.8816 -0.0300 -0.3407
 5416TIP3   OH237882   4.422   3.338   1.435  0.0440 -0.7973  0.0549
 5416TIP3    H137883   4.499   3.395   1.429 -0.0317 -0.7972 -1.3626
 5416TIP3    H237884   4.419   3.311   1.526  1.3252 -0.2376  0.2889
 5417TIP3   OH237885   3.792   5.454   1.186  0.1484 -0.0327  0.6704
 5417TIP3    H137886   3.698   5.471   1.172 -0.0217 -0.9303  0.6663
 5417TIP3    H237887   3.831   5.541   1.192 -0.7840  0.3611  1.3004
 5418TIP3   OH237888   5.246   5.746   8.207 -0.7135 -0.3928 -0.2440
 5418TIP3    H137889   5.151   5.739   8.212 -0.6183 -1.1651  0.7472
 5418TIP3    H237890   5.266   5.828   8.252 -1.0096  0.7651 -2.0828
 5419TIP3   OH237891   5.219   5.690   0.726 -0.5859 -0.3894  0.2196
 5419TIP3    H137892   5.297   5.644   0.758 -0.6339 -1.4358 -1.0937
 5419TIP3    H237893   5.245   5.724   0.641 -1.8316 -1.5585 -0.6631
 5420TIP3   OH237894   3.136   4.399   0.290 -0.0399  0.0661 -0.3175
 5420TIP3    H137895   3.127   4.494   0.296 -0.4500 -0.0146  0.4401
 5420TIP3    H237896   3.223   4.381   0.327 -1.0986 -0.0895  2.3214
 5421TIP3   OH237897   3.092   6.231   8.278  0.5180  0.5893  0.1580
 5421TIP3    H137898   3.010   6.186   8.259  0.5923  0.3735  0.3426
 5421TIP3    H237899   3.106   6.289   8.203 -0.0027  0.9117  0.3076
 5422TIP3   OH237900   0.542   5.528   8.157  0.2302 -0.0548 -0.1461
 5422TIP3    H137901   0.487   5.594   8.199 -0.7797 -1.6441  1.1860
 5422TIP3    H237902   0.620   5.522   8.212 -0.2258 -0.7690  0.4588
 5423TIP3   OH237903   5.512   5.205   1.613 -0.3318  0.1817 -0.0347
 5423TIP3    H137904   5.596   5.233   1.650 -0.1782 -0.5580  0.1961
 5423TIP3    H237905   5.470   5.155   1.683 -1.5724  1.6529  0.3232
 5424TIP3   OH237906   1.703   0.101   1.909 -0.5166 -0.2768 -0.4024
 5424TIP3    H137907   1.723   0.028   1.967 -0.7214 -0.8892 -1.0898
 5424TIP3    H237908   1.632   0.069   1.853  0.3668 -0.0593 -1.6820
 5425TIP3   OH237909   0.164   0.959   6.843  0.0092  0.2286  0.4516
 5425TIP3    H137910   0.083   0.951   6.893  0.0121  2.7839  1.0201
 5425TIP3    H237911   0.140   0.932   6.755 -1.8539  2.0077  0.3279
 5426TIP3   OH237912   6.621   0.782   7.641 -0.1891 -0.4130 -0.2588
 5426TIP3    H137913   6.707   0.816   7.665  0.0583 -0.3728 -1.1682
 5426TIP3    H237914   6.579   0.760   7.725  0.6935 -0.4238  0.1871
 5427TIP3   OH237915   5.674   3.103   2.122  0.1167  0.2127 -0.0659
 5427TIP3    H137916   5.761   3.141   2.132 -0.2859  1.2050 -0.2074
 5427TIP3    H237917   5.679   3.053   2.041  0.3279  0.9415 -0.5116
 5428TIP3   OH237918   3.054   4.713   1.554 -0.3151 -0.0654  0.0508
 5428TIP3    H137919   3.017   4.642   1.608  0.9419 -0.8016 -0.0228
 5428TIP3    H237920   3.139   4.680   1.527 -1.2805 -0.1651 -3.2379
 5429TIP3   OH237921   4.347   4.293   8.314  0.2828 -0.0499 -0.3582
 5429TIP3    H137922   4.416   4.353   8.287  0.9756 -0.0369  1.2913
 5429TIP3    H237923   4.386   4.206   8.307 -0.0369 -0.1601 -0.8129
 5430TIP3   OH237924   3.040   1.395   8.308  0.5007 -0.2602 -0.1281
 5430TIP3    H137925   2.996   1.446   8.240  1.3157  0.5364 -0.0799
 5430TIP3    H237926   3.032   1.305   8.279 -0.6033 -0.0805 -0.4303
 5431TIP3   OH237927   1.175   6.166   0.195 -0.1922  0.1247  0.2951
 5431TIP3    H137928   1.103   6.223   0.222  0.2952  0.2093  1.5108
 5431TIP3    H237929   1.146   6.078   0.220  0.5461  0.2789  1.8428
 5432TIP3   OH237930   0.323   1.888   7.042  0.4912 -0.2911  0.0163
 5432TIP3    H137931   0.308   1.793   7.043 -0.1804 -0.1883  0.3030
 5432TIP3    H237932   0.395   1.902   7.103 -1.9018 -0.2270  3.0523
 5433TIP3   OH237933   4.785   4.598   7.487  0.4626 -0.4238 -0.4339
 5433TIP3    H137934   4.799   4.629   7.576 -0.1419 -0.7258 -0.2283
 5433TIP3    H237935   4.873   4.591   7.450  0.6232  2.2068 -0.7361
 5434TIP3   OH237936   4.697   3.994   8.014  0.0891 -0.0314 -0.3299
 5434TIP3    H137937   4.744   3.929   8.068  0.6384  1.9909  1.8184
 5434TIP3    H237938   4.756   4.010   7.941  0.4263 -1.1681 -0.3391
 5435TIP3   OH237939   2.254   5.416   6.528 -0.2991 -0.0733  0.6667
 5435TIP3    H137940   2.278   5.332   6.491 -1.4092  0.8260 -2.3609
 5435TIP3    H237941   2.161   5.425   6.509 -0.6470  1.0968  2.5958
 5436TIP3   OH237942   4.748   1.725   1.692  0.7616  0.7024 -0.3479
 5436TIP3    H137943   4.697   1.687   1.763  0.2877 -0.5313 -1.3069
 5436TIP3    H237944   4.714   1.684   1.613  0.5453  2.7972 -1.4384
 5437TIP3   OH237945   5.643   1.196   7.114  0.9081 -0.1153  0.2191
 5437TIP3    H137946   5.679   1.120   7.068 -0.7485  0.3477 -1.9782
 5437TIP3    H237947   5.651   1.268   7.051 -1.3306  0.5822  0.6567
 5438TIP3   OH237948   1.525   0.142   1.444 -0.3871  0.5630  0.6912
 5438TIP3    H137949   1.548   0.065   1.392  0.0672 -0.1754  1.9501
 5438TIP3    H237950   1.446   0.176   1.403  2.1086  2.5237 -3.1467
 5439TIP3   OH237951   3.786   0.939   1.507 -0.0871 -0.2538 -0.3705
 5439TIP3    H137952   3.876   0.972   1.514 -0.6058  1.7366 -1.9877
 5439TIP3    H237953   3.731   1.017   1.512 -1.5328 -1.0205 -2.6424
 5440TIP3   OH237954   3.705   0.971   1.072 -0.0504  0.5740  0.0510
 5440TIP3    H137955   3.682   0.880   1.057 -1.2098  0.8881 -0.1310
 5440TIP3    H237956   3.783   0.967   1.128 -1.6297 -0.5177  2.3109
 5441TIP3   OH237957   1.861   5.548   1.596  0.7771  0.3094 -0.1932
 5441TIP3    H137958   1.906   5.607   1.535  1.0206  2.5268  1.9509
 5441TIP3    H237959   1.931   5.496   1.635  1.1193  1.4812  0.8022
 5442TIP3   OH237960   6.688   6.742   8.396 -0.7535 -0.1956  0.4308
 5442TIP3    H137961   6.740   6.739   8.316 -0.4349 -1.6082  0.6820
 5442TIP3    H237962   6.750   6.769   8.464 -0.6194 -0.6954  0.5097
 5443TIP3   OH237963   6.191   3.479   0.846 -0.5563 -0.4891 -0.2840
 5443TIP3    H137964   6.098   3.469   0.825 -0.2384 -2.0532 -1.0851
 5443TIP3    H237965   6.225   3.389   0.846  0.7014 -0.0654  1.2712
 5444TIP3   OH237966   2.169   0.589   8.377  0.0416  0.7047  0.3417
 5444TIP3    H137967   2.194   0.625   8.462 -1.2537  0.5170  0.8219
 5444TIP3    H237968   2.075   0.573   8.384  0.1619 -0.6424 -0.6471
 5445TIP3   OH237969   6.710   6.144   0.998  0.1875 -0.5470  0.3071
 5445TIP3    H137970   6.774   6.173   1.064  0.7014  0.7453 -0.7057
 5445TIP3    H237971   6.671   6.065   1.036  1.5129 -0.6859  1.4987
 5446TIP3   OH237972   3.726   1.498   1.371 -0.0875 -0.7736  0.4037
 5446TIP3    H137973   3.813   1.538   1.366 -0.3499 -0.1734  0.5198
 5446TIP3    H237974   3.702   1.504   1.463 -0.7094  0.0803  0.2027
 5447TIP3   OH237975   5.450   3.190   2.277  0.1918 -0.4912 -0.3133
 5447TIP3    H137976   5.448   3.268   2.333  0.5677 -1.0696  0.5284
 5447TIP3    H237977   5.532   3.198   2.228  0.4786 -0.5964  0.1392
 5448TIP3   OH237978   6.525   5.824   1.961 -0.4011 -0.0169 -0.1220
 5448TIP3    H137979   6.446   5.845   1.911 -0.6473 -1.6494 -0.4914
 5448TIP3    H237980   6.577   5.769   1.902  0.0126 -0.7206  0.8645
 5449TIP3   OH237981   5.373   5.834   0.534 -0.6219  0.0454  0.4412
 5449TIP3    H137982   5.313   5.878   0.472 -2.7347 -0.5558  1.9356
 5449TIP3    H237983   5.428   5.779   0.479  0.2536  2.4244 -1.2334
 5450TIP3   OH237984   1.271   1.359   0.187 -0.4342  0.0345 -0.1107
 5450TIP3    H137985   1.261   1.266   0.163 -0.4490 -0.1337  0.5465
 5450TIP3    H237986   1.353   1.385   0.144  0.1015 -0.5573  0.5298
 5451TIP3   OH237987   0.184   1.781   1.153  0.3960  0.1990  0.0273
 5451TIP3    H137988   0.255   1.827   1.197 -1.2270  2.3581  0.5281
 5451TIP3    H237989   0.181   1.695   1.195  3.7091 -0.6348 -1.1257
 5452TIP3   OH237990   4.843   5.104   7.622  0.1297 -0.4857 -0.1323
 5452TIP3    H137991   4.839   5.021   7.576 -1.0690  0.2437 -1.4219
 5452TIP3    H237992   4.936   5.127   7.621  0.5615 -2.0665  0.7930
 5453TIP3   OH237993   4.795   5.698   2.076 -0.4080 -0.0453 -0.3023
 5453TIP3    H137994   4.801   5.603   2.080  0.2741  0.0357  1.0315
 5453TIP3    H237995   4.785   5.726   2.167 -0.9517  1.1448 -0.7074
 5454TIP3   OH237996   1.860   5.433   0.405 -0.2056 -0.4589 -0.3796
 5454TIP3    H137997   1.845   5.352   0.453  2.2859 -0.3491  0.7447
 5454TIP3    H237998   1.845   5.410   0.313  1.8963 -2.6790 -0.2667
 5455TIP3   OH237999   1.299   5.340   0.517  0.4408  0.2531 -0.1280
 5455TIP3    H138000   1.346   5.270   0.472  0.9328  0.1985  0.4539
 5455TIP3    H238001   1.335   5.340   0.606 -0.0590  0.7766  0.0826
 5456TIP3   OH238002   6.743   4.556   7.317 -0.0956 -0.7242 -0.1565
 5456TIP3    H138003   6.816   4.577   7.258 -1.0276  0.5541 -0.9170
 5456TIP3    H238004   6.667   4.550   7.259 -0.8605 -0.4491  0.7977
 5457TIP3   OH238005   2.853   0.875   0.130  0.5755 -0.5524  0.4327
 5457TIP3    H138006   2.948   0.874   0.133  0.6577 -1.9439 -1.0138
 5457TIP3    H238007   2.826   0.802   0.186  0.4068 -0.7302  0.1231
 5458TIP3   OH238008   2.385   6.258   8.075  0.0716 -0.1983 -0.4932
 5458TIP3    H138009   2.398   6.168   8.045 -2.2601  0.2837 -3.4780
 5458TIP3    H238010   2.291   6.274   8.062  0.1742  2.3135  1.1316
 5459TIP3   OH238011   4.137   0.289   6.814 -0.7399 -0.1270  0.2940
 5459TIP3    H138012   4.077   0.321   6.746  1.1099  0.5284 -1.1265
 5459TIP3    H238013   4.164   0.203   6.783 -1.6347 -0.8375  1.4173
 5460TIP3   OH238014   3.614   2.783   2.622  0.2594  0.2131 -0.6070
 5460TIP3    H138015   3.683   2.848   2.616  0.5978 -0.1965 -1.3435
 5460TIP3    H238016   3.585   2.770   2.532 -1.8203  1.4452 -0.1850
 5461TIP3   OH238017   0.224   2.704   2.532  0.3689  0.7097  0.3936
 5461TIP3    H138018   0.267   2.657   2.603  0.7530  0.2311 -0.1511
 5461TIP3    H238019   0.261   2.792   2.535 -1.8801  1.7181  2.7858
 5462TIP3   OH238020   0.955   5.654   1.682  0.3197  0.4813  0.0276
 5462TIP3    H138021   0.875   5.605   1.701  0.7315 -0.4891 -0.6637
 5462TIP3    H238022   0.944   5.685   1.592  1.3574 -1.0168 -0.6617
 5463TIP3   OH238023   3.556   4.255   1.435 -0.5442 -0.3239 -0.0414
 5463TIP3    H138024   3.633   4.291   1.479 -0.5638 -0.1206 -0.1708
 5463TIP3    H238025   3.566   4.283   1.344 -1.4525  0.8584  0.2023
 5464TIP3   OH238026   4.636   6.381   1.497  0.1957 -0.7514  0.7559
 5464TIP3    H138027   4.593   6.301   1.526 -0.1274 -1.9902 -2.6743
 5464TIP3    H238028   4.730   6.365   1.511  0.1105 -1.6242  0.3846
 5465TIP3   OH238029   4.262   3.938   8.632  0.3382 -0.2807  0.2585
 5465TIP3    H138030   4.245   4.030   8.608  0.5131  0.2540  2.0639
 5465TIP3    H238031   4.256   3.891   8.549  0.1199  1.3419 -0.6989
 5466TIP3   OH238032   2.663   3.396   0.756 -0.2783  0.4686  0.0292
 5466TIP3    H138033   2.698   3.460   0.694  0.2821 -0.6391 -0.8397
 5466TIP3    H238034   2.729   3.390   0.825 -0.5167  1.1038  0.3175
 5467TIP3   OH238035   2.004   5.699   0.380  0.1749  0.2586  0.1970
 5467TIP3    H138036   2.088   5.654   0.372 -0.6338 -1.1982 -0.4524
 5467TIP3    H238037   1.948   5.636   0.426 -1.2722  0.1527 -1.5991
 5468TIP3   OH238038   3.008   0.844   2.017 -1.0244 -0.2891 -0.0628
 5468TIP3    H138039   3.035   0.808   2.102  0.6305 -1.4843 -1.0103
 5468TIP3    H238040   3.090   0.851   1.968 -1.8826  0.8573 -1.3989
 5469TIP3   OH238041   3.413   6.536   0.271  0.8128  0.2849  0.1108
 5469TIP3    H138042   3.396   6.460   0.327 -0.1947  1.1898  1.0971
 5469TIP3    H238043   3.490   6.512   0.220  0.4066 -1.4584  0.2669
 5470TIP3   OH238044   6.460   3.947   0.048 -0.3632  0.0288  0.8754
 5470TIP3    H138045   6.367   3.939   0.073 -0.7495 -1.0652 -0.8074
 5470TIP3    H238046   6.483   3.861   0.012  0.1825  1.3717 -2.2871
 5471TIP3   OH238047   2.567   1.283   0.175  0.0136 -0.2782 -0.0475
 5471TIP3    H138048   2.512   1.348   0.132 -0.7598 -2.0434 -1.8363
 5471TIP3    H238049   2.546   1.292   0.268  0.0671  2.0992 -0.2037
 5472TIP3   OH238050   1.263   1.639   2.158 -0.6280  0.0263  0.2616
 5472TIP3    H138051   1.202   1.691   2.105  1.1952  0.2520 -1.7771
 5472TIP3    H238052   1.217   1.624   2.241 -2.5429  2.0061 -0.3562
 5473TIP3   OH238053   1.090   2.267   1.825 -0.9665 -0.4626 -0.4384
 5473TIP3    H138054   1.045   2.198   1.874 -0.0833 -1.0407 -0.4069
 5473TIP3    H238055   1.048   2.348   1.853 -0.9018 -0.8349  0.8226
 5474TIP3   OH238056   1.883   4.465   7.743  0.1828 -0.1749 -0.7256
 5474TIP3    H138057   1.944   4.467   7.669  1.2905  1.0541  0.1722
 5474TIP3    H238058   1.880   4.556   7.774 -1.4156 -0.3865 -0.1574
 5475TIP3   OH238059   6.267   1.194   1.137 -0.2252  0.0848  0.5182
 5475TIP3    H138060   6.185   1.225   1.175 -0.2861  0.3884  0.1387
 5475TIP3    H238061   6.278   1.106   1.174 -0.0423  0.5453  1.6012
 5476TIP3   OH238062   5.975   1.940   1.085  0.1429 -0.1624  0.0270
 5476TIP3    H138063   5.920   1.882   1.137 -0.8908  0.2340 -0.5930
 5476TIP3    H238064   5.924   2.021   1.077  1.8253  1.1294  1.4546
 5477TIP3   OH238065   6.864   2.492   7.213 -0.1507  0.1288 -0.6497
 5477TIP3    H138066   6.875   2.519   7.305  0.4052 -0.1203 -0.6393
 5477TIP3    H238067   6.809   2.560   7.175 -1.1120 -0.2042  0.0796
 5478TIP3   OH238068   0.907   2.275   0.448 -0.4336 -0.3402  0.8364
 5478TIP3    H138069   0.887   2.252   0.357  1.9569 -0.2449  0.2051
 5478TIP3    H238070   0.912   2.191   0.494 -0.3227 -0.4886  0.5570
 5479TIP3   OH238071   5.169   3.202   7.401  0.4824 -0.7824 -0.2081
 5479TIP3    H138072   5.220   3.224   7.323 -0.5762 -0.2229 -0.7802
 5479TIP3    H238073   5.106   3.274   7.409  0.4191 -0.9602  1.0298
 5480TIP3   OH238074   1.966   3.574   7.517  0.2389  0.6190  0.1033
 5480TIP3    H138075   2.037   3.627   7.482  0.0956  0.8401  0.1475
 5480TIP3    H238076   1.945   3.513   7.446  0.9724  0.0542  0.3629
 5481TIP3   OH238077   0.534   1.330   0.451 -0.6657 -0.1340  0.2349
 5481TIP3    H138078   0.517   1.297   0.540  0.3830 -1.6604 -0.0991
 5481TIP3    H238079   0.517   1.256   0.394  2.4632 -0.4388 -0.4931
 5482TIP3   OH238080   5.837   4.219   8.638 -0.0121 -0.2028 -0.4844
 5482TIP3    H138081   5.789   4.273   8.576  0.8447  0.8053 -0.2981
 5482TIP3    H238082   5.928   4.250   8.632  0.1537 -0.3316  0.9928
 5483TIP3   OH238083   3.520   3.856   7.133 -0.2874 -0.0586  0.0886
 5483TIP3    H138084   3.590   3.792   7.123  1.3503  1.8421 -1.4974
 5483TIP3    H238085   3.452   3.826   7.073  0.7034 -0.0654 -1.0857
 5484TIP3   OH238086   2.723   6.826   7.326  0.0633 -0.9369  0.4998
 5484TIP3    H138087   2.673   6.802   7.405  0.4312 -2.4772  0.2898
 5484TIP3    H238088   2.722   6.747   7.272  0.0624  0.0148 -0.9293
 5485TIP3   OH238089   2.164   5.437   8.243 -0.0023  0.5225 -0.0326
 5485TIP3    H138090   2.105   5.363   8.260 -0.8924  1.1030 -0.5367
 5485TIP3    H238091   2.106   5.508   8.215  0.4614  2.3563  3.1747
 5486TIP3   OH238092   5.295   2.679   7.449  0.4336  0.8519 -0.1270
 5486TIP3    H138093   5.276   2.585   7.457  0.2601  0.6942 -1.9281
 5486TIP3    H238094   5.300   2.710   7.539 -2.8347 -0.2121  0.5552
 5487TIP3   OH238095   1.548   1.724   1.124  0.6022  0.5440 -0.1271
 5487TIP3    H138096   1.512   1.753   1.040 -0.6497  0.1050  0.2240
 5487TIP3    H238097   1.607   1.652   1.101 -0.0456  0.1489 -0.6163
 5488TIP3   OH238098   2.815   1.141   0.151 -0.0273 -0.4229 -0.3335
 5488TIP3    H138099   2.726   1.167   0.126 -0.3886 -1.3341 -0.0445
 5488TIP3    H238100   2.810   1.046   0.160  0.6472 -0.3609  0.9543
 5489TIP3   OH238101   5.376   3.220   0.174 -0.2091 -0.3965 -0.0484
 5489TIP3    H138102   5.454   3.224   0.230  1.3106 -2.3305 -1.8627
 5489TIP3    H238103   5.303   3.239   0.234  1.3958 -1.1589  2.3096
 5490TIP3   OH238104   1.814   4.820   2.303  0.6724  0.3690 -0.0237
 5490TIP3    H138105   1.831   4.749   2.242 -1.9659 -0.9195  0.5718
 5490TIP3    H238106   1.898   4.864   2.315  1.8233 -1.0471 -2.4008
 5491TIP3   OH238107   3.902   2.106   7.134 -0.7131 -0.5079 -0.0660
 5491TIP3    H138108   3.987   2.107   7.089 -0.0116  0.4497  1.2121
 5491TIP3    H238109   3.845   2.057   7.076  0.4259 -0.2126 -1.4984
 5492TIP3   OH238110   2.249   6.479   0.123  0.3900 -0.6739 -0.0391
 5492TIP3    H138111   2.153   6.486   0.122  0.4100 -0.3643 -0.0296
 5492TIP3    H238112   2.267   6.386   0.110  0.0828 -0.7649  0.1778
 5493TIP3   OH238113   0.316   4.837   8.335 -0.3152  0.6966  0.0239
 5493TIP3    H138114   0.353   4.849   8.248 -1.7970  1.2333 -0.5632
 5493TIP3    H238115   0.223   4.817   8.320 -0.7804  1.5700  1.4846
 5494TIP3   OH238116   0.393   5.056   1.759 -0.3082 -0.7164  0.3265
 5494TIP3    H138117   0.340   4.992   1.712 -0.0788 -2.3239  2.1046
 5494TIP3    H238118   0.370   5.140   1.721 -2.2032 -1.6437 -0.6790
 5495TIP3   OH238119   6.363   3.591   8.264 -0.1004 -0.1808 -0.5077
 5495TIP3    H138120   6.327   3.676   8.289 -0.3431 -0.2008 -0.7913
 5495TIP3    H238121   6.296   3.528   8.289 -0.4906 -0.1747 -1.5030
 5496TIP3   OH238122   1.196   1.356   0.704 -0.2829 -0.2655 -0.1574
 5496TIP3    H138123   1.256   1.415   0.751 -0.7671 -0.6376  0.9502
 5496TIP3    H238124   1.251   1.314   0.638  0.5493 -0.1567  0.4515
 5497TIP3   OH238125   5.445   1.758   7.769 -0.1880 -0.0791 -0.4609
 5497TIP3    H138126   5.456   1.730   7.678  0.0292 -0.0978 -0.4292
 5497TIP3    H238127   5.350   1.765   7.780 -0.1905  1.0891 -1.0432
 5498TIP3   OH238128   3.069   6.081   1.281  0.4860  0.4178 -0.1089
 5498TIP3    H138129   3.163   6.096   1.293  0.9972 -2.8105  0.8919
 5498TIP3    H238130   3.042   6.036   1.361 -1.4167 -0.7417 -1.3390
 5499TIP3   OH238131   5.774   0.942   8.196  0.7099 -0.1408  0.6567
 5499TIP3    H138132   5.733   1.002   8.259  1.7132  1.8821 -0.5454
 5499TIP3    H238133   5.723   0.953   8.116  1.9288  0.4215 -0.0720
 5500TIP3   OH238134   1.103   2.743   1.196  0.4675  0.6529  0.0949
 5500TIP3    H138135   1.149   2.729   1.278 -0.3219  1.7574  0.7496
 5500TIP3    H238136   1.172   2.762   1.132  0.9783  1.3271  0.8398
 5501TIP3   OH238137   5.192   2.014   7.791  0.1408  0.2734 -0.1245
 5501TIP3    H138138   5.261   2.072   7.759  0.6457 -0.9540 -1.3651
 5501TIP3    H238139   5.171   2.048   7.878 -0.3883  2.9626 -1.2135
 5502TIP3   OH238140   0.090   5.961   7.082 -0.1513 -0.2586  0.0499
 5502TIP3    H138141   0.119   6.032   7.026  0.9404 -0.6596  0.0857
 5502TIP3    H238142   0.009   5.993   7.121 -0.5856  0.2901 -1.2342
 5503TIP3   OH238143   6.503   3.052   0.442  0.7263  0.5746  0.0991
 5503TIP3    H138144   6.522   3.108   0.367  2.1147  1.0293  0.7654
 5503TIP3    H238145   6.541   2.967   0.419  1.4426  0.8035  0.4025
 5504TIP3   OH238146   6.120   0.593   0.078  0.2745  0.4954  0.2939
 5504TIP3    H138147   6.142   0.602  -0.015 -0.7337  2.4039  0.1897
 5504TIP3    H238148   6.200   0.618   0.124 -0.0430  2.3488 -0.0895
 5505TIP3   OH238149   3.118   6.482   1.024  0.3594  0.0421 -0.0465
 5505TIP3    H138150   3.114   6.387   1.020 -1.5287  0.1147 -2.7528
 5505TIP3    H238151   3.208   6.503   0.998  1.1161 -0.9713  1.6175
 5506TIP3   OH238152   3.348   2.039   7.151 -0.7212 -0.2959 -0.8143
 5506TIP3    H138153   3.289   2.103   7.190 -0.1911  0.0224 -0.5174
 5506TIP3    H238154   3.393   2.088   7.082  2.5763  0.9134  1.8807
 5507TIP3   OH238155   1.442   0.960   1.191 -0.4250  0.5309  0.4903
 5507TIP3    H138156   1.511   0.912   1.145 -0.9833 -0.9903  1.1768
 5507TIP3    H238157   1.392   1.002   1.122 -0.4959 -0.6726 -0.2207
 5508TIP3   OH238158   3.852   1.161   1.788 -0.4873  0.2388  0.1466
 5508TIP3    H138159   3.850   1.256   1.777  0.7395  0.4098  1.1843
 5508TIP3    H238160   3.935   1.144   1.832 -0.3807 -1.3927 -0.6233
 5509TIP3   OH238161   3.457   2.224   7.653  0.6559 -0.3550  0.5262
 5509TIP3    H138162   3.377   2.270   7.628  1.5215 -0.0956 -2.0906
 5509TIP3    H238163   3.526   2.290   7.647  1.1142 -0.4679  3.1419
 5510TIP3   OH238164   1.956   2.691   7.246  0.1237 -0.3529  0.4229
 5510TIP3    H138165   1.924   2.767   7.296  1.2458 -0.0371  0.6827
 5510TIP3    H238166   2.028   2.656   7.299  1.8564  0.4384 -1.2861
 5511TIP3   OH238167   5.079   4.520   8.351 -0.0235 -0.5462 -0.2208
 5511TIP3    H138168   5.094   4.426   8.360  0.5856 -0.5904 -1.5326
 5511TIP3    H238169   5.136   4.547   8.280 -0.1579  0.8373  0.1725
 5512TIP3   OH238170   0.748   5.380   0.657  0.1919 -0.0952  0.2605
 5512TIP3    H138171   0.775   5.397   0.747 -0.3772  2.8245 -0.0379
 5512TIP3    H238172   0.830   5.383   0.607  0.3053  0.1902  0.4578
 5513TIP3   OH238173   1.422   3.093   2.084  0.1485 -0.3128 -0.0487
 5513TIP3    H138174   1.369   3.091   2.004 -1.1897 -0.1339  0.8072
 5513TIP3    H238175   1.401   3.011   2.128  0.5947 -0.2357  0.3093
 5514TIP3   OH238176   4.160   3.085   7.731 -0.7570  0.0382  0.0186
 5514TIP3    H138177   4.135   3.004   7.775  1.7262 -0.2290  1.0476
 5514TIP3    H238178   4.255   3.081   7.723 -0.8210  1.4397 -2.7621
 5515TIP3   OH238179   2.443   2.813   8.500  0.3029 -0.0829  0.2890
 5515TIP3    H138180   2.371   2.799   8.560 -4.1653  0.4840 -4.2340
 5515TIP3    H238181   2.466   2.905   8.511  0.6815 -0.3649  2.0679
 5516TIP3   OH238182   6.636   0.479   7.311  0.2885 -0.6184  0.0267
 5516TIP3    H138183   6.601   0.568   7.304  1.6573 -0.1961 -3.3477
 5516TIP3    H238184   6.573   0.424   7.265  0.4657 -1.0829  0.3280
 5517TIP3   OH238185   0.507   0.607   6.934 -0.6271 -0.6722  0.2997
 5517TIP3    H138186   0.484   0.544   7.002  0.3987 -2.3147 -0.8258
 5517TIP3    H238187   0.531   0.554   6.859  0.9243  1.0459 -0.4900
 5518TIP3   OH238188   2.573   5.550   7.877 -0.1722  0.1840  0.2456
 5518TIP3    H138189   2.509   5.584   7.813 -1.7107  0.7151  1.9839
 5518TIP3    H238190   2.540   5.580   7.962  1.8624 -0.4273  1.3003
 5519TIP3   OH238191   2.348   0.019   0.476  0.2331 -0.2719  0.1948
 5519TIP3    H138192   2.428   0.020   0.423  0.5376 -2.3799  0.5261
 5519TIP3    H238193   2.294  -0.049   0.436 -0.4685 -0.3691  1.2797
 5520TIP3   OH238194   1.824   5.360   7.494 -0.4868 -0.6679  0.1459
 5520TIP3    H138195   1.762   5.423   7.528  0.4763  0.6566 -0.4551
 5520TIP3    H238196   1.897   5.362   7.556  0.5053  0.4728 -0.9857
 5521TIP3   OH238197   0.273   1.954   7.686  0.0699  0.0760  0.6307
 5521TIP3    H138198   0.213   1.891   7.726  0.0288 -0.9165 -0.9098
 5521TIP3    H238199   0.216   2.020   7.645  0.0487 -0.2033  0.2044
 5522TIP3   OH238200   2.818   4.362   1.525 -0.2100 -0.9818 -0.0884
 5522TIP3    H138201   2.758   4.433   1.551  0.5075 -0.6574  0.7184
 5522TIP3    H238202   2.881   4.405   1.467  0.3768 -0.8975  0.6055
 5523TIP3   OH238203   6.876   0.165   0.918  0.3024 -0.1332  0.2269
 5523TIP3    H138204   6.878   0.083   0.869 -1.1006  0.8319 -1.5499
 5523TIP3    H238205   6.934   0.223   0.870 -0.6426  0.6629  0.0180
 5524TIP3   OH238206   6.617   3.266   0.304 -0.1285  0.2225  0.3604
 5524TIP3    H138207   6.581   3.353   0.288 -2.9315 -1.1996 -2.2002
 5524TIP3    H238208   6.624   3.227   0.217  0.7624 -2.2227  1.4487
 5525TIP3   OH238209   6.546   1.592   1.077 -0.6001  0.0911  0.3928
 5525TIP3    H138210   6.502   1.511   1.106 -0.4666 -0.0865  0.1031
 5525TIP3    H238211   6.493   1.662   1.115 -1.2086 -0.1205 -0.0452
 5526TIP3   OH238212   6.544   6.845   1.782 -0.0228  0.3430 -0.0881
 5526TIP3    H138213   6.541   6.938   1.802  1.1254 -0.0661  2.2486
 5526TIP3    H238214   6.475   6.806   1.836  1.0285 -0.4272  0.7294
 5527TIP3   OH238215   4.401   5.381   0.823 -0.6597  0.5072  0.1685
 5527TIP3    H138216   4.388   5.345   0.735  0.0987  0.1285  0.2085
 5527TIP3    H238217   4.372   5.311   0.882 -0.0276  0.2937  0.2327
 5528TIP3   OH238218   2.772   1.486   7.553 -0.2000  0.3476  0.6251
 5528TIP3    H138219   2.768   1.395   7.527  0.6676  0.1552  1.1117
 5528TIP3    H238220   2.732   1.488   7.640 -1.4869  0.6836  0.0470
 5529TIP3   OH238221   0.567   5.883   0.056 -0.2423 -0.2617  0.1526
 5529TIP3    H138222   0.557   5.806  -0.001 -1.2337  0.9162 -1.3470
 5529TIP3    H238223   0.653   5.918   0.033 -0.4155 -0.0914 -0.2433
 5530TIP3   OH238224   0.036   2.872   8.262 -0.0049 -0.4283  0.4408
 5530TIP3    H138225  -0.041   2.897   8.314 -0.8874 -0.3633 -0.8424
 5530TIP3    H238226  -0.001   2.830   8.184  1.2850 -0.7072 -0.0334
 5531TIP3   OH238227   0.991   4.232   7.390  1.2823  0.3863  0.0486
 5531TIP3    H138228   1.039   4.255   7.311  1.9025 -1.5606 -0.2059
 5531TIP3    H238229   0.993   4.136   7.392  0.8769  0.3678  2.1676
 5532TIP3   OH238230   0.989   6.309   1.106  0.5519  0.3915 -0.1715
 5532TIP3    H138231   1.008   6.388   1.056  2.1961 -1.7073 -3.2144
 5532TIP3    H238232   0.911   6.272   1.064  0.2622 -0.0148  0.6890
 5533TIP3   OH238233   2.087   5.119   1.368  0.0000 -0.7522  0.4696
 5533TIP3    H138234   2.013   5.136   1.428 -1.8670  1.0209 -2.1366
 5533TIP3    H238235   2.050   5.061   1.301  1.4517 -1.0900 -0.0689
 5534TIP3   OH238236   1.900   5.114   7.416 -0.0457  0.1190 -0.0725
 5534TIP3    H138237   1.863   5.195   7.451  0.7814  1.1574 -1.4610
 5534TIP3    H238238   1.870   5.112   7.325  0.0618 -1.0857 -0.0978
 5535TIP3   OH238239   2.455   1.648   1.684  0.3080  0.0926  0.1549
 5535TIP3    H138240   2.464   1.692   1.599  1.1870 -1.5303 -0.6387
 5535TIP3    H238241   2.526   1.584   1.685 -0.0050 -0.2732  1.9130
 5536TIP3   OH238242   2.867   3.447   7.695 -0.5228 -0.3533  0.1987
 5536TIP3    H138243   2.831   3.535   7.699 -1.2525 -0.6532  0.3450
 5536TIP3    H238244   2.954   3.454   7.734 -0.2063  0.4835 -0.6316
 5537TIP3   OH238245   6.724   1.026   1.818 -0.1448 -0.2155  0.0773
 5537TIP3    H138246   6.667   1.093   1.782  0.3017 -0.1131 -0.4741
 5537TIP3    H238247   6.813   1.055   1.794  0.1801 -0.0863  1.3886
 5538TIP3   OH238248   5.308   0.577   2.707 -0.4175  0.1518 -0.2562
 5538TIP3    H138249   5.286   0.541   2.621  0.0526  1.7726 -1.1009
 5538TIP3    H238250   5.225   0.578   2.755 -0.4644 -1.8721 -0.2325
 5539TIP3   OH238251   5.485   4.778   1.942  0.4292 -0.5974  0.1186
 5539TIP3    H138252   5.518   4.795   1.854 -0.5535 -0.2103 -0.1927
 5539TIP3    H238253   5.524   4.695   1.967  2.1764  0.1634  0.0678
 5540TIP3   OH238254   1.115   4.506   0.855 -0.0295 -0.4563 -0.3963
 5540TIP3    H138255   1.174   4.431   0.858 -1.0949 -1.2908  0.2771
 5540TIP3    H238256   1.028   4.468   0.851 -0.7087  0.7159  1.6882
 5541TIP3   OH238257   1.116   6.344   7.801 -0.3503  0.1625  0.4131
 5541TIP3    H138258   1.108   6.324   7.894 -1.2471  0.0987  0.3316
 5541TIP3    H238259   1.163   6.427   7.798  1.3676 -0.7393  0.8411
 5542TIP3   OH238260   0.235   5.698   7.797 -0.6010 -0.0798 -0.0057
 5542TIP3    H138261   0.172   5.699   7.869  0.4615 -0.4464  0.9551
 5542TIP3    H238262   0.307   5.643   7.829 -0.0859 -0.2143 -1.3344
 5543TIP3   OH238263   2.144   0.186   7.504  0.1885  0.5947  0.4082
 5543TIP3    H138264   2.198   0.128   7.450  0.3430  1.2556 -0.1568
 5543TIP3    H238265   2.055   0.153   7.492  0.2400  0.6437 -0.1307
 5544TIP3   OH238266   3.787   2.554   7.968  0.5810 -0.0750  0.3756
 5544TIP3    H138267   3.854   2.561   7.900  0.4422  1.1414  0.3438
 5544TIP3    H238268   3.834   2.524   8.045  1.2148  0.9588  0.4075
 5545TIP3   OH238269   6.734   5.607   1.096 -0.0262  0.2561  0.3945
 5545TIP3    H138270   6.773   5.658   1.167  1.4035  1.2897 -1.0573
 5545TIP3    H238271   6.807   5.588   1.038 -1.1027 -0.8407 -0.6465
 5546TIP3   OH238272   4.968   3.261   1.199  0.1060  0.0538 -0.2693
 5546TIP3    H138273   4.914   3.201   1.251  1.4403 -1.7793 -0.8713
 5546TIP3    H238274   5.029   3.203   1.154  1.5421  1.9295 -0.8122
 5547TIP3   OH238275   0.159   5.141   0.655 -0.2275 -0.0436 -0.6999
 5547TIP3    H138276   0.239   5.100   0.622  1.4659  2.4020  0.1017
 5547TIP3    H238277   0.168   5.233   0.632 -0.5366  1.2312  3.4424
 5548TIP3   OH238278   5.405   2.186   0.455  0.9133  0.1048 -0.6049
 5548TIP3    H138279   5.384   2.264   0.506 -1.9798  0.4970 -2.1580
 5548TIP3    H238280   5.395   2.113   0.516  1.6249  0.8003  0.3545
 5549TIP3   OH238281   1.699   2.835   8.651  0.1102  0.8030  0.2857
 5549TIP3    H138282   1.661   2.882   8.725 -1.2667  1.1647 -0.6063
 5549TIP3    H238283   1.637   2.765   8.633 -0.6789  1.9382 -1.7598
 5550TIP3   OH238284   1.125   4.220   0.206 -0.4530  0.3761  0.7576
 5550TIP3    H138285   1.042   4.173   0.209 -0.5702  0.4583 -0.5781
 5550TIP3    H238286   1.138   4.238   0.113  1.3716 -0.1947  0.8692
 5551TIP3   OH238287   6.857   6.359   2.275 -0.0265  0.4547  0.4758
 5551TIP3    H138288   6.878   6.292   2.340  1.5527  1.1036  0.6683
 5551TIP3    H238289   6.780   6.404   2.310  0.5360  0.5033  1.6848
 5552TIP3   OH238290   4.599   1.990   2.366 -0.0186  0.5926  0.1137
 5552TIP3    H138291   4.530   1.926   2.382  0.1297  0.1260 -1.0229
 5552TIP3    H238292   4.680   1.946   2.393 -0.0631  0.8216  0.6337
 5553TIP3   OH238293   1.938   1.396   7.541  0.2167  0.0910 -0.3760
 5553TIP3    H138294   1.996   1.341   7.594 -0.7293 -0.9481 -0.3943
 5553TIP3    H238295   1.937   1.480   7.587  0.0278 -0.5472  0.8365
 5554TIP3   OH238296   5.438   3.505   1.062  0.0234  0.2470 -0.1810
 5554TIP3    H138297   5.405   3.594   1.051  2.1105  0.9464 -1.5838
 5554TIP3    H238298   5.482   3.485   0.979 -0.0019 -1.9337  0.2587
 5555TIP3   OH238299   6.390   6.045   1.216  0.1819 -0.2842 -0.1649
 5555TIP3    H138300   6.379   6.101   1.140 -1.0418  0.4185  0.4930
 5555TIP3    H238301   6.403   6.106   1.289 -0.8111 -0.8456  0.5109
 5556TIP3   OH238302   6.872   0.728   1.768 -0.0521  0.4614  0.1755
 5556TIP3    H138303   6.897   0.635   1.769 -3.2687 -0.5149  0.7761
 5556TIP3    H238304   6.921   0.766   1.841  1.8344 -0.5482 -0.4701
 5557TIP3   OH238305   1.574   5.009   0.171 -0.1075  0.1732 -0.2708
 5557TIP3    H138306   1.491   4.961   0.166 -0.0132 -0.0801  0.5605
 5557TIP3    H238307   1.595   5.028   0.079  0.6094 -2.6591 -0.8085
 5558TIP3   OH238308   1.450   5.215   7.946  0.1078  0.6739  0.3262
 5558TIP3    H138309   1.481   5.133   7.908  0.2585  1.3031 -0.9501
 5558TIP3    H238310   1.361   5.196   7.974 -0.5157  0.5620 -1.6363
 5559TIP3   OH238311   1.761   4.921   8.434 -0.0404 -0.0542  0.1356
 5559TIP3    H138312   1.793   4.958   8.517 -1.7089  0.9395  0.3903
 5559TIP3    H238313   1.754   4.996   8.375 -1.2164 -0.3242 -0.1040
 5560TIP3   OH238314   1.523   2.422   0.999 -0.4767 -0.3844 -0.2917
 5560TIP3    H138315   1.439   2.452   1.033  0.4527  0.4610  1.4072
 5560TIP3    H238316   1.506   2.333   0.967 -2.0769 -0.1064 -0.2842
 5561TIP3   OH238317   0.040   5.710   0.333 -0.0619 -0.7566  0.0202
 5561TIP3    H138318  -0.008   5.731   0.253 -1.3976  0.2401  1.0420
 5561TIP3    H238319   0.105   5.780   0.340  0.0559 -0.8443 -0.1894
 5562TIP3   OH238320   2.869   4.546   7.856  0.3082  0.3180  0.5186
 5562TIP3    H138321   2.960   4.534   7.828  1.1552  1.8713  2.3700
 5562TIP3    H238322   2.857   4.483   7.928 -0.6685 -1.0587 -0.7834
 5563TIP3   OH238323   5.244   0.432   7.285 -0.4652  0.3166  0.2436
 5563TIP3    H138324   5.243   0.490   7.209  0.8941  0.4924  0.3239
 5563TIP3    H238325   5.177   0.366   7.267  0.2723 -0.0312 -1.4353
 5564TIP3   OH238326   4.016   5.265   8.251 -0.1960  0.1533 -1.0651
 5564TIP3    H138327   4.047   5.206   8.182  0.9106  1.0912 -1.3965
 5564TIP3    H238328   3.982   5.341   8.205  2.1308  1.5586 -0.6122
 5565TIP3   OH238329   4.733   2.895   3.293  0.1261  0.0630  0.0286
 5565TIP3    H138330   4.806   2.834   3.285  0.3443  0.5360 -3.0646
 5565TIP3    H238331   4.656   2.844   3.268 -0.2323  0.1810  0.8720
 5566TIP3   OH238332   1.820   6.662   7.054  0.7010 -0.2488  0.2638
 5566TIP3    H138333   1.775   6.641   7.136 -0.6982  0.2907 -0.3302
 5566TIP3    H238334   1.791   6.751   7.034  0.3865 -0.6687 -1.2140
 5567TIP3   OH238335   0.953   6.368   1.919  0.4004 -0.7911 -0.3918
 5567TIP3    H138336   0.908   6.412   1.991 -2.0055 -1.6041 -1.2813
 5567TIP3    H238337   0.975   6.438   1.858  0.0276 -0.3948 -0.0744
 5568TIP3   OH238338   4.465   4.497   1.342  0.0414  0.1535 -0.0039
 5568TIP3    H138339   4.451   4.447   1.262 -1.2238  2.5760 -1.4414
 5568TIP3    H238340   4.560   4.499   1.353  0.3557  0.7818 -2.2333
 5569TIP3   OH238341   6.121   5.523   0.320  0.6202 -0.0314 -0.1137
 5569TIP3    H138342   6.146   5.601   0.370  1.2777  0.0921 -0.6098
 5569TIP3    H238343   6.100   5.457   0.386  1.9569 -0.0306  0.3352
 5570TIP3   OH238344   4.963   4.201   0.001 -0.4738  0.0946  0.5516
 5570TIP3    H138345   5.029   4.177   0.067 -0.2492  1.0617  0.6892
 5570TIP3    H238346   4.890   4.141   0.017  0.0877 -0.5261  0.8507
 5571TIP3   OH238347   1.553   2.958   1.425 -0.1471 -0.2218  0.7953
 5571TIP3    H138348   1.459   2.951   1.408 -0.1634 -0.4987  0.9940
 5571TIP3    H238349   1.581   3.034   1.374 -0.5635  0.1435  1.1023
 5572TIP3   OH238350   0.101   6.356   8.652  0.4145  0.0387  0.0834
 5572TIP3    H138351   0.151   6.324   8.727  0.1653  1.0107  0.6820
 5572TIP3    H238352   0.016   6.380   8.688 -0.6387 -1.8109 -0.9582
 5573TIP3   OH238353   5.866   3.658   0.498  0.3783 -0.1933  0.6744
 5573TIP3    H138354   5.956   3.686   0.480  0.2881 -0.5406 -0.4276
 5573TIP3    H238355   5.852   3.584   0.439 -0.2436 -0.9091  1.6829
 5574TIP3   OH238356   3.038   0.452   7.691 -0.3514  0.3386 -0.1267
 5574TIP3    H138357   3.073   0.510   7.758 -0.0495 -1.4956  1.3853
 5574TIP3    H238358   2.963   0.409   7.733 -0.8031 -0.1061 -1.3300
 5575TIP3   OH238359   3.806   6.730   1.262  0.3967 -0.1601  0.4642
 5575TIP3    H138360   3.823   6.824   1.266  2.6261 -0.3161 -2.1555
 5575TIP3    H238361   3.718   6.720   1.298 -0.8701  3.2384 -1.2288
 5576TIP3   OH238362   3.808   5.420   0.125 -0.1953 -0.4518 -0.2933
 5576TIP3    H138363   3.881   5.466   0.166  1.3103 -1.8312 -1.2472
 5576TIP3    H238364   3.840   5.330   0.115 -2.7336 -1.5795  0.8878
 5577TIP3   OH238365   6.585   6.690   2.312 -0.1137  0.0913 -0.4282
 5577TIP3    H138366   6.615   6.615   2.363  0.0214  1.1752  1.1937
 5577TIP3    H238367   6.551   6.751   2.378 -3.3223  0.1130 -1.9138
 5578TIP3   OH238368   5.204   0.995   7.828  0.4318  0.2122 -0.0448
 5578TIP3    H138369   5.296   0.972   7.815  0.6107 -0.1314  1.6920
 5578TIP3    H238370   5.158   0.949   7.757  1.2676 -2.1080  0.8353
 5579TIP3   OH238371   2.350   5.624   1.178 -0.0484  0.3767 -0.3124
 5579TIP3    H138372   2.430   5.656   1.219  0.0778  1.5936 -1.4623
 5579TIP3    H238373   2.371   5.618   1.085 -0.5587 -1.6339 -0.3542
 5580TIP3   OH238374   6.756   5.520   2.853 -0.2642 -0.9986 -0.6240
 5580TIP3    H138375   6.682   5.571   2.819  0.8952  2.5403  1.5689
 5580TIP3    H238376   6.834   5.571   2.828  1.0069 -1.6557  1.6728
 5581TIP3   OH238377   4.288   4.043   2.008  0.4185 -0.3166  0.1998
 5581TIP3    H138378   4.264   3.983   1.937 -0.0973  0.3234 -0.1731
 5581TIP3    H238379   4.250   4.004   2.087 -3.0572  1.2611 -0.5048
 5582TIP3   OH238380   6.837   0.139   1.763 -0.5145 -0.2085 -0.1817
 5582TIP3    H138381   6.843   0.072   1.695 -0.4101 -0.3957  0.0146
 5582TIP3    H238382   6.850   0.092   1.845 -1.2112 -0.0768  0.0121
 5583TIP3   OH238383   2.464   0.824   8.614  0.1045 -0.7727 -0.9294
 5583TIP3    H138384   2.487   0.911   8.648  0.3546 -0.9504 -0.6466
 5583TIP3    H238385   2.537   0.768   8.639 -0.5063 -1.2844 -0.2494
 5584TIP3   OH238386   1.219   2.556   8.545 -0.0142 -0.2453  0.4463
 5584TIP3    H138387   1.217   2.461   8.536 -0.2334 -0.1510 -0.5214
 5584TIP3    H238388   1.130   2.585   8.522  0.7800  0.4193 -2.0872
 5585TIP3   OH238389   0.170   4.870   2.823  0.8354 -0.3875 -0.0234
 5585TIP3    H138390   0.147   4.780   2.802  0.9483  0.3498 -4.2988
 5585TIP3    H238391   0.248   4.888   2.770  1.6766  1.8663  1.7910
 5586TIP3   OH238392   2.523   3.509   1.238 -0.1404  0.7417 -0.3646
 5586TIP3    H138393   2.575   3.589   1.250 -0.3577  0.8111  0.1479
 5586TIP3    H238394   2.513   3.501   1.144  0.9632  0.6343 -0.4887
 5587TIP3   OH238395   6.888   5.472   1.584 -0.0336  0.0122  0.1401
 5587TIP3    H138396   6.887   5.418   1.663  0.3113  0.8605  0.7376
 5587TIP3    H238397   6.967   5.446   1.537  0.4763  0.4325  0.7455
 5588TIP3   OH238398   4.629   1.046   1.527  0.1467 -0.2614 -0.1301
 5588TIP3    H138399   4.664   0.962   1.555  2.1219  0.8413  0.9629
 5588TIP3    H238400   4.621   1.097   1.608 -1.4523  0.4689 -0.7061
 5589TIP3   OH238401   0.415   2.908   7.433 -0.0886 -0.0454  0.3336
 5589TIP3    H138402   0.454   2.992   7.410 -0.4033 -0.3155 -1.2655
 5589TIP3    H238403   0.484   2.844   7.418  0.2218 -0.0972  1.7567
 5590TIP3   OH238404   5.742   2.647   7.837  0.3097  0.2508 -0.2479
 5590TIP3    H138405   5.711   2.618   7.923  1.5150 -0.1743  0.0624
 5590TIP3    H238406   5.688   2.599   7.774 -0.4035  0.3679  0.2610
 5591TIP3   OH238407   3.984   2.069   1.559 -0.2901  0.3157  0.2067
 5591TIP3    H138408   3.948   1.982   1.547  0.4904  0.0385 -0.1852
 5591TIP3    H238409   4.078   2.056   1.570 -0.4238  0.9150  2.5699
 5592TIP3   OH238410   2.880   1.259   1.961  0.4557 -0.4080  0.5250
 5592TIP3    H138411   2.934   1.337   1.970 -0.0029  0.0680 -0.6395
 5592TIP3    H238412   2.870   1.247   1.866 -2.0286 -0.0473  0.6532
 5593TIP3   OH238413   6.025   5.155   0.589 -0.6978  0.3044  0.5133
 5593TIP3    H138414   6.026   5.250   0.577 -3.2480  0.1682 -1.7233
 5593TIP3    H238415   6.106   5.125   0.547 -0.1983  1.4420  0.6406
 5594TIP3   OH238416   3.947   2.146   6.675  0.3291  0.0682  0.1872
 5594TIP3    H138417   3.854   2.147   6.698  0.2055 -0.4300 -0.2851
 5594TIP3    H238418   3.988   2.200   6.743 -0.3668  0.7502  0.0896
 5595TIP3   OH238419   5.032   2.064   1.225  0.1252  0.2925 -0.1451
 5595TIP3    H138420   4.940   2.082   1.244 -0.6790 -1.5016 -1.9486
 5595TIP3    H238421   5.060   2.136   1.168  0.1359  1.3022  1.0997
 5596TIP3   OH238422   3.082   5.024   1.740  0.3547 -0.0960 -0.7218
 5596TIP3    H138423   3.149   5.050   1.677  1.0500  1.6911  0.6565
 5596TIP3    H238424   3.038   5.106   1.765 -0.2617 -0.8053  0.6705
 5597TIP3   OH238425   0.466   3.106   2.255 -0.3619  0.1298 -0.7793
 5597TIP3    H138426   0.547   3.132   2.212 -0.5167  1.3428 -0.3621
 5597TIP3    H238427   0.473   3.011   2.263  0.8156  0.1693 -1.1519
 5598TIP3   OH238428   5.194   2.414   8.081 -0.2001  0.3229 -0.8214
 5598TIP3    H138429   5.237   2.425   8.165  1.1060 -1.2819 -1.2285
 5598TIP3    H238430   5.133   2.487   8.076  0.1373  0.8135  1.2250
 5599TIP3   OH238431   3.669   1.937   0.896  0.2650 -0.0639  0.8060
 5599TIP3    H138432   3.643   1.886   0.820  1.8800 -1.3702  1.0549
 5599TIP3    H238433   3.590   1.941   0.950 -0.8344  0.6756 -0.7883
 5600TIP3   OH238434   6.659   2.213   1.920  0.2825 -0.0303 -0.1327
 5600TIP3    H138435   6.605   2.142   1.955 -0.9076  0.7930 -0.2093
 5600TIP3    H238436   6.597   2.268   1.872  1.2440  0.8362 -0.4157
 5601TIP3   OH238437   4.091   2.033   2.297 -0.1332  0.0111  0.1109
 5601TIP3    H138438   4.010   2.005   2.255 -0.0925 -0.1007  0.1089
 5601TIP3    H238439   4.062   2.097   2.363  0.0164  2.5478 -2.0819
 5602TIP3   OH238440   5.728   6.404   0.284 -0.7190  0.2256 -0.1380
 5602TIP3    H138441   5.683   6.324   0.259 -0.3067 -0.6974  1.9113
 5602TIP3    H238442   5.694   6.426   0.371  1.2580  0.6231  0.6045
 5603TIP3   OH238443   4.609   2.908   8.166 -0.2829 -0.1707 -0.0336
 5603TIP3    H138444   4.663   2.833   8.191  1.0677 -0.0116 -2.2156
 5603TIP3    H238445   4.669   2.983   8.173 -1.0829  0.4561  0.2804
 5604TIP3   OH238446   3.204   5.305   2.483 -0.1840 -0.2301  0.1759
 5604TIP3    H138447   3.189   5.268   2.570 -0.5620  0.7093  0.5173
 5604TIP3    H238448   3.181   5.397   2.491  0.7302  0.0964 -0.6639
 5605TIP3   OH238449   6.508   1.897   1.942  0.3070 -0.6944 -0.0946
 5605TIP3    H138450   6.538   1.879   2.031 -0.7049 -1.4934  0.1142
 5605TIP3    H238451   6.422   1.854   1.937 -1.2420  2.2036 -0.3569
 5606TIP3   OH238452   0.954   3.526   2.561  0.0069  0.2864  0.1446
 5606TIP3    H138453   1.036   3.481   2.582 -0.2885  0.5723  2.0991
 5606TIP3    H238454   0.971   3.568   2.477  1.0437 -1.6018 -0.6650
 5607TIP3   OH238455   2.368   5.552   8.087  0.2311 -0.4813 -0.3778
 5607TIP3    H138456   2.314   5.518   8.015 -1.1077  0.2916  0.2262
 5607TIP3    H238457   2.328   5.515   8.166  1.3401 -0.8629  0.0337
 5608TIP3   OH238458   0.847   5.910   0.476 -0.1439 -0.2520 -0.3241
 5608TIP3    H138459   0.754   5.928   0.469 -0.0277  0.2603 -0.5646
 5608TIP3    H238460   0.858   5.874   0.564 -0.1917  2.0059  0.6573
 5609TIP3   OH238461   0.056   6.512   8.015 -0.6642  0.2228  0.4569
 5609TIP3    H138462   0.083   6.424   7.992  0.7264 -0.8088  4.9978
 5609TIP3    H238463  -0.039   6.513   8.002 -0.6986 -1.9141  0.3046
 5610TIP3   OH238464   2.912   6.029   0.256 -0.0462 -0.1734 -0.1734
 5610TIP3    H138465   2.866   5.963   0.205  0.2624 -0.1820 -0.4391
 5610TIP3    H238466   3.005   6.016   0.236 -0.0272  0.8635 -0.8601
 5611TIP3   OH238467   3.701   1.324   0.788  0.0987  0.2118  0.1549
 5611TIP3    H138468   3.634   1.279   0.736 -0.4095 -0.0586  1.0239
 5611TIP3    H238469   3.651   1.378   0.849  0.6928  2.5910 -1.3500
 5612TIP3   OH238470   2.154   5.801   1.570  0.0031  0.2230  0.0379
 5612TIP3    H138471   2.125   5.833   1.485 -1.7957 -1.1957  0.0588
 5612TIP3    H238472   2.208   5.724   1.550  1.0987  0.9550  0.1296
 5613TIP3   OH238473   4.879   4.276   1.923  0.1930 -0.8471 -0.9981
 5613TIP3    H138474   4.932   4.258   2.000  0.4984  0.6649 -0.8226
 5613TIP3    H238475   4.852   4.190   1.892 -0.2939 -1.4900  1.0431
 5614TIP3   OH238476   5.928   4.765   0.146  0.8661 -0.0599  0.2329
 5614TIP3    H138477   6.009   4.719   0.165  1.1633  0.7147  0.9169
 5614TIP3    H238478   5.905   4.809   0.228 -2.1384 -3.0107  1.1859
 5615TIP3   OH238479   3.554   2.678   2.340 -0.0890 -0.3527 -0.5392
 5615TIP3    H138480   3.483   2.630   2.382  0.4394 -1.5823 -1.0063
 5615TIP3    H238481   3.608   2.611   2.299  0.5049  0.6606 -1.4954
 5616TIP3   OH238482   6.426   0.922   7.150  0.4647 -0.9748 -0.4257
 5616TIP3    H138483   6.417   0.944   7.058  0.9161  1.5433  0.0766
 5616TIP3    H238484   6.428   0.826   7.151  1.1297 -1.0632 -3.0715
 5617TIP3   OH238485   5.638   1.732   8.244  0.3904 -0.0115  0.3095
 5617TIP3    H138486   5.611   1.737   8.153 -1.8649  0.1764  0.9429
 5617TIP3    H238487   5.608   1.646   8.274  0.6474  0.1332  1.0119
 5618TIP3   OH238488   1.182   0.634   6.780  0.2142 -0.2530  0.1946
 5618TIP3    H138489   1.139   0.549   6.788  1.5261 -1.2285 -2.2181
 5618TIP3    H238490   1.275   0.614   6.779  0.5460  0.8448 -2.8771
 5619TIP3   OH238491   5.748   2.108   2.023  0.0215 -0.0950  0.6185
 5619TIP3    H138492   5.814   2.143   2.083 -0.3531 -0.1933  1.0944
 5619TIP3    H238493   5.731   2.019   2.055 -0.5761  0.0428  0.6991
 5620TIP3   OH238494   3.995   4.771   1.394 -0.2439  0.4953  0.7792
 5620TIP3    H138495   4.084   4.736   1.392  0.8437  2.9580  1.6825
 5620TIP3    H238496   3.978   4.799   1.304 -0.0797  0.0757  0.6166
 5621TIP3   OH238497   0.844   3.680   2.773  0.6012  0.3770 -0.7154
 5621TIP3    H138498   0.927   3.727   2.785  0.9175  0.0081 -1.4281
 5621TIP3    H238499   0.859   3.625   2.697  0.8608 -2.3030  1.1417
 5622TIP3   OH238500   4.643   3.393   0.860 -0.5527 -0.5889 -0.8001
 5622TIP3    H138501   4.608   3.431   0.940  0.7295  1.5113 -1.1462
 5622TIP3    H238502   4.606   3.305   0.856  0.2061 -1.2040  2.6396
 5623TIP3   OH238503   0.359   5.180   7.525 -0.0398 -0.4558  0.5396
 5623TIP3    H138504   0.336   5.243   7.594  1.1228 -1.7448  2.1908
 5623TIP3    H238505   0.451   5.198   7.505 -0.3839 -0.0446 -0.7932
 5624TIP3   OH238506   0.475   1.983   2.679  0.0878  0.4732 -0.0068
 5624TIP3    H138507   0.497   2.073   2.657  1.6320  0.3035  0.6793
 5624TIP3    H238508   0.397   1.964   2.627 -0.0777  2.0857 -0.4078
 5625TIP3   OH238509   5.335   2.276   1.293  0.2141 -0.4062 -0.3060
 5625TIP3    H138510   5.367   2.191   1.262  0.0892  0.3031 -2.5593
 5625TIP3    H238511   5.330   2.330   1.214 -0.0584  1.6029  1.0092
 5626TIP3   OH238512   3.890   3.279   8.657  0.4599 -0.0149  0.1182
 5626TIP3    H138513   3.883   3.186   8.680  0.4666 -0.7681 -2.5988
 5626TIP3    H238514   3.976   3.287   8.615  0.6228  1.3202  0.6559
 5627TIP3   OH238515   2.507   1.744   2.024 -0.7794 -0.4684  0.3209
 5627TIP3    H138516   2.509   1.840   2.030 -1.0583 -0.3146 -1.2979
 5627TIP3    H238517   2.430   1.726   1.969  0.0855 -1.5206 -0.6016
 5628TIP3   OH238518   6.172   6.830   7.065  0.1968 -0.4457  0.0822
 5628TIP3    H138519   6.142   6.801   6.979 -0.7525  1.3038 -0.2242
 5628TIP3    H238520   6.165   6.926   7.062  1.4059 -0.2734  1.6586
 5629TIP3   OH238521   6.155   6.348   6.850  0.2354 -0.3860  0.8116
 5629TIP3    H138522   6.243   6.368   6.818 -0.0760  0.2036  0.3005
 5629TIP3    H238523   6.106   6.323   6.772 -0.2917  0.1803  0.9443
 5630TIP3   OH238524   2.275   2.690   0.427 -0.2135 -0.3621 -0.1189
 5630TIP3    H138525   2.229   2.633   0.365  1.1402 -1.0398 -0.5217
 5630TIP3    H238526   2.286   2.636   0.505  1.4827 -0.8543 -0.6615
 5631TIP3   OH238527   1.612   5.917   1.811 -0.0596 -0.9606 -0.1704
 5631TIP3    H138528   1.557   5.993   1.793  1.8828  0.2343 -1.2728
 5631TIP3    H238529   1.701   5.950   1.812  0.7041 -2.7587  2.0034
 5632TIP3   OH238530   2.506   1.085   8.661  0.0975  0.1524  0.1078
 5632TIP3    H138531   2.540   1.170   8.687  0.9295  0.8122 -2.8574
 5632TIP3    H238532   2.413   1.100   8.644  0.0677  0.2481  0.3446
 5633TIP3   OH238533   4.524   4.778   8.335  0.4051  0.0524  0.2319
 5633TIP3    H138534   4.490   4.712   8.395 -1.4566 -0.8911 -1.7103
 5633TIP3    H238535   4.515   4.738   8.248  1.9851  1.7525 -0.7915
 5634TIP3   OH238536   0.881   1.009   1.580 -0.1514  0.4399 -0.0923
 5634TIP3    H138537   0.868   0.915   1.586 -0.3576  0.3961 -1.1396
 5634TIP3    H238538   0.827   1.037   1.507  1.3758  1.0696 -1.0299
 5635TIP3   OH238539   2.938   5.356   1.782  0.6081 -0.0463 -0.1071
 5635TIP3    H138540   3.009   5.390   1.838  1.0519 -0.4166 -0.4297
 5635TIP3    H238541   2.977   5.350   1.695 -0.2792  1.1327 -0.6033
 5636TIP3   OH238542   5.052   2.341   7.386 -0.5217  0.2673  0.3338
 5636TIP3    H138543   4.981   2.406   7.384  1.8931  3.0907 -0.0793
 5636TIP3    H238544   5.111   2.372   7.455  1.9254 -0.0415 -1.4920
 5637TIP3   OH238545   6.105   1.471   6.723  0.5255  0.3209 -0.1131
 5637TIP3    H138546   6.082   1.406   6.657  2.5998 -0.2758 -0.3147
 5637TIP3    H238547   6.119   1.552   6.674  0.8455  0.1839 -0.2476
 5638TIP3   OH238548   1.892   2.525   0.864 -0.3424  0.1231  0.0114
 5638TIP3    H138549   1.849   2.558   0.943 -0.4779  2.0202 -0.7819
 5638TIP3    H238550   1.973   2.485   0.896 -1.0214 -0.3553  1.2082
 5639TIP3   OH238551   4.492   2.597   1.246 -0.1156  0.3817  0.0250
 5639TIP3    H138552   4.456   2.670   1.296  0.0413  0.4264  0.0736
 5639TIP3    H238553   4.549   2.638   1.181 -0.2831  0.3222 -0.1625
 5640TIP3   OH238554   2.581   6.667   8.281  0.1581 -0.0477  0.1500
 5640TIP3    H138555   2.542   6.721   8.350 -0.7176 -0.7964  0.2457
 5640TIP3    H238556   2.513   6.604   8.257  0.9362 -0.6919 -0.4281
 5641TIP3   OH238557   6.793   0.579   7.079  0.1382 -0.7161 -0.1850
 5641TIP3    H138558   6.758   0.515   7.142 -0.0485 -0.9668 -0.5384
 5641TIP3    H238559   6.767   0.545   6.994  1.9258 -1.3483 -0.5315
 5642TIP3   OH238560   5.110   6.643   8.022 -0.0069  0.2700 -0.0760
 5642TIP3    H138561   5.105   6.552   7.993  0.4449 -0.0324  0.7419
 5642TIP3    H238562   5.032   6.654   8.076 -0.7670  0.7847 -1.2500
 5643TIP3   OH238563   1.226   5.844   7.526 -0.3794  0.6170  0.2296
 5643TIP3    H138564   1.152   5.868   7.471 -0.2007  0.8980  0.1064
 5643TIP3    H238565   1.191   5.841   7.615 -0.1435  2.6406  0.4365
 5644TIP3   OH238566   4.013   0.133   7.932 -0.3577 -0.0324 -0.5059
 5644TIP3    H138567   4.101   0.170   7.943 -0.9552  1.4817 -0.5152
 5644TIP3    H238568   3.963   0.203   7.889 -2.1501 -0.0031  1.4876
 5645TIP3   OH238569   0.717   6.730   2.084 -0.3603 -0.1719 -0.3608
 5645TIP3    H138570   0.687   6.816   2.114 -2.3034 -1.1496  0.7191
 5645TIP3    H238571   0.646   6.698   2.028  0.4156 -1.0159 -0.8963
 5646TIP3   OH238572   3.490   3.477   8.394 -0.2324 -0.3633  0.2215
 5646TIP3    H138573   3.573   3.523   8.407 -0.1860 -0.1957 -0.5585
 5646TIP3    H238574   3.423   3.543   8.413 -0.1659  0.0713 -0.9357
 5647TIP3   OH238575   6.115   1.390   1.490 -0.5595  0.1598  0.0024
 5647TIP3    H138576   6.183   1.323   1.492 -0.7203  0.0058  0.3867
 5647TIP3    H238577   6.093   1.405   1.582 -0.8234  0.4355 -0.1030
 5648TIP3   OH238578   2.388   4.265   1.065 -0.0003 -0.7259  0.1379
 5648TIP3    H138579   2.302   4.246   1.103  0.4334 -0.3695  1.3600
 5648TIP3    H238580   2.443   4.288   1.141  1.2559 -1.2572 -0.5835
 5649TIP3   OH238581   0.165   6.806   8.467 -0.3388  0.2717  0.2922
 5649TIP3    H138582   0.141   6.770   8.382  0.0426 -0.0112  0.3045
 5649TIP3    H238583   0.088   6.793   8.522  0.2313 -1.7640  0.6953
 5650TIP3   OH238584   4.061   3.628   8.465 -0.1385 -0.1310 -0.2991
 5650TIP3    H138585   4.096   3.592   8.546  0.6935 -2.2409 -1.4995
 5650TIP3    H238586   4.018   3.710   8.491  0.9939 -0.2055  2.0694
 5651TIP3   OH238587   0.756   6.461   0.075  0.3856  0.0005  0.2168
 5651TIP3    H138588   0.713   6.422  -0.001  0.3947 -0.3352  0.3848
 5651TIP3    H238589   0.792   6.543   0.042 -0.7731  0.5198  0.1775
 5652TIP3   OH238590   6.456   3.207   7.625 -0.4146  0.6672  0.0685
 5652TIP3    H138591   6.407   3.205   7.707 -0.7793 -0.7668 -0.1620
 5652TIP3    H238592   6.542   3.171   7.648 -0.8143 -0.5982 -0.3359
 5653TIP3   OH238593   3.268   0.902   1.930 -0.8437  0.0492 -0.1225
 5653TIP3    H138594   3.266   0.954   2.011 -0.4715 -0.2936  0.1098
 5653TIP3    H238595   3.331   0.946   1.874 -0.7028 -0.0170 -0.0164
 5654TIP3   OH238596   4.123   1.206   0.963 -0.4485 -0.3318 -0.5684
 5654TIP3    H138597   4.095   1.296   0.949 -3.0128 -1.1880 -1.4802
 5654TIP3    H238598   4.045   1.153   0.946  0.6191 -2.6619  1.2047
 5655TIP3   OH238599   1.402   0.087   0.100  0.3173 -0.1739 -0.5482
 5655TIP3    H138600   1.320   0.135   0.090 -0.1796 -0.7284  0.7304
 5655TIP3    H238601   1.378  -0.004   0.085  0.5894 -0.4003  0.3633
 5656TIP3   OH238602   0.239   0.909   8.582  0.0145  0.6185 -0.3977
 5656TIP3    H138603   0.191   0.846   8.528 -0.5384  0.6722  0.0304
 5656TIP3    H238604   0.315   0.933   8.528  0.1185 -0.2494 -0.6507
 5657TIP3   OH238605   6.370   5.247   7.463 -0.0147  0.0734 -1.0178
 5657TIP3    H138606   6.426   5.230   7.388  0.5224  0.9682 -0.8330
 5657TIP3    H238607   6.429   5.246   7.538 -0.0701  1.8556 -0.9059
 5658TIP3   OH238608   5.000   1.641   7.538 -0.2111  0.4982  0.6056
 5658TIP3    H138609   4.991   1.697   7.461  0.9751 -1.1624 -0.8068
 5658TIP3    H238610   5.091   1.613   7.536 -0.6952 -1.2389  1.4336
 5659TIP3   OH238611   3.981   0.756   0.290  0.0084  0.4774  0.5287
 5659TIP3    H138612   3.908   0.808   0.320  0.4277  1.1235  0.4513
 5659TIP3    H238613   4.036   0.743   0.367 -0.5470 -0.6307  0.7528
 5660TIP3   OH238614   2.601   3.746   1.618  0.1277 -0.0712 -0.2732
 5660TIP3    H138615   2.693   3.755   1.594  1.3889  0.4763  3.9821
 5660TIP3    H238616   2.573   3.664   1.577  2.6804 -0.6230 -1.0996
 5661TIP3   OH238617   3.349   6.310   7.812  0.2607  0.3661  0.3313
 5661TIP3    H138618   3.328   6.393   7.856 -0.2463 -0.0656  0.9319
 5661TIP3    H238619   3.353   6.246   7.883 -0.1165 -0.2642 -0.2026
 5662TIP3   OH238620   3.530   5.488   1.679 -0.1708  0.2103  0.2166
 5662TIP3    H138621   3.562   5.575   1.655  0.9511  0.4709  2.3496
 5662TIP3    H238622   3.524   5.491   1.775  0.7019 -2.3128  0.4220
 5663TIP3   OH238623   3.757   4.101   8.124 -0.2847  0.0461 -0.1103
 5663TIP3    H138624   3.780   4.150   8.203  0.6450  0.1739 -0.4526
 5663TIP3    H238625   3.790   4.013   8.140 -1.8702 -0.4937  0.4645
 5664TIP3   OH238626   2.540   6.030   1.064 -0.3376 -0.4955 -0.3083
 5664TIP3    H138627   2.457   6.026   1.017 -0.9029 -0.8851  0.7080
 5664TIP3    H238628   2.527   6.097   1.131  0.9481  1.1165 -1.5803
 5665TIP3   OH238629   4.339   1.331   8.106  0.3150 -0.3237 -0.0746
 5665TIP3    H138630   4.417   1.362   8.153  0.1513  0.2382 -0.1668
 5665TIP3    H238631   4.324   1.397   8.038 -0.4607 -0.2234  0.1802
 5666TIP3   OH238632   2.187   6.799   6.600  0.9888 -0.0853 -0.2384
 5666TIP3    H138633   2.167   6.784   6.508 -1.3277 -0.6362  0.2871
 5666TIP3    H238634   2.179   6.893   6.612 -0.5616 -0.1932 -0.2559
 5667TIP3   OH238635   5.273   1.200   1.713  0.1295 -0.6134  0.1093
 5667TIP3    H138636   5.298   1.110   1.695  1.0501 -0.7832  1.9826
 5667TIP3    H238637   5.261   1.203   1.808  0.9119  1.4286  0.1914
 5668TIP3   OH238638   4.795   1.552   1.979  0.1076 -0.3387 -0.4700
 5668TIP3    H138639   4.832   1.639   1.962  0.9182 -0.7869 -1.0424
 5668TIP3    H238640   4.853   1.492   1.933 -1.1768 -1.0948 -1.1603
 5669TIP3   OH238641   4.481   3.894   1.685 -0.3333 -0.2181  0.9889
 5669TIP3    H138642   4.479   3.988   1.667 -0.3961 -0.4458 -0.2835
 5669TIP3    H238643   4.426   3.883   1.763  0.5175  0.9157  1.7803
 5670TIP3   OH238644   5.284   0.910   1.616 -0.7803  0.1249 -0.0392
 5670TIP3    H138645   5.226   0.834   1.613 -0.0419 -0.4316 -0.7352
 5670TIP3    H238646   5.359   0.880   1.668 -0.1947  0.1529 -0.8474
 5671TIP3   OH238647   4.106   2.141   8.184  0.0236 -0.0654 -0.3250
 5671TIP3    H138648   4.052   2.220   8.179  1.8877  1.2748 -0.3236
 5671TIP3    H238649   4.077   2.087   8.110 -1.1937  0.6600 -0.3986
 5672TIP3   OH238650   5.558   6.478   0.877 -0.1684 -0.1949  0.8450
 5672TIP3    H138651   5.535   6.562   0.918 -0.0319 -0.0821  0.6918
 5672TIP3    H238652   5.503   6.414   0.922 -1.2148  0.1486  0.0987
 5673TIP3   OH238653   3.636   4.653   8.565  0.2113  0.4854 -0.4497
 5673TIP3    H138654   3.550   4.643   8.525 -0.4976  0.0621  1.1017
 5673TIP3    H238655   3.643   4.580   8.626  1.4420  0.8318 -0.1461
 5674TIP3   OH238656   5.541   1.393   7.359 -0.0900  0.0579  0.4700
 5674TIP3    H138657   5.561   1.352   7.275  0.4003  1.1061  0.0602
 5674TIP3    H238658   5.492   1.326   7.407  0.5862 -0.9543 -0.2159
 5675TIP3   OH238659   5.558   4.728   8.159 -0.0127 -0.3219 -0.2706
 5675TIP3    H138660   5.563   4.800   8.095  1.2395  0.5668  0.7823
 5675TIP3    H238661   5.475   4.684   8.139  0.6428 -0.5459 -2.9828
 5676TIP3   OH238662   4.887   0.824   7.496  0.2586 -0.1070  1.1131
 5676TIP3    H138663   4.802   0.863   7.515  0.7389  1.3548  0.4585
 5676TIP3    H238664   4.900   0.841   7.403  1.2513 -0.3263  1.2044
 5677TIP3   OH238665   0.420   5.835   0.286  0.4736  0.0653  0.4466
 5677TIP3    H138666   0.328   5.855   0.265  0.2372  0.2846  1.5971
 5677TIP3    H238667   0.465   5.837   0.202 -0.0167  2.8919  0.1510
 5678TIP3   OH238668   6.814   1.920   7.636 -0.4360 -0.5273 -0.3941
 5678TIP3    H138669   6.835   1.960   7.552  1.1078 -1.0576 -0.2911
 5678TIP3    H238670   6.800   1.994   7.695 -0.3490 -0.1546 -0.8328
 5679TIP3   OH238671   5.287   1.294   7.095 -0.1635 -0.1761  0.0124
 5679TIP3    H138672   5.247   1.222   7.143 -1.8582  0.7681  0.1098
 5679TIP3    H238673   5.321   1.352   7.163  0.4317 -0.4576 -0.0410
 5680TIP3   OH238674   2.617   4.267   1.799  0.2732 -0.0909  0.0932
 5680TIP3    H138675   2.708   4.280   1.771  0.2496  0.3562  0.2219
 5680TIP3    H238676   2.600   4.174   1.782 -0.2131  0.4360 -2.8057
 5681TIP3   OH238677   5.320   1.485   2.645  0.3472 -0.2327 -0.4960
 5681TIP3    H138678   5.366   1.413   2.601  1.5849 -0.5669  1.2286
 5681TIP3    H238679   5.374   1.562   2.628  0.9831 -0.4173  0.6330
 5682TIP3   OH238680   2.339   0.968   6.839  0.2302 -0.5706  1.0190
 5682TIP3    H138681   2.249   0.945   6.816  0.2436 -1.2905  1.6520
 5682TIP3    H238682   2.361   1.040   6.780  0.2586 -2.2906 -1.1774
 5683TIP3   OH238683   4.580   3.880   1.351  0.5204  0.0939  0.4824
 5683TIP3    H138684   4.637   3.824   1.299 -0.3905  0.1852 -0.6344
 5683TIP3    H238685   4.626   3.889   1.435  1.4068 -1.0728  0.1494
 5684TIP3   OH238686   5.586   4.857   8.427 -0.0969  0.1556  0.0570
 5684TIP3    H138687   5.639   4.816   8.495 -0.7220  0.4224  0.7114
 5684TIP3    H238688   5.643   4.856   8.349  0.7220  0.0920  0.6418
 5685TIP3   OH238689   0.995   5.346   0.163  0.1784  0.1820 -0.2327
 5685TIP3    H138690   0.957   5.410   0.224  0.8887  1.1553 -0.7706
 5685TIP3    H238691   1.042   5.400   0.099  0.4354 -0.8774 -0.9544
 5686TIP3   OH238692   5.993   0.365   7.273  0.2678  0.0206  0.1666
 5686TIP3    H138693   6.068   0.310   7.251 -0.7140 -0.8178 -1.1906
 5686TIP3    H238694   5.929   0.349   7.204 -0.3192  2.4012  0.0631
 5687TIP3   OH238695   2.773   1.383   0.783  0.2734  0.5191  0.5714
 5687TIP3    H138696   2.809   1.342   0.862  0.6302  2.0133  1.2206
 5687TIP3    H238697   2.847   1.390   0.723  0.6317  1.7090  1.1156
 5688TIP3   OH238698   1.853   0.505   1.847 -0.6498 -0.3748  0.0197
 5688TIP3    H138699   1.800   0.524   1.924  1.8262  0.1556  1.6813
 5688TIP3    H238700   1.874   0.591   1.810 -0.9857 -0.5815 -0.6752
 5689TIP3   OH238701   5.494   1.442   1.004  0.0382  0.7177  0.3270
 5689TIP3    H138702   5.580   1.465   0.969 -0.2037  1.8212  0.4388
 5689TIP3    H238703   5.480   1.503   1.076 -1.8881  2.2535 -1.2444
 5690TIP3   OH238704   4.510   0.143   8.448 -0.8875  0.0005 -0.3460
 5690TIP3    H138705   4.467   0.119   8.530  0.3978  1.7475  0.9263
 5690TIP3    H238706   4.581   0.080   8.438 -0.0456  0.7337  0.7926
 5691TIP3   OH238707   4.887   3.806   0.705  0.2485  0.4969  0.6309
 5691TIP3    H138708   4.975   3.770   0.712  0.0360  0.0703  1.2721
 5691TIP3    H238709   4.873   3.850   0.789 -1.1343 -1.7590  1.6907
 5692TIP3   OH238710   5.875   0.806   1.806  0.0064  0.5179 -0.2814
 5692TIP3    H138711   5.952   0.782   1.755 -0.8834  1.5640 -2.2692
 5692TIP3    H238712   5.875   0.902   1.805  0.7328  0.6564  3.0425
 5693TIP3   OH238713   1.142   1.109   1.747  0.2003 -0.6572  0.7340
 5693TIP3    H138714   1.099   1.179   1.699 -0.0705 -0.6487  0.9883
 5693TIP3    H238715   1.229   1.143   1.767 -0.0253 -0.2857  1.0922
 5694TIP3   OH238716   2.461   0.238   8.475  0.1940  0.0373 -0.3999
 5694TIP3    H138717   2.368   0.252   8.456 -0.8210 -1.9685  2.2891
 5694TIP3    H238718   2.495   0.325   8.496 -1.4513  0.6377 -0.0619
 5695TIP3   OH238719   1.062   2.869   7.683 -0.2886 -0.1957 -0.4438
 5695TIP3    H138720   1.093   2.894   7.596  0.1136  1.0204  0.0275
 5695TIP3    H238721   1.061   2.773   7.681  1.4149 -0.2354 -1.2058
 5696TIP3   OH238722   1.569   4.484   1.474 -0.2679 -0.0782  0.2291
 5696TIP3    H138723   1.658   4.468   1.503 -0.0877  0.4712 -0.0127
 5696TIP3    H238724   1.550   4.574   1.500 -1.0692 -0.4807  1.0656
 5697TIP3   OH238725   6.845   5.127   8.642 -0.3934 -0.1020  0.3558
 5697TIP3    H138726   6.763   5.154   8.682  0.4702  2.3074  0.6894
 5697TIP3    H238727   6.844   5.168   8.555  1.1073  1.4056  0.9907
 5698TIP3   OH238728   6.411   0.878   8.024  0.2299  0.3851 -0.1031
 5698TIP3    H138729   6.486   0.852   8.078 -0.6847 -2.0519  0.1145
 5698TIP3    H238730   6.415   0.820   7.948  0.1922  2.2322 -1.6075
 5699TIP3   OH238731   6.128   4.523   0.707  0.0691 -0.2811  0.2490
 5699TIP3    H138732   6.086   4.464   0.769  1.8502 -0.8061  1.0315
 5699TIP3    H238733   6.178   4.466   0.649  3.1707  0.4067  2.0435
 5700TIP3   OH238734   3.945   3.685   1.344  0.7736  0.1913 -0.2173
 5700TIP3    H138735   4.031   3.704   1.382  0.3688  1.5734  0.0520
 5700TIP3    H238736   3.882   3.721   1.408 -0.0559 -1.7321  0.1195
 5701TIP3   OH238737   2.969   1.632   2.826  0.2113 -0.4402 -0.2552
 5701TIP3    H138738   2.962   1.696   2.755 -2.1517 -0.0549  0.2546
 5701TIP3    H238739   3.062   1.634   2.851  0.3656  2.2807 -0.7445
 5702TIP3   OH238740   5.921   2.543   2.241  0.1472 -0.2019  0.7613
 5702TIP3    H138741   5.905   2.530   2.335  1.2285  0.1442  1.0152
 5702TIP3    H238742   5.842   2.512   2.198 -0.4424 -0.1792  1.8057
 5703TIP3   OH238743   0.255   3.406   1.447 -0.0452  0.1904  0.3757
 5703TIP3    H138744   0.280   3.499   1.444  1.1775  0.1189  3.6794
 5703TIP3    H238745   0.338   3.359   1.438 -0.0500 -0.3686  2.6710
 5704TIP3   OH238746   2.633   1.592   8.603  0.0465  0.0326  0.2785
 5704TIP3    H138747   2.672   1.514   8.563  0.3711  1.6732 -2.9004
 5704TIP3    H238748   2.542   1.566   8.623  0.0127 -1.0461 -1.1405
 5705TIP3   OH238749   3.194   0.225   1.396 -0.2929 -0.1588 -0.0133
 5705TIP3    H138750   3.119   0.166   1.403 -0.9044  0.5383 -0.5305
 5705TIP3    H238751   3.178   0.293   1.461 -0.1815  0.0710 -0.2228
 5706TIP3   OH238752   2.194   1.406   0.236 -0.2726 -0.1737 -0.2536
 5706TIP3    H138753   2.099   1.408   0.234 -0.2720 -0.3900 -1.9297
 5706TIP3    H238754   2.220   1.489   0.275 -1.1376 -0.2487  0.5103
 5707TIP3   OH238755   6.261   2.152   2.211 -0.8501  0.3371 -0.0603
 5707TIP3    H138756   6.242   2.076   2.266 -2.3593  1.5219  1.1561
 5707TIP3    H238757   6.324   2.203   2.262  1.9309 -1.0999 -1.8583
 5708TIP3   OH238758   4.714   0.649   6.989  0.5406 -0.2624  0.0202
 5708TIP3    H138759   4.644   0.585   6.984 -0.1822  0.6032 -2.0372
 5708TIP3    H238760   4.669   0.734   6.991  1.4802  0.3138 -1.5532
 5709TIP3   OH238761   0.509   1.658   2.211  0.5358 -0.1260 -0.1690
 5709TIP3    H138762   0.490   1.599   2.138 -3.8178  0.0737  0.5118
 5709TIP3    H238763   0.512   1.601   2.288 -2.1995  0.2024  0.2925
 5710TIP3   OH238764   5.364   5.968   1.519  0.0285 -0.0291 -0.2522
 5710TIP3    H138765   5.424   6.043   1.521 -0.4211  0.3304  0.1362
 5710TIP3    H238766   5.366   5.937   1.429 -0.7836  1.2827 -0.7516
 5711TIP3   OH238767   6.360   0.650   8.289 -0.6027 -0.0295 -0.3812
 5711TIP3    H138768   6.347   0.639   8.195  1.4637 -1.5182 -0.5617
 5711TIP3    H238769   6.274   0.634   8.327 -0.9459 -2.1256 -1.8661
 5712TIP3   OH238770   3.469   5.020   0.244  0.0995 -0.0813  0.1617
 5712TIP3    H138771   3.492   4.984   0.159 -1.4015  0.3337 -0.4371
 5712TIP3    H238772   3.521   5.100   0.251 -1.6665  1.2957 -1.5368
 5713TIP3   OH238773   2.512   5.484   0.089  0.0688 -0.0217  0.3172
 5713TIP3    H138774   2.593   5.476   0.038 -0.6462 -0.2439 -0.8246
 5713TIP3    H238775   2.504   5.402   0.137  0.9660  0.3544  1.1436
 5714TIP3   OH238776   1.838   5.936   7.850  0.1483  0.1532 -0.0123
 5714TIP3    H138777   1.829   5.869   7.782 -1.5421  0.4387 -0.1138
 5714TIP3    H238778   1.914   5.988   7.823  1.6788 -1.8231  0.2054
 5715TIP3   OH238779   0.511   3.674   7.844 -0.1165 -0.8484 -0.1404
 5715TIP3    H138780   0.534   3.703   7.932  0.3160  0.0155 -0.5276
 5715TIP3    H238781   0.479   3.753   7.800 -2.7014 -1.7422 -0.0270
 5716TIP3   OH238782   0.606   5.427   0.113  0.2860  0.2504  0.0570
 5716TIP3    H138783   0.623   5.369   0.187 -0.7570  0.3476  0.3909
 5716TIP3    H238784   0.564   5.370   0.048 -1.1104  0.6832  0.5411
 5717TIP3   OH238785   5.081   6.010   8.426 -0.6001  0.2130 -0.4995
 5717TIP3    H138786   5.002   5.964   8.400  0.5586 -1.5694 -1.0581
 5717TIP3    H238787   5.079   6.011   8.522 -0.1372 -2.0555 -0.4241
 5718TIP3   OH238788   5.776   1.007   6.627  0.1604 -0.0623  0.4591
 5718TIP3    H138789   5.871   1.013   6.617  0.1031 -0.4023 -0.3658
 5718TIP3    H238790   5.751   0.932   6.573 -0.7016  0.7166 -0.2540
 5719TIP3   OH238791   2.179   2.376   0.502 -0.4287 -0.1142  0.4772
 5719TIP3    H138792   2.176   2.381   0.407 -1.3810 -0.8265  0.4575
 5719TIP3    H238793   2.111   2.312   0.525 -1.3840  1.2867  1.7328
 5720TIP3   OH238794   1.072   6.036   2.476 -0.1061 -0.0437 -0.8054
 5720TIP3    H138795   1.084   6.004   2.386  0.1371 -1.8754 -0.1569
 5720TIP3    H238796   1.119   5.973   2.530  2.0803  2.4646  0.4598
 5721TIP3   OH238797   4.749   2.922   7.682 -0.2184 -0.6433  0.1129
 5721TIP3    H138798   4.665   2.905   7.725 -0.3223 -1.1876 -0.3015
 5721TIP3    H238799   4.768   3.013   7.703  0.5199 -1.2936  2.7242
 5722TIP3   OH238800   6.184   1.292   0.503  0.2659 -0.0657  0.5025
 5722TIP3    H138801   6.213   1.204   0.528  0.1157 -0.2972 -0.1173
 5722TIP3    H238802   6.100   1.278   0.459  0.2140  0.3934  0.4503
 5723TIP3   OH238803   5.549   2.545   6.951  0.5936  0.2399 -0.1955
 5723TIP3    H138804   5.472   2.594   6.980  0.1685 -0.0316 -0.8519
 5723TIP3    H238805   5.620   2.578   7.006 -0.2302 -0.4141  1.3083
 5724TIP3   OH238806   2.982   3.829   0.795  0.1148 -0.1453  0.2367
 5724TIP3    H138807   2.960   3.753   0.849 -3.1708 -0.3854 -1.2353
 5724TIP3    H238808   2.911   3.891   0.809  0.6177  0.9555 -1.6401
 5725TIP3   OH238809   2.496   2.559   1.823  0.4907 -0.3994 -0.0657
 5725TIP3    H138810   2.435   2.510   1.768  0.5828 -0.8197  0.2017
 5725TIP3    H238811   2.439   2.609   1.882  0.3839 -1.6658  0.9547
 5726TIP3   OH238812   4.695   3.495   0.523  0.2289  0.4011 -0.0904
 5726TIP3    H138813   4.653   3.415   0.553  0.4348  0.4094  0.2319
 5726TIP3    H238814   4.698   3.551   0.601 -0.6743  1.0554 -0.5131
 5727TIP3   OH238815   2.726   0.461   2.167 -0.4498 -0.3688 -0.1700
 5727TIP3    H138816   2.752   0.550   2.192  1.0334 -0.6466 -0.6624
 5727TIP3    H238817   2.743   0.409   2.246 -1.3427 -0.2268  0.1267
 5728TIP3   OH238818   4.222   4.844   8.625 -0.2743  0.2667 -0.4536
 5728TIP3    H138819   4.168   4.893   8.563 -0.7175 -0.4925 -0.6822
 5728TIP3    H238820   4.285   4.908   8.659  0.2988  0.5989 -2.0567
 5729TIP3   OH238821   6.288   3.852   1.290 -0.3817  0.0893  0.0178
 5729TIP3    H138822   6.222   3.833   1.357  1.2929  0.8636  1.9897
 5729TIP3    H238823   6.297   3.771   1.241  0.0721 -1.3272  2.3145
 5730TIP3   OH238824   3.225   3.381   0.098 -0.2839  0.1928 -0.0456
 5730TIP3    H138825   3.137   3.365   0.132  0.1845 -0.1884  1.0161
 5730TIP3    H238826   3.270   3.427   0.169  1.1999 -1.9897  0.5222
 5731TIP3   OH238827   6.586   0.236   1.833  0.1296 -0.2664  0.1023
 5731TIP3    H138828   6.565   0.309   1.775 -1.9601 -0.2542  0.8086
 5731TIP3    H238829   6.670   0.204   1.801 -0.1576  0.7935 -1.8729
 5732TIP3   OH238830   4.207   0.364   1.371 -0.2689  0.0617  0.0959
 5732TIP3    H138831   4.242   0.452   1.389  0.5384  0.0712 -1.3792
 5732TIP3    H238832   4.121   0.381   1.332 -0.4028  0.1667  0.4305
 5733TIP3   OH238833   2.810   0.188   7.391  0.3739  0.9528 -0.4581
 5733TIP3    H138834   2.752   0.156   7.322 -0.4523  4.7885 -1.8149
 5733TIP3    H238835   2.766   0.164   7.473 -0.6064 -0.3712 -1.3358
 5734TIP3   OH238836   4.610   6.696   1.973 -0.2398  0.2492  0.7938
 5734TIP3    H138837   4.658   6.620   2.005 -1.8923 -1.0899  0.2792
 5734TIP3    H238838   4.518   6.671   1.982 -0.8078  1.5531 -0.8776
 5735TIP3   OH238839   6.147   2.204   8.145  0.0757  0.1692  0.3518
 5735TIP3    H138840   6.173   2.243   8.062  0.8990  0.1935  0.6067
 5735TIP3    H238841   6.053   2.190   8.137  0.2184 -0.2733 -0.7689
 5736TIP3   OH238842   4.101   4.498   7.068 -0.0279  0.9414  0.5298
 5736TIP3    H138843   4.170   4.529   7.126  0.7462  0.0065  0.1388
 5736TIP3    H238844   4.048   4.575   7.049  1.3667  1.8528  0.2288
 5737TIP3   OH238845   1.678   5.949   2.639  0.2331  0.2439 -0.4477
 5737TIP3    H138846   1.759   5.996   2.620  0.4376 -0.0399 -0.2756
 5737TIP3    H238847   1.608   6.011   2.617  0.5125  1.0716  0.8981
 5738TIP3   OH238848   0.587   4.513   7.547 -0.4247 -0.3140 -0.7723
 5738TIP3    H138849   0.639   4.518   7.467  0.6042  0.7077 -0.0634
 5738TIP3    H238850   0.601   4.597   7.590 -2.2243 -0.2270 -0.2648
 5739TIP3   OH238851   6.351   2.112   1.903  0.2589  0.6684  0.4682
 5739TIP3    H138852   6.300   2.096   1.982 -1.4166 -1.6832 -0.9772
 5739TIP3    H238853   6.406   2.034   1.892 -0.6110  0.2495 -1.4024
 5740TIP3   OH238854   2.891   5.179   7.760 -0.1067 -0.3926  0.7110
 5740TIP3    H138855   2.816   5.238   7.750 -0.8184 -1.1463  1.4353
 5740TIP3    H238856   2.855   5.103   7.806  0.3305 -2.2903 -1.8902
 5741TIP3   OH238857   2.967   6.022   1.551  0.3362 -0.5322  0.8744
 5741TIP3    H138858   3.023   6.049   1.624  1.1695  1.8842 -0.5544
 5741TIP3    H238859   2.960   5.927   1.560  3.7339 -0.8220  1.8199
 5742TIP3   OH238860   0.269   5.382   7.218 -0.1941  0.9515  0.0498
 5742TIP3    H138861   0.353   5.342   7.241 -1.6219 -2.2515  0.2366
 5742TIP3    H238862   0.226   5.395   7.303 -0.6659  0.6004 -0.1291
 5743TIP3   OH238863   3.787   1.545   0.320 -0.1649  0.3037 -0.0814
 5743TIP3    H138864   3.724   1.597   0.270 -1.1107  1.2747  2.0157
 5743TIP3    H238865   3.769   1.455   0.294  0.0588  0.8047 -2.1865
 5744TIP3   OH238866   2.016   2.005   3.003  0.5989  0.9842 -0.0196
 5744TIP3    H138867   1.990   2.078   3.058 -1.6144  0.0134  0.3312
 5744TIP3    H238868   2.099   2.033   2.964  0.2851  3.2740  0.7891
 5745TIP3   OH238869   2.164   6.492   0.795  0.1636 -0.1763  0.0313
 5745TIP3    H138870   2.190   6.527   0.881  0.1022  1.9216 -0.7445
 5745TIP3    H238871   2.179   6.564   0.734 -1.9377 -0.8340 -1.3789
 5746TIP3   OH238872   6.239   3.237   0.192  0.1681 -0.1863  0.1510
 5746TIP3    H138873   6.149   3.260   0.217  0.6345  2.4116 -0.2116
 5746TIP3    H238874   6.246   3.264   0.100  0.7448 -2.3615 -0.5096
 5747TIP3   OH238875   6.441   0.147   0.568  0.2443  0.2251 -0.4051
 5747TIP3    H138876   6.374   0.081   0.584  0.9981 -0.5684 -0.3930
 5747TIP3    H238877   6.420   0.219   0.627 -0.2359 -0.2742  0.0393
 5748TIP3   OH238878   5.788   4.691   8.589 -0.0583 -0.2677 -0.1935
 5748TIP3    H138879   5.854   4.719   8.653  0.4201 -2.0437  0.1377
 5748TIP3    H238880   5.748   4.613   8.628 -2.0571  0.4727 -0.6082
 5749TIP3   OH238881   1.926   0.500   8.473  0.4693 -0.1794 -0.2199
 5749TIP3    H138882   1.924   0.426   8.533 -1.7089  0.9240  1.2342
 5749TIP3    H238883   1.853   0.486   8.414 -0.4147  1.0662  0.5097
 5750TIP3   OH238884   6.522   2.308   6.741  0.3294 -0.0229  0.2699
 5750TIP3    H138885   6.510   2.319   6.647 -1.0070  0.3657  0.4696
 5750TIP3    H238886   6.502   2.394   6.778  2.5908  0.3561  0.7952
 5751TIP3   OH238887   5.101   2.280   1.066  0.6214 -0.5021  0.3456
 5751TIP3    H138888   5.034   2.349   1.068 -0.8142 -1.8489  1.1339
 5751TIP3    H238889   5.179   2.324   1.033 -0.4114  1.3430  0.1890
 5752TIP3   OH238890   5.566   4.868   0.940  0.2145  0.4435 -0.5144
 5752TIP3    H138891   5.630   4.810   0.981  0.6184  1.1610 -0.1099
 5752TIP3    H238892   5.590   4.955   0.971 -1.2283  0.6808 -0.0076
 5753TIP3   OH238893   4.782   3.954   2.952  0.6175  0.2957 -0.8179
 5753TIP3    H138894   4.726   3.931   2.878 -0.6515  0.0909  0.1642
 5753TIP3    H238895   4.731   4.019   3.001 -0.1574 -2.0463  1.7100
 5754TIP3   OH238896   4.119   6.751   7.699 -0.1041  0.0351 -0.7257
 5754TIP3    H138897   4.048   6.812   7.721 -1.8569 -2.4440  1.0192
 5754TIP3    H238898   4.080   6.690   7.636  0.8579 -0.6201 -0.7063
 5755TIP3   OH238899   2.194   3.064   2.528  0.1196 -0.1923  0.0774
 5755TIP3    H138900   2.228   3.126   2.592  0.5244 -1.9214  1.6343
 5755TIP3    H238901   2.100   3.081   2.524  0.3809  1.2371 -0.3868
 5756TIP3   OH238902   1.413   4.488   8.361  0.8081 -0.0131  0.4828
 5756TIP3    H138903   1.392   4.409   8.311  1.8396 -0.1717  0.2814
 5756TIP3    H238904   1.430   4.458   8.450  1.0125  0.0100  0.4513
 5757TIP3   OH238905   3.381   5.318   1.527 -0.2994  0.6247 -0.5268
 5757TIP3    H138906   3.450   5.270   1.573 -1.1848  2.1417  2.6784
 5757TIP3    H238907   3.413   5.409   1.526 -1.5178  1.0652 -0.4860
 5758TIP3   OH238908   3.859   5.659   0.419 -0.0649  0.2422  0.6007
 5758TIP3    H138909   3.798   5.706   0.362 -1.7319  0.1708  2.2317
 5758TIP3    H238910   3.804   5.597   0.467  1.7176 -1.7685  0.2065
 5759TIP3   OH238911   0.632   5.623   2.127 -0.0131  0.4691 -0.3317
 5759TIP3    H138912   0.538   5.615   2.139 -0.1517 -0.2768 -1.7183
 5759TIP3    H238913   0.670   5.565   2.193 -0.6014 -0.7773 -1.0629
 5760TIP3   OH238914   3.496   3.032   7.817  0.5020  0.1938  0.5836
 5760TIP3    H138915   3.534   2.951   7.850  0.5527  0.0113  0.0891
 5760TIP3    H238916   3.468   3.011   7.728 -0.0194  0.5556  0.6585
 5761TIP3   OH238917   4.015   5.819   0.115  0.0396  0.3014 -0.1360
 5761TIP3    H138918   3.934   5.861   0.141  0.4004  0.7010  0.3416
 5761TIP3    H238919   3.987   5.735   0.079 -0.6864  0.9347 -1.1101
 5762TIP3   OH238920   0.296   0.026   7.972 -0.7065 -0.2435 -0.0391
 5762TIP3    H138921   0.391   0.041   7.969 -0.9542  1.5281 -0.4340
 5762TIP3    H238922   0.286  -0.069   7.978  1.0707 -0.5483 -1.3272
 5763TIP3   OH238923   6.480   0.856   2.005 -0.2123 -0.1453  0.3219
 5763TIP3    H138924   6.475   0.808   2.088  0.3002 -1.4693 -0.3785
 5763TIP3    H238925   6.406   0.823   1.954 -0.4236  0.5384  0.1798
 5764TIP3   OH238926   6.891   4.728   1.250  0.9423  0.0023 -0.0262
 5764TIP3    H138927   6.843   4.657   1.208 -1.1315  1.4407 -0.2644
 5764TIP3    H238928   6.847   4.808   1.220  3.5781  1.4817 -0.2991
 5765TIP3   OH238929   4.338   1.076   0.056  0.1561  0.0801 -0.7057
 5765TIP3    H138930   4.263   1.019   0.073  0.5022 -0.5271 -1.1756
 5765TIP3    H238931   4.319   1.156   0.106  0.2103 -0.8764  0.8936
 5766TIP3   OH238932   5.213   6.383   8.468  0.2970 -0.0703  0.5992
 5766TIP3    H138933   5.121   6.375   8.493  0.1737 -1.7050 -0.2747
 5766TIP3    H238934   5.260   6.332   8.534  0.5575  0.4040  0.7917
 5767TIP3   OH238935   6.853   4.868   0.352 -0.0795 -0.4651 -0.5552
 5767TIP3    H138936   6.944   4.882   0.377 -0.1152  1.4016 -1.3291
 5767TIP3    H238937   6.852   4.885   0.258 -1.5383  1.3689 -0.2528
 5768TIP3   OH238938   3.327   5.328   7.289 -0.0321 -0.3301 -0.1583
 5768TIP3    H138939   3.422   5.329   7.282  0.0117 -0.7114  0.3489
 5768TIP3    H238940   3.304   5.235   7.292 -0.4621 -0.2535 -0.7814
 5769TIP3   OH238941   5.160   5.455   2.550  0.6798  0.3977 -0.3712
 5769TIP3    H138942   5.080   5.491   2.589  0.3253  0.1181 -0.8330
 5769TIP3    H238943   5.135   5.433   2.460  0.8297 -1.1744 -0.0610
 5770TIP3   OH238944   2.115   5.146   0.108 -0.1568 -0.5138  0.4049
 5770TIP3    H138945   2.197   5.102   0.131 -0.3634 -0.0045  2.2745
 5770TIP3    H238946   2.104   5.213   0.176 -1.0589  0.8435 -1.0184
 5771TIP3   OH238947   3.476   6.305   1.672 -0.0056  0.0776 -0.1163
 5771TIP3    H138948   3.510   6.296   1.761 -0.7679  0.8793  0.2638
 5771TIP3    H238949   3.425   6.225   1.658  2.6408 -1.5807 -1.0102
 5772TIP3   OH238950   5.845   0.536   8.411  0.1185 -0.0382 -0.0701
 5772TIP3    H138951   5.787   0.500   8.344 -0.6405 -0.6033  0.8610
 5772TIP3    H238952   5.791   0.540   8.490  1.1822 -0.0195  0.6836
 5773TIP3   OH238953   5.626   1.704   7.966  0.7435 -0.3886  0.3823
 5773TIP3    H138954   5.717   1.681   7.945  0.4321 -2.5535  1.1491
 5773TIP3    H238955   5.579   1.697   7.883  1.0152 -0.7192  0.2546
 5774TIP3   OH238956   2.903   4.881   7.928  0.2395  0.4811 -0.3717
 5774TIP3    H138957   2.852   4.955   7.961 -0.4900 -1.2533  2.8500
 5774TIP3    H238958   2.839   4.825   7.885 -0.0318 -0.1959  0.8749
 5775TIP3   OH238959   4.295   4.386   1.104 -0.4262 -0.5435  0.6925
 5775TIP3    H138960   4.352   4.403   1.028 -0.9066 -0.7351  0.2883
 5775TIP3    H238961   4.234   4.459   1.104 -0.0433 -0.2173  1.2647
 5776TIP3   OH238962   5.155   0.850   7.519  0.1355 -0.5518 -0.3145
 5776TIP3    H138963   5.183   0.813   7.436  1.5139 -0.4934  0.0950
 5776TIP3    H238964   5.069   0.811   7.535 -1.2411  1.2007 -2.8377
 5777TIP3   OH238965   2.660   6.764   1.513  0.0743  0.1335 -0.0042
 5777TIP3    H138966   2.599   6.695   1.537  0.9401 -1.5004 -2.1243
 5777TIP3    H238967   2.727   6.761   1.581  0.6338 -1.9023 -0.5707
 5778TIP3   OH238968   2.924   3.469   1.200  0.6040  0.6469 -0.2706
 5778TIP3    H138969   2.996   3.424   1.243 -0.0617  1.3599  1.7101
 5778TIP3    H238970   2.872   3.505   1.272 -1.1869  0.9819 -1.6581
 5779TIP3   OH238971   4.092   5.100   0.694 -0.0566 -0.4622 -0.1008
 5779TIP3    H138972   4.178   5.128   0.726  0.0271 -2.1934  1.3824
 5779TIP3    H238973   4.029   5.153   0.743  0.1375 -0.0223 -0.3225
 5780TIP3   OH238974   1.627   2.010   1.266  0.3449 -1.3279  0.0540
 5780TIP3    H138975   1.689   1.946   1.300 -0.2371 -1.5845  0.6328
 5780TIP3    H238976   1.556   2.013   1.330 -1.3275 -2.6324 -1.6164
 5781TIP3   OH238977   2.763   3.874   1.070  0.2761  0.1257 -0.2944
 5781TIP3    H138978   2.677   3.869   1.113  1.7206  0.3298  2.9274
 5781TIP3    H238979   2.780   3.784   1.040 -0.7331 -0.0724 -0.3057
 5782TIP3   OH238980   6.092   5.866   7.323  0.5093 -0.5478 -0.6844
 5782TIP3    H138981   6.013   5.898   7.281  1.2493  0.3492 -1.4190
 5782TIP3    H238982   6.060   5.806   7.391 -0.7905 -0.1767 -0.9418
 5783TIP3   OH238983   4.871   6.826   0.258  0.0936 -0.1123 -0.0681
 5783TIP3    H138984   4.896   6.892   0.193  0.0857  2.0337  2.0044
 5783TIP3    H238985   4.776   6.822   0.254  0.0729  0.2822  0.0727
 5784TIP3   OH238986   6.583   1.076   8.560  0.0408  0.0500  0.6755
 5784TIP3    H138987   6.581   0.987   8.525  0.3201  0.8532 -1.5383
 5784TIP3    H238988   6.616   1.129   8.488 -3.2363  2.4380  0.7252
 5785TIP3   OH238989   5.157   5.729   0.364 -0.4866 -0.3107 -0.4324
 5785TIP3    H138990   5.209   5.660   0.403 -2.7229 -1.7491  0.1970
 5785TIP3    H238991   5.067   5.696   0.367 -1.4159  1.8611 -1.8006
 5786TIP3   OH238992   0.563   3.875   8.014  0.0217  0.4867  0.9093
 5786TIP3    H138993   0.538   3.930   8.089  0.3339  1.6693  0.1761
 5786TIP3    H238994   0.657   3.892   8.002  0.0220  0.1435  0.3835
 5787TIP3   OH238995   1.255   3.448   8.495  0.3088 -0.1700  0.7776
 5787TIP3    H138996   1.237   3.464   8.587 -0.8968  0.0855  0.5187
 5787TIP3    H238997   1.168   3.442   8.454  0.8175 -0.4172 -0.3128
 5788TIP3   OH238998   6.768   4.432   1.748 -0.2448 -0.2220 -0.1187
 5788TIP3    H138999   6.716   4.509   1.728 -0.6567 -0.5332 -0.2521
 5788TIP3    H239000   6.808   4.451   1.833 -0.7939 -0.1006  0.1117
 5789TIP3   OH239001   1.565   5.807   1.317  0.8759 -0.0406 -0.6006
 5789TIP3    H139002   1.588   5.714   1.321  0.7252 -0.0805 -0.6495
 5789TIP3    H239003   1.649   5.852   1.311  1.0602 -0.0489  1.3879
 5790TIP3   OH239004   3.963   2.927   8.526  0.0941 -0.6831  0.2956
 5790TIP3    H139005   3.875   2.934   8.563  0.3131 -0.7625  0.8400
 5790TIP3    H239006   4.021   2.943   8.600  0.5497  0.8486 -0.3409
 5791TIP3   OH239007   2.566   3.239   7.736  0.3611 -0.3681  0.7544
 5791TIP3    H139008   2.496   3.175   7.752  0.6262 -0.5108  1.3593
 5791TIP3    H239009   2.640   3.187   7.705 -0.2260 -0.0717 -1.3005
 5792TIP3   OH239010   4.705   4.454   0.640 -0.2320  0.3137 -0.2903
 5792TIP3    H139011   4.647   4.527   0.664  0.9121  0.7488  1.2866
 5792TIP3    H239012   4.792   4.493   0.635  0.1190 -0.5610 -1.5143
 5793TIP3   OH239013   2.838   1.080   7.660 -0.8019  0.2421  0.0220
 5793TIP3    H139014   2.870   1.025   7.589 -0.5306  1.3218 -0.7156
 5793TIP3    H239015   2.787   1.020   7.715 -2.2287 -0.3480 -1.8444
 5794TIP3   OH239016   4.596   0.528   0.002 -0.3314  0.3344  0.1508
 5794TIP3    H139017   4.543   0.505  -0.075 -1.6799  0.4516  1.0179
 5794TIP3    H239018   4.590   0.451   0.058 -0.0594  0.5814  0.5169
 5795TIP3   OH239019   3.985   2.088   7.956 -0.0028 -0.7099 -0.4456
 5795TIP3    H139020   4.053   2.081   7.890 -1.2502 -0.5977 -1.8008
 5795TIP3    H239021   3.916   2.139   7.914  0.1948  1.6515  1.8648
 5796TIP3   OH239022   1.574   6.565   1.541 -0.2731 -0.2680  0.7603
 5796TIP3    H139023   1.498   6.611   1.506  0.5159 -1.3998 -2.9722
 5796TIP3    H239024   1.545   6.475   1.551  0.3972 -0.6433 -0.4031
 5797TIP3   OH239025   3.579   4.768   1.124 -0.4544 -0.1528 -0.4157
 5797TIP3    H139026   3.518   4.695   1.128 -0.5281 -0.0657  0.1265
 5797TIP3    H239027   3.634   4.759   1.202 -2.7838  2.3835  1.7392
 5798TIP3   OH239028   2.364   4.439   0.844 -0.0679  0.3838 -0.1123
 5798TIP3    H139029   2.332   4.366   0.898 -1.9086  1.6876  0.6954
 5798TIP3    H239030   2.433   4.479   0.897 -1.0133  0.9015  0.7774
 5799TIP3   OH239031   3.237   6.553   1.383 -0.2332  0.3698  0.6127
 5799TIP3    H139032   3.267   6.637   1.418 -0.6680 -0.2922  2.7433
 5799TIP3    H239033   3.153   6.573   1.341 -1.3463  0.7638  2.8462
 5800TIP3   OH239034   1.031   1.822   6.952 -0.9077  0.3834  0.0381
 5800TIP3    H139035   1.030   1.890   6.885  2.0003 -0.7322 -1.3042
 5800TIP3    H239036   1.084   1.858   7.022 -2.1240  0.7029  0.8273
 5801TIP3   OH239037   1.558   0.523   2.336  0.1809 -0.4159 -0.1982
 5801TIP3    H139038   1.544   0.560   2.249  0.7336  1.1834  0.3615
 5801TIP3    H239039   1.470   0.497   2.366 -0.3571  1.0938 -0.3617
 5802TIP3   OH239040   3.328   1.100   0.467 -0.4384  0.5466  0.2897
 5802TIP3    H139041   3.239   1.101   0.502 -0.5818 -2.2618  0.2526
 5802TIP3    H239042   3.318   1.066   0.378  0.7429 -1.5448  0.8800
 5803TIP3   OH239043   0.055   6.203   6.978 -0.2047  0.4130  0.4338
 5803TIP3    H139044   0.011   6.205   6.894 -1.5980 -1.0414  1.0713
 5803TIP3    H239045   0.120   6.273   6.973 -1.1530  1.2311 -1.3346
 5804TIP3   OH239046   0.504   1.003   1.455 -0.0713  0.2447  0.0436
 5804TIP3    H139047   0.589   0.992   1.414 -0.6254  0.6095 -1.2628
 5804TIP3    H239048   0.490   1.098   1.458 -0.3758  0.1957  0.3769
 5805TIP3   OH239049   2.746   2.645   8.663 -0.0663  0.3933 -0.1423
 5805TIP3    H139050   2.664   2.621   8.620 -1.0952 -0.3173  2.0140
 5805TIP3    H239051   2.773   2.726   8.621 -1.4596  0.2315 -1.4355
 5806TIP3   OH239052   1.380   2.063   0.134  0.4949  0.0769  0.7777
 5806TIP3    H139053   1.350   2.148   0.101 -1.0623 -0.6831  0.1765
 5806TIP3    H239054   1.323   2.043   0.207 -0.0733 -1.0859  0.0416
 5807TIP3   OH239055   6.381   2.729   0.740 -0.3179  0.4144  0.1072
 5807TIP3    H139056   6.289   2.712   0.724 -0.3400 -0.3889  1.0179
 5807TIP3    H239057   6.393   2.713   0.834  0.8179  0.1175 -0.0698
 5808TIP3   OH239058   0.631   6.458   7.423 -0.1370  0.0697 -0.4743
 5808TIP3    H139059   0.669   6.377   7.390  0.3353  0.2283 -0.3426
 5808TIP3    H239060   0.640   6.520   7.351  0.3168  0.2439 -0.2707
 5809TIP3   OH239061   1.437   2.846   1.124 -0.1251 -0.1628  0.2357
 5809TIP3    H139062   1.397   2.801   1.049  0.5358  0.3002 -0.4046
 5809TIP3    H239063   1.530   2.848   1.104  0.0987 -0.2935  1.2196
 5810TIP3   OH239064   4.358   5.218   0.589 -0.1071  0.6524 -0.6411
 5810TIP3    H139065   4.351   5.300   0.539  2.2807  1.8235  0.7912
 5810TIP3    H239066   4.404   5.159   0.530  2.8249  2.0736  0.0289
 5811TIP3   OH239067   1.669   5.185   0.777  0.3099  0.2077 -0.1747
 5811TIP3    H139068   1.704   5.199   0.689  1.3319  0.4394  0.2512
 5811TIP3    H239069   1.704   5.100   0.803  0.8415  0.5802  0.3733
 5812TIP3   OH239070   2.630   1.146   0.767  0.3163 -0.4001 -0.2943
 5812TIP3    H139071   2.669   1.228   0.737 -0.1489 -0.2344 -0.4494
 5812TIP3    H239072   2.569   1.171   0.836  1.2588 -0.7675  0.6914
 5813TIP3   OH239073   2.073   6.751   7.368 -0.0334  0.3565  0.0047
 5813TIP3    H139074   2.017   6.774   7.294 -0.2512  2.3836  0.7500
 5813TIP3    H239075   2.161   6.776   7.341 -0.1720  1.4946  0.5574
 5814TIP3   OH239076   5.499   0.939   8.267 -0.0875 -0.0293 -0.2247
 5814TIP3    H139077   5.442   0.921   8.192  0.7162 -1.5991 -0.5208
 5814TIP3    H239078   5.548   0.857   8.280  0.6065  0.5788  1.3124
 5815TIP3   OH239079   1.184   5.126   8.126 -0.1029 -0.3101 -0.1528
 5815TIP3    H139080   1.175   5.169   8.041 -0.3960 -1.5615 -0.7727
 5815TIP3    H239081   1.157   5.193   8.190 -0.7347  0.3584 -1.0993
 5816TIP3   OH239082   6.406   4.929   2.193  0.3720 -0.5321  0.2324
 5816TIP3    H139083   6.367   5.010   2.224  0.4274 -0.6648  0.6621
 5816TIP3    H239084   6.452   4.894   2.270  0.9867 -0.5826 -0.1519
 5817TIP3   OH239085   2.994   0.271   2.304  0.0924 -0.2719 -0.5998
 5817TIP3    H139086   3.009   0.230   2.390 -0.0859 -0.9747 -0.8969
 5817TIP3    H239087   2.964   0.199   2.249  1.1887 -0.0423 -1.5253
 5818TIP3   OH239088   1.585   0.557   8.544 -0.2863  0.3754 -0.2575
 5818TIP3    H139089   1.556   0.517   8.626  0.2419 -1.7418 -1.0396
 5818TIP3    H239090   1.662   0.609   8.568 -0.0569 -0.3232  0.5517
 5819TIP3   OH239091   1.413   2.395   8.269  0.1912  0.3365 -0.1416
 5819TIP3    H139092   1.445   2.304   8.271  1.8164  0.7967 -2.0697
 5819TIP3    H239093   1.318   2.387   8.280  0.4159 -1.4915  0.9563
 5820TIP3   OH239094   2.843   1.311   6.210  0.6743  0.4291  0.2229
 5820TIP3    H139095   2.862   1.387   6.156  0.0843 -0.1108 -0.7873
 5820TIP3    H239096   2.919   1.301   6.266  1.2889  1.0401 -0.4880
 5821TIP3   OH239097   1.965   0.705   0.664  0.2127 -0.1863 -0.2103
 5821TIP3    H139098   1.930   0.713   0.575  1.5140 -2.7825 -1.0437
 5821TIP3    H239099   1.918   0.630   0.701  0.2895  0.3538  1.0181
 5822TIP3   OH239100   6.434   3.278   0.599 -0.1619  0.7215  0.6155
 5822TIP3    H139101   6.412   3.347   0.536 -0.7694 -0.1662 -0.1666
 5822TIP3    H239102   6.474   3.209   0.546 -0.8421 -0.1177  1.1729
 5823TIP3   OH239103   4.173   5.480   1.895 -0.4006 -0.0071 -0.4170
 5823TIP3    H139104   4.224   5.557   1.920  0.0599 -0.4734  0.1148
 5823TIP3    H239105   4.097   5.482   1.953  0.0053 -0.3696  0.1407
 5824TIP3   OH239106   2.053   1.194   8.298 -0.1227  0.3766 -0.5573
 5824TIP3    H139107   1.980   1.252   8.320 -0.0189  0.7737 -1.2286
 5824TIP3    H239108   2.073   1.214   8.206  0.8486  0.2918 -0.3774
 5825TIP3   OH239109   2.463   0.765   1.747 -0.5569  0.0683  0.0780
 5825TIP3    H139110   2.424   0.685   1.712 -0.5508 -0.1680  0.6122
 5825TIP3    H239111   2.415   0.782   1.829  0.3313 -0.1218  0.6446
 5826TIP3   OH239112   2.097   1.262   7.710  0.7548 -0.7290  0.0685
 5826TIP3    H139113   2.127   1.184   7.665 -0.5231 -0.9055 -0.5219
 5826TIP3    H239114   2.033   1.229   7.774  0.0503 -0.1686 -0.3310
 5827TIP3   OH239115   4.246   1.681   8.308  0.4328 -0.0063 -0.4086
 5827TIP3    H139116   4.294   1.665   8.226 -0.2216 -0.7370 -0.6581
 5827TIP3    H239117   4.222   1.594   8.339  1.7880  0.1625  1.2570
 5828TIP3   OH239118   5.499   2.840   1.446 -0.0970 -0.1159 -0.0993
 5828TIP3    H139119   5.449   2.780   1.391  0.0584 -0.9010  0.5967
 5828TIP3    H239120   5.433   2.880   1.504  0.0639 -1.1856  0.8499
 5829TIP3   OH239121   0.418   3.169   1.232  0.6758  0.0354  0.7242
 5829TIP3    H139122   0.474   3.214   1.296  0.3619  1.3453  0.1108
 5829TIP3    H239123   0.471   3.096   1.202  0.8755 -0.5426  2.3793
 5830TIP3   OH239124   4.860   1.128   7.312 -0.3203  0.1894  0.0462
 5830TIP3    H139125   4.772   1.097   7.336  0.1021 -2.0368 -1.0707
 5830TIP3    H239126   4.867   1.112   7.218  1.6779 -0.7462  0.3082
 5831TIP3   OH239127   2.514   4.751   1.418  0.0119  0.5072  0.4766
 5831TIP3    H139128   2.423   4.747   1.387  0.6850 -1.5660 -1.5123
 5831TIP3    H239129   2.548   4.832   1.379 -0.9908  1.3719  1.3521
 5832TIP3   OH239130   4.601   6.129   0.807 -0.3331  0.3612 -0.0858
 5832TIP3    H139131   4.591   6.223   0.793  3.6795  1.3862  2.2113
 5832TIP3    H239132   4.535   6.107   0.873 -0.2982  1.9621  0.5216
 5833TIP3   OH239133   0.344   6.023   8.619  0.4390 -0.2067 -0.4873
 5833TIP3    H139134   0.423   5.971   8.637 -1.3954 -2.6391  1.1019
 5833TIP3    H239135   0.329   6.073   8.699  0.1560 -0.0118 -0.6579
 5834TIP3   OH239136   4.969   4.837   8.465 -0.2053 -0.1976 -0.5947
 5834TIP3    H139137   5.048   4.847   8.412 -0.1794  0.7923 -0.3898
 5834TIP3    H239138   4.898   4.867   8.408 -0.2926 -0.0480 -0.4112
 5835TIP3   OH239139   3.124   5.826   0.206 -0.3497  0.1128 -0.1645
 5835TIP3    H139140   3.061   5.762   0.238 -1.2251  0.9586 -0.1553
 5835TIP3    H239141   3.170   5.781   0.134 -2.0644  0.0032 -1.2452
 5836TIP3   OH239142   4.553   6.877   7.589 -0.4391  0.7360  0.1623
 5836TIP3    H139143   4.581   6.846   7.675 -1.4193 -0.6214  0.0379
 5836TIP3    H239144   4.619   6.941   7.563  0.9813 -0.3194  1.0475
 5837TIP3   OH239145   1.340   1.974   8.548 -0.3943  0.1735 -0.3060
 5837TIP3    H139146   1.422   1.925   8.548  1.2215  2.6331 -2.0113
 5837TIP3    H239147   1.340   2.021   8.631  1.6217  2.5471 -1.5099
 5838TIP3   OH239148   2.027   1.088   1.091  0.2712 -0.1006  0.0277
 5838TIP3    H139149   2.021   1.027   1.164 -3.5740  0.9445  0.8005
 5838TIP3    H239150   2.011   1.035   1.013 -1.3491 -0.3909  0.5334
 5839TIP3   OH239151   3.277   0.038   0.100 -0.1312 -0.2551 -0.3808
 5839TIP3    H139152   3.245  -0.052   0.087 -1.7370  0.0877  0.8891
 5839TIP3    H239153   3.255   0.058   0.191 -1.8223  2.2022 -1.2432
 5840TIP3   OH239154   1.132   3.503   0.546  0.0552 -1.0185  0.0360
 5840TIP3    H139155   1.042   3.522   0.574 -0.1295 -0.0040 -1.1597
 5840TIP3    H239156   1.138   3.539   0.457  1.9123 -0.2187  0.4305
 5841TIP3   OH239157   4.432   6.676   8.572  0.7037 -0.5014  0.6001
 5841TIP3    H139158   4.384   6.758   8.586  0.5508 -0.6550  0.9938
 5841TIP3    H239159   4.506   6.701   8.516 -1.2410 -0.7499 -2.2515
 5842TIP3   OH239160   1.527   4.036   0.415  0.0899  0.4248  0.6002
 5842TIP3    H139161   1.588   4.110   0.421  0.1997  0.3857 -0.0114
 5842TIP3    H239162   1.444   4.072   0.448  0.5100  0.3803  1.7595
 5843TIP3   OH239163   5.159   2.245   1.512 -0.4138  0.6268 -0.1243
 5843TIP3    H139164   5.207   2.184   1.568 -0.8539 -0.1098 -0.5347
 5843TIP3    H239165   5.215   2.258   1.436 -0.2848  0.7933  0.0000
 5844TIP3   OH239166   0.837   3.945   7.932 -0.3417 -0.3588 -0.3062
 5844TIP3    H139167   0.822   3.981   7.844 -1.2974  0.3057  0.1104
 5844TIP3    H239168   0.925   3.907   7.928 -0.6328 -0.9353 -1.7498
 5845TIP3   OH239169   0.504   0.845   1.131  0.4020  0.3268 -0.0127
 5845TIP3    H139170   0.539   0.931   1.156 -1.0528  0.9533 -0.0052
 5845TIP3    H239171   0.486   0.802   1.215 -0.6692  0.8024  0.0159
 5846TIP3   OH239172   1.991   1.052   2.510  0.5827  0.1936  0.1892
 5846TIP3    H139173   1.978   1.024   2.601  1.8079 -1.3938 -0.0688
 5846TIP3    H239174   1.940   1.132   2.502 -1.9560 -1.1456  1.4717
 5847TIP3   OH239175   4.374   1.076   7.532  1.0873  0.1910  0.1835
 5847TIP3    H139176   4.344   1.116   7.451  0.2075 -0.4558  0.1843
 5847TIP3    H239177   4.402   1.151   7.586  1.4845  0.6365 -0.6139
 5848TIP3   OH239178   5.059   6.243   2.604 -0.1602  0.4363  0.9029
 5848TIP3    H139179   4.971   6.208   2.616 -0.7947  2.4131  2.6827
 5848TIP3    H239180   5.092   6.198   2.526 -3.0695  0.2685 -0.3959
 5849TIP3   OH239181   0.279   5.531   1.927  0.8261  0.2897 -0.3706
 5849TIP3    H139182   0.308   5.527   2.018 -0.0348 -0.2034 -0.1054
 5849TIP3    H239183   0.203   5.473   1.923  0.6081  0.6143 -1.3121
 5850TIP3   OH239184   2.766   4.061   2.664 -0.2405 -0.2375 -0.5340
 5850TIP3    H139185   2.799   4.143   2.702 -0.8824  0.1351 -0.7512
 5850TIP3    H239186   2.820   3.993   2.703  0.7955  0.3456 -0.9114
 5851TIP3   OH239187   0.631   4.973   7.949  0.5110 -0.1306  0.0259
 5851TIP3    H139188   0.714   5.014   7.924  0.4306  0.3051  0.4477
 5851TIP3    H239189   0.641   4.956   8.043 -0.3895  1.1972  0.3864
 5852TIP3   OH239190   6.134   2.490   7.405  0.4093 -0.1756  0.0169
 5852TIP3    H139191   6.063   2.517   7.347  1.4691 -1.9113 -2.1969
 5852TIP3    H239192   6.207   2.549   7.384 -0.1930  1.4753  2.1452
 5853TIP3   OH239193   1.218   3.364   7.734  0.3112 -0.1049  0.3336
 5853TIP3    H139194   1.288   3.372   7.800  0.6395 -0.9237  0.1004
 5853TIP3    H239195   1.239   3.283   7.687  0.6499  0.9830 -1.4579
 5854TIP3   OH239196   2.659   4.305   2.956  0.1414  0.1194 -0.3251
 5854TIP3    H139197   2.740   4.254   2.962 -1.3243 -2.2669  0.5155
 5854TIP3    H239198   2.650   4.347   3.041 -1.2486 -2.5978  0.9977
 5855TIP3   OH239199   3.275   3.662   0.181  0.0371  0.1940  0.4760
 5855TIP3    H139200   3.273   3.672   0.276  0.6281 -1.0297  0.6390
 5855TIP3    H239201   3.366   3.683   0.157  0.3112 -0.9921  0.3943
 5856TIP3   OH239202   0.384   5.564   0.308  0.6625 -0.7240 -0.1265
 5856TIP3    H139203   0.442   5.514   0.365  0.4578 -1.1839 -0.3155
 5856TIP3    H239204   0.398   5.656   0.333 -0.2784 -0.9798  1.5000
 5857TIP3   OH239205   1.740   5.082   7.713 -0.1122 -0.1165 -0.5160
 5857TIP3    H139206   1.646   5.078   7.698  0.0943 -0.0647 -1.9723
 5857TIP3    H239207   1.776   5.009   7.662  0.8152  1.1942 -1.8371
 5858TIP3   OH239208   5.523   4.033   1.809 -0.1718  0.4974  0.0465
 5858TIP3    H139209   5.589   4.038   1.878  0.1434  1.1758 -0.3010
 5858TIP3    H239210   5.447   4.077   1.847  0.3898  1.9760 -0.4650
 5859TIP3   OH239211   1.885   5.196   1.548 -0.2302  0.6321  0.5434
 5859TIP3    H139212   1.936   5.270   1.581 -0.5010 -0.4550  3.7947
 5859TIP3    H239213   1.796   5.229   1.542  0.1614  1.4591 -1.3980
 5860TIP3   OH239214   5.362   6.357   2.601 -0.1014 -0.3411  0.5112
 5860TIP3    H139215   5.430   6.296   2.628  1.4138  1.6385  1.3965
 5860TIP3    H239216   5.288   6.337   2.659  0.6355 -0.8291  1.3058
 5861TIP3   OH239217   6.371   1.585   6.815 -0.4162 -0.2798 -0.7477
 5861TIP3    H139218   6.401   1.671   6.842 -1.0589 -1.0039  2.7759
 5861TIP3    H239219   6.295   1.603   6.760 -1.1455  1.4604  0.7047
 5862TIP3   OH239220   3.126   2.868   0.552  0.1144  0.3743 -0.4954
 5862TIP3    H139221   3.178   2.788   0.552  1.3151  1.1024 -1.8397
 5862TIP3    H239222   3.174   2.928   0.609 -0.1066  0.5332 -0.4753
 5863TIP3   OH239223   1.190   2.216   8.443 -0.0889 -0.1103 -0.0609
 5863TIP3    H139224   1.189   2.179   8.532 -1.0643 -1.5656 -0.6295
 5863TIP3    H239225   1.098   2.240   8.427  0.5950  3.3625  0.5419
 5864TIP3   OH239226   6.798   5.011   1.716 -0.0988 -0.1235 -0.1915
 5864TIP3    H139227   6.792   5.065   1.637 -0.7362  1.8395  1.1430
 5864TIP3    H239228   6.891   5.005   1.735  0.0209 -0.1575 -0.7585
 5865TIP3   OH239229   5.353   5.049   1.772 -0.4965 -0.2277  0.3883
 5865TIP3    H139230   5.319   5.122   1.824  0.5938 -1.2823  2.7696
 5865TIP3    H239231   5.294   4.976   1.794  1.4196 -1.3212  2.2466
 5866TIP3   OH239232   5.329   3.487   8.196 -0.0017  0.5949 -0.0668
 5866TIP3    H139233   5.357   3.553   8.133 -1.1414 -0.4608 -1.7773
 5866TIP3    H239234   5.302   3.413   8.142 -0.8102 -0.4561  1.6885
 5867TIP3   OH239235   6.515   4.570   7.171  0.1443 -0.6323 -0.5301
 5867TIP3    H139236   6.565   4.525   7.103 -0.9211 -1.7420 -0.6223
 5867TIP3    H239237   6.426   4.577   7.134  0.0383  0.6471 -0.0908
 5868TIP3   OH239238   4.708   0.631   0.380 -0.5275 -0.0030  0.5595
 5868TIP3    H139239   4.753   0.669   0.456  2.2655 -0.7550 -0.5856
 5868TIP3    H239240   4.644   0.571   0.418  0.3025  0.1381  2.3204
 5869TIP3   OH239241   0.737   2.395   1.129 -0.0038 -0.2456 -0.2916
 5869TIP3    H139242   0.650   2.356   1.122  0.5141 -1.5387  0.1496
 5869TIP3    H239243   0.786   2.359   1.055  0.5931 -0.7409  0.3340
 5870TIP3   OH239244   6.514   3.842   1.074  0.3235 -0.6011 -0.5491
 5870TIP3    H139245   6.434   3.792   1.094 -0.2716  0.7467  0.6362
 5870TIP3    H239246   6.520   3.840   0.979 -1.8287  0.2522 -0.7662
 5871TIP3   OH239247   4.845   4.662   1.554  0.3944 -0.6610  0.3117
 5871TIP3    H139248   4.939   4.673   1.548  0.5617 -2.0070  0.0463
 5871TIP3    H239249   4.833   4.594   1.620 -0.2858 -1.6216 -0.7543
 5872TIP3   OH239250   5.985   6.586   1.992 -0.3555  0.0724 -0.4512
 5872TIP3    H139251   5.908   6.580   1.936 -0.7601  0.6052  0.0299
 5872TIP3    H239252   5.999   6.681   2.004 -0.5341 -0.0224  0.6697
 5873TIP3   OH239253   6.153   1.579   1.273 -0.3555 -0.1191 -0.2044
 5873TIP3    H139254   6.140   1.494   1.316 -0.8507  0.5115  0.9572
 5873TIP3    H239255   6.100   1.640   1.325 -1.4813  0.5943 -2.1114
 5874TIP3   OH239256   1.604   1.168   6.487  0.1377  0.4940  0.5900
 5874TIP3    H139257   1.575   1.078   6.504  0.5651  0.2486  0.0669
 5874TIP3    H239258   1.607   1.209   6.573 -0.3385  0.0891  0.8023
 5875TIP3   OH239259   5.041   5.040   0.469  0.7003  0.0139  0.2516
 5875TIP3    H139260   4.999   5.024   0.384  1.3463  0.2146 -0.1129
 5875TIP3    H239261   4.983   5.101   0.513 -0.1781 -0.8829  0.3844
 5876TIP3   OH239262   6.616   3.033   1.325  0.1652  0.1694  0.3834
 5876TIP3    H139263   6.616   3.111   1.270  0.0215  0.6166  1.0067
 5876TIP3    H239264   6.590   2.962   1.266 -1.7253  0.9153  0.2537
 5877TIP3   OH239265   3.579   0.512   7.465  0.1476  0.8185  0.4129
 5877TIP3    H139266   3.551   0.427   7.430  0.9944  1.0244 -0.8320
 5877TIP3    H239267   3.498   0.557   7.487 -0.4246  0.5648 -1.0705
 5878TIP3   OH239268   5.942   3.964   8.433  0.0387  0.4811  0.1379
 5878TIP3    H139269   5.943   4.054   8.401 -4.0842  0.8338  0.4308
 5878TIP3    H239270   6.024   3.926   8.402  2.6247  4.6132  1.1079
 5879TIP3   OH239271   0.672   4.776   1.736  0.1140 -0.5252  0.2526
 5879TIP3    H139272   0.665   4.871   1.743 -0.3343 -0.5768  0.5150
 5879TIP3    H239273   0.600   4.750   1.678  0.7430 -0.6232 -0.5043
 5880TIP3   OH239274   0.756   2.620   7.691  0.0232  0.2807  0.2700
 5880TIP3    H139275   0.769   2.606   7.597  1.4957 -0.1104  0.5111
 5880TIP3    H239276   0.743   2.715   7.700 -0.8009  0.2452 -0.3788
 5881TIP3   OH239277   5.388   5.054   7.326 -0.1184  0.2405 -0.2953
 5881TIP3    H139278   5.443   4.976   7.337 -1.9088 -0.9321  0.8050
 5881TIP3    H239279   5.394   5.074   7.232  2.0786  0.1229 -0.2268
 5882TIP3   OH239280   0.858   2.255   8.358 -0.0719  0.2828  0.4790
 5882TIP3    H139281   0.883   2.323   8.296 -2.3123  0.0547 -0.7772
 5882TIP3    H239282   0.796   2.201   8.311  1.9487 -3.0183  1.2435
 5883TIP3   OH239283   6.481   5.727   1.608 -1.0569  0.4118  0.5449
 5883TIP3    H139284   6.471   5.759   1.519 -3.3294  0.2935  0.6899
 5883TIP3    H239285   6.442   5.796   1.662  0.6876  0.6869  1.5120
 5884TIP3   OH239286   6.212   4.782   8.482 -0.3223 -0.5431  0.1710
 5884TIP3    H139287   6.157   4.833   8.542  0.7330 -0.6379  1.2526
 5884TIP3    H239288   6.181   4.806   8.395 -1.7932 -0.2830  0.7309
 5885TIP3   OH239289   0.043   1.192   2.117 -0.0466  0.2008 -0.4326
 5885TIP3    H139290   0.053   1.206   2.212  0.5418  0.0992 -0.4753
 5885TIP3    H239291   0.133   1.191   2.084 -0.1927 -0.9171 -0.8241
 5886TIP3   OH239292   1.605   0.376   7.919 -0.0216 -0.5831 -0.1718
 5886TIP3    H139293   1.694   0.382   7.885  0.8213 -1.0667  1.7997
 5886TIP3    H239294   1.602   0.291   7.964 -1.1893 -0.1870  0.5475
 5887TIP3   OH239295   0.050   0.227   2.514  0.1655  0.5284  0.0782
 5887TIP3    H139296   0.049   0.273   2.598 -2.7613  2.5985 -0.9302
 5887TIP3    H239297  -0.026   0.169   2.517  1.2624 -1.0036 -0.3956
 5888TIP3   OH239298   0.289   6.364   8.225 -0.0505 -0.2582 -0.3630
 5888TIP3    H139299   0.199   6.348   8.253  0.2893 -0.2621  0.7998
 5888TIP3    H239300   0.342   6.335   8.299  0.9498 -0.9214 -1.3162
 5889TIP3   OH239301   3.991   2.416   2.304  0.1085  0.1069  0.3281
 5889TIP3    H139302   4.021   2.356   2.373 -1.4300 -2.1569 -0.8335
 5889TIP3    H239303   4.049   2.398   2.230 -0.8486 -0.5524 -0.2795
 5890TIP3   OH239304   5.337   1.643   0.685 -0.3918  0.1010 -0.5422
 5890TIP3    H139305   5.325   1.548   0.690 -0.1555  0.0446 -0.9828
 5890TIP3    H239306   5.279   1.678   0.753  0.1833 -0.4022  0.2328
 5891TIP3   OH239307   5.254   0.243   8.513  0.3389  0.0999  0.4742
 5891TIP3    H139308   5.213   0.220   8.429 -0.8748  2.1261  0.4660
 5891TIP3    H239309   5.239   0.166   8.568  0.7222 -1.0763 -0.9849
 5892TIP3   OH239310   1.963   6.031   8.447 -0.4435  0.0436 -0.2589
 5892TIP3    H139311   1.974   5.943   8.483 -0.5619 -0.2001 -0.8105
 5892TIP3    H239312   2.011   6.028   8.364  1.9532  1.3099  0.9596
 5893TIP3   OH239313   2.667   5.871   2.367  0.1040 -0.1398 -0.2894
 5893TIP3    H139314   2.654   5.868   2.272 -2.3686 -1.0890 -0.0041
 5893TIP3    H239315   2.624   5.792   2.400  0.6483  0.3130  1.6450
 5894TIP3   OH239316   5.282   0.779   1.297 -0.2530  0.1724  0.2310
 5894TIP3    H139317   5.210   0.824   1.341 -0.7171 -0.2774 -0.0601
 5894TIP3    H239318   5.360   0.827   1.324 -0.4351 -0.5075  2.0913
 5895TIP3   OH239319   2.068   4.825   8.159 -0.8123  0.3383 -0.0907
 5895TIP3    H139320   2.111   4.885   8.220  0.2252 -0.0796 -0.3863
 5895TIP3    H239321   2.032   4.756   8.215 -2.4344  1.4288  0.3037
 5896TIP3   OH239322   3.729   6.868   0.725 -0.5481  0.7654  0.9962
 5896TIP3    H139323   3.779   6.816   0.788  0.1337  0.1481 -0.0234
 5896TIP3    H239324   3.641   6.874   0.763 -0.0230  0.8600  2.2443
 5897TIP3   OH239325   3.430   0.934   1.712 -0.4458  0.1724  0.3263
 5897TIP3    H139326   3.511   0.951   1.761 -0.4675  1.5852 -0.0635
 5897TIP3    H239327   3.412   1.017   1.668 -2.1575 -0.1009  0.4713
 5898TIP3   OH239328   4.249   6.079   1.692  0.1799 -0.0567  0.5236
 5898TIP3    H139329   4.227   5.997   1.648  1.9344  0.9358 -2.4431
 5898TIP3    H239330   4.165   6.124   1.703 -0.5184 -1.1827  0.0122
 5899TIP3   OH239331   2.314   6.218   7.063 -1.3280  0.4715  0.2719
 5899TIP3    H139332   2.273   6.141   7.025 -1.4184  0.8975 -0.5043
 5899TIP3    H239333   2.295   6.289   7.002  0.5285  0.7072 -0.1052
 5900TIP3   OH239334   5.601   4.874   1.696  0.0660 -0.1080  0.1187
 5900TIP3    H139335   5.525   4.926   1.669 -0.2778 -0.6844 -0.0469
 5900TIP3    H239336   5.618   4.815   1.622 -0.5336 -1.3140  0.9078
 5901TIP3   OH239337   4.458   4.648   2.244 -0.0314 -0.5879  0.5409
 5901TIP3    H139338   4.437   4.734   2.206 -0.3990 -0.6786  0.5358
 5901TIP3    H239339   4.474   4.666   2.336  2.0881 -0.1649  0.1550
 5902TIP3   OH239340   3.662   0.332   0.756  0.1124 -0.8300  0.0506
 5902TIP3    H139341   3.705   0.303   0.675  1.2819  0.9760 -0.0368
 5902TIP3    H239342   3.697   0.274   0.823  1.2678 -0.6126 -0.3324
 5903TIP3   OH239343   4.885   2.510   1.248  0.4153  0.0988 -0.0802
 5903TIP3    H139344   4.828   2.578   1.285 -2.3726 -1.7017 -0.7434
 5903TIP3    H239345   4.868   2.514   1.153  0.5475 -1.1728 -0.1787
 5904TIP3   OH239346   4.995   5.655   8.613  0.0868  0.4557 -0.6853
 5904TIP3    H139347   5.039   5.597   8.675  1.2946  0.9341 -1.0647
 5904TIP3    H239348   4.907   5.667   8.650  0.5282  0.1260  0.5293
 5905TIP3   OH239349   4.125   3.769   0.815 -0.0043 -0.3164 -0.3469
 5905TIP3    H139350   4.190   3.705   0.785 -0.9715 -1.2728 -0.4310
 5905TIP3    H239351   4.061   3.718   0.864  0.9728  1.0466  2.5757
 5906TIP3   OH239352   2.479   0.246   1.002  0.0767  0.5066  0.0036
 5906TIP3    H139353   2.513   0.322   1.049 -0.9944  0.2707  1.2021
 5906TIP3    H239354   2.471   0.178   1.068  0.9112 -0.6518 -1.0320
 5907TIP3   OH239355   6.223   3.950   1.590  0.2359 -0.3292 -0.2240
 5907TIP3    H139356   6.231   4.033   1.544 -0.5040  0.4139  0.9246
 5907TIP3    H239357   6.159   3.901   1.540  0.6246 -0.1911 -0.8727
 5908TIP3   OH239358   0.350   4.923   2.598  0.1575  0.2870  0.6222
 5908TIP3    H139359   0.430   4.910   2.547 -0.1034  0.4619  0.1552
 5908TIP3    H239360   0.328   5.015   2.584 -0.5803  0.0340  0.0586
 5909TIP3   OH239361   1.423   4.610   8.097  0.1693 -0.1272  0.1422
 5909TIP3    H139362   1.476   4.680   8.133 -0.4023  0.0868  0.5855
 5909TIP3    H239363   1.351   4.600   8.159  0.2137 -1.0746  0.0659
 5910TIP3   OH239364   1.463   2.764   0.331  0.1884 -0.6662  0.0366
 5910TIP3    H139365   1.382   2.767   0.281 -0.0212 -0.2947  0.3981
 5910TIP3    H239366   1.469   2.674   0.363  0.6259 -1.0791 -1.1476
 5911TIP3   OH239367   6.790   2.156   7.884  0.3029  0.2422  0.5625
 5911TIP3    H139368   6.697   2.150   7.860 -0.0193  1.7438  1.2858
 5911TIP3    H239369   6.822   2.231   7.834  0.6675  0.8288  1.6583
 5912TIP3   OH239370   3.954   6.732   1.518 -0.7586 -0.5534  0.0321
 5912TIP3    H139371   3.957   6.650   1.567  0.1689 -0.7567 -0.3495
 5912TIP3    H239372   4.027   6.726   1.456 -0.1612  0.9112  0.5550
 5913TIP3   OH239373   5.105   5.426   0.033  0.1987  0.1188 -0.0541
 5913TIP3    H139374   5.196   5.442   0.055  0.6294 -1.8176 -0.3189
 5913TIP3    H239375   5.107   5.362  -0.037 -1.3596  0.5791 -0.5699
 5914TIP3   OH239376   2.698   3.753   7.917 -0.7457  0.1152 -0.1631
 5914TIP3    H139377   2.788   3.726   7.931 -0.3809  1.0370 -0.6402
 5914TIP3    H239378   2.699   3.799   7.834 -1.3732  1.3532  0.4771
 5915TIP3   OH239379   0.013   2.262   2.215 -0.6252  0.8672 -0.4466
 5915TIP3    H139380  -0.079   2.285   2.204 -0.5227  1.3925 -0.2293
 5915TIP3    H239381   0.060   2.345   2.204 -0.3509  1.0679  1.7566
 5916TIP3   OH239382   3.022   1.173   6.652  0.2616 -0.1861 -0.2847
 5916TIP3    H139383   3.064   1.223   6.583  0.6623 -0.2828 -0.1146
 5916TIP3    H239384   3.017   1.083   6.617 -0.4221 -0.0456 -0.5745
 5917TIP3   OH239385   6.362   6.201   1.467  0.1235  0.4669 -0.3171
 5917TIP3    H139386   6.320   6.274   1.419 -2.8025  0.8828  2.5106
 5917TIP3    H239387   6.299   6.178   1.535  1.8002 -3.4992  0.1693
 5918TIP3   OH239388   4.883   3.214   0.088 -0.0558 -0.3521 -0.0991
 5918TIP3    H139389   4.835   3.253   0.161 -1.1665  0.3530 -1.1569
 5918TIP3    H239390   4.965   3.263   0.084 -0.2555  0.0242  0.2903
 5919TIP3   OH239391   0.641   2.774   7.364  0.1797  0.1683  0.0675
 5919TIP3    H139392   0.677   2.815   7.443  0.5943 -2.5667  1.4038
 5919TIP3    H239393   0.692   2.694   7.353 -1.1978 -0.5191 -1.8492
 5920TIP3   OH239394   3.363   4.378   8.469 -0.4527  0.1422 -0.7130
 5920TIP3    H139395   3.338   4.286   8.459 -1.6131  0.1129  1.6757
 5920TIP3    H239396   3.298   4.427   8.420  0.2538 -0.2619 -2.1216
 5921TIP3   OH239397   4.522   0.416   8.424 -0.1175 -0.3220 -0.2790
 5921TIP3    H139398   4.448   0.418   8.364 -0.7597 -0.0005  0.5101
 5921TIP3    H239399   4.516   0.330   8.466 -0.9011  0.2394  0.8148
 5922TIP3   OH239400   0.262   6.208   0.166 -0.1163 -0.1052 -0.4400
 5922TIP3    H139401   0.229   6.211   0.256 -1.5785  2.1356 -0.9662
 5922TIP3    H239402   0.356   6.225   0.175 -0.0303 -1.0126  0.7138
 5923TIP3   OH239403   1.546   3.913   0.715  0.0229 -0.1195 -0.0897
 5923TIP3    H139404   1.471   3.884   0.662 -0.3494 -1.5346  1.1390
 5923TIP3    H239405   1.526   3.883   0.803  1.1184  1.2664  0.6818
 5924TIP3   OH239406   6.634   0.162   6.950  0.1053 -0.4864  0.0342
 5924TIP3    H139407   6.720   0.123   6.934  0.3142 -0.2230  0.4814
 5924TIP3    H239408   6.629   0.170   7.045 -1.4514 -2.8445  0.2298
 5925TIP3   OH239409   5.675   5.396   7.156  0.5726 -0.2427  0.1811
 5925TIP3    H139410   5.628   5.443   7.086  0.1053 -0.4947  0.3236
 5925TIP3    H239411   5.682   5.306   7.124  0.8022 -0.2474  0.2419
 5926TIP3   OH239412   5.290   3.565   7.494 -0.8960 -0.1509  0.2666
 5926TIP3    H139413   5.212   3.514   7.512  0.5312 -1.6535  2.7285
 5926TIP3    H239414   5.266   3.655   7.516 -2.8007  0.0236 -2.0983
 5927TIP3   OH239415   2.482   0.667   8.287  0.6816 -0.4196 -0.3188
 5927TIP3    H139416   2.466   0.615   8.366  0.5765  0.7946  0.4878
 5927TIP3    H239417   2.455   0.610   8.215 -1.6761 -0.6426  0.6599
 5928TIP3   OH239418   3.067   1.752   7.351 -0.8603  0.5387 -0.7892
 5928TIP3    H139419   2.997   1.690   7.331 -1.2770  1.0296 -0.8743
 5928TIP3    H239420   3.080   1.801   7.270  0.4785 -0.3994 -1.1767
 5929TIP3   OH239421   1.951   3.553   1.991  0.2918  0.0879 -0.0160
 5929TIP3    H139422   1.921   3.465   2.016  1.2537 -0.5285 -0.9196
 5929TIP3    H239423   1.880   3.589   1.939  0.1587 -0.4140 -0.1833
 5930TIP3   OH239424   4.246   0.271   7.945 -0.5347 -0.2272  0.5324
 5930TIP3    H139425   4.256   0.349   7.889 -0.2027 -1.1364 -0.7144
 5930TIP3    H239426   4.331   0.228   7.942  0.1668  0.7498  3.4446
 5931TIP3   OH239427   6.495   4.865   7.531  0.5413 -0.2704  0.0228
 5931TIP3    H139428   6.590   4.863   7.546  0.2669 -1.1439  2.0568
 5931TIP3    H239429   6.486   4.883   7.438  2.7143 -0.4567 -0.2925
 5932TIP3   OH239430   2.209   5.963   2.016 -0.4199 -0.2131  0.3820
 5932TIP3    H139431   2.158   5.915   2.081  1.3810 -3.1857 -0.2321
 5932TIP3    H239432   2.289   5.988   2.062 -0.7073  0.9598  0.2726
 5933TIP3   OH239433   5.466   6.750   0.734  0.5073 -0.0862  0.1144
 5933TIP3    H139434   5.416   6.785   0.660  1.9515 -0.8340 -1.2703
 5933TIP3    H239435   5.413   6.677   0.766 -1.4643  1.8624  1.6576
 5934TIP3   OH239436   4.857   2.239   1.965  0.5694  0.5885 -0.0607
 5934TIP3    H139437   4.846   2.165   1.904 -1.8432  1.2714 -0.5536
 5934TIP3    H239438   4.860   2.198   2.051 -0.1316 -0.1571 -0.3681
 5935TIP3   OH239439   4.767   0.821   1.601  0.3013 -0.3683  0.6988
 5935TIP3    H139440   4.759   0.730   1.630  1.7885  0.2398  3.3626
 5935TIP3    H239441   4.831   0.859   1.661 -0.0593  2.3785 -0.5329
 5936TIP3   OH239442   6.362   0.723   0.210  0.1811  0.2853 -0.4628
 5936TIP3    H139443   6.345   0.698   0.300  2.2923  1.4011  0.3150
 5936TIP3    H239444   6.306   0.799   0.194  1.1808  1.2841  0.6002
 5937TIP3   OH239445   0.406   3.807   8.514 -0.2356 -0.1068 -0.3759
 5937TIP3    H139446   0.347   3.786   8.587 -0.5046 -1.7780 -1.0292
 5937TIP3    H239447   0.418   3.724   8.469  3.2412 -0.0280  0.1423
 5938TIP3   OH239448   6.657   3.368   7.945  0.5958 -0.6861 -0.5250
 5938TIP3    H139449   6.708   3.408   8.015 -0.5700 -1.7562  1.0105
 5938TIP3    H239450   6.641   3.440   7.884 -1.0633  1.2097  1.9036
 5939TIP3   OH239451   0.434   6.159   1.660 -0.0996 -0.2633 -0.2309
 5939TIP3    H139452   0.354   6.107   1.666  0.8577 -1.6376  1.4304
 5939TIP3    H239453   0.414   6.238   1.711 -1.7186  1.3782 -3.1429
 5940TIP3   OH239454   5.846   5.069   1.492 -0.5246 -0.3821 -0.7036
 5940TIP3    H139455   5.876   5.032   1.575 -2.7380 -1.0723 -0.1572
 5940TIP3    H239456   5.881   5.159   1.492  0.8313 -0.8754  0.2015
 5941TIP3   OH239457   6.618   2.888   7.779  0.4304 -0.4630  0.6236
 5941TIP3    H139458   6.563   2.906   7.855 -2.4101  0.3386 -1.4622
 5941TIP3    H239459   6.668   2.969   7.766 -1.2512  0.5223  0.0052
 5942TIP3   OH239460   3.057   6.703   1.856  0.0641  0.3936 -0.3362
 5942TIP3    H139461   3.015   6.729   1.938 -2.3942 -1.6681 -0.7971
 5942TIP3    H239462   3.134   6.653   1.883 -0.7008 -0.2494  0.7189
 5943TIP3   OH239463   1.303   3.149   7.568  0.6962  0.1894 -0.7973
 5943TIP3    H139464   1.230   3.167   7.510  0.9899 -0.6958 -1.4672
 5943TIP3    H239465   1.378   3.135   7.510  0.8685 -1.3071 -0.2747
 5944TIP3   OH239466   5.634   3.251   1.154 -0.3347 -0.1099 -0.4213
 5944TIP3    H139467   5.695   3.186   1.188 -0.5166  0.4122  0.9590
 5944TIP3    H239468   5.674   3.281   1.072 -0.5987 -2.4402 -1.4742
 5945TIP3   OH239469   3.821   6.214   2.533 -0.7492  0.8574 -0.3019
 5945TIP3    H139470   3.890   6.148   2.539 -1.0799  0.4931 -0.5001
 5945TIP3    H239471   3.854   6.288   2.585 -0.1869  0.7079 -0.4467
 5946TIP3   OH239472   5.285   2.495   0.234  0.2418  0.0459 -0.1970
 5946TIP3    H139473   5.191   2.481   0.234  0.4487 -1.5298 -0.4180
 5946TIP3    H239474   5.301   2.554   0.308 -0.9952  1.0936 -0.7412
 5947TIP3   OH239475   1.537   2.566   8.103 -0.3145  0.3355  0.0925
 5947TIP3    H139476   1.480   2.570   8.026 -1.0191  2.6044  0.6719
 5947TIP3    H239477   1.492   2.506   8.163 -0.9198  0.3274 -0.3577
 5948TIP3   OH239478   5.680   2.126   1.761  0.2403 -0.8824  0.3814
 5948TIP3    H139479   5.619   2.193   1.729  1.7994 -0.9387 -3.1112
 5948TIP3    H239480   5.689   2.146   1.854 -2.5894  1.0762  0.3843
 5949TIP3   OH239481   0.813   4.801   7.394  0.1092 -0.2027 -0.1152
 5949TIP3    H139482   0.824   4.761   7.308  0.4591  0.2543 -0.2849
 5949TIP3    H239483   0.760   4.879   7.377  2.3323  1.3472 -0.3389
 5950TIP3   OH239484   0.447   2.480   7.618  0.4499  0.6750  0.6307
 5950TIP3    H139485   0.383   2.550   7.600  0.6446  1.2823  2.1785
 5950TIP3    H239486   0.528   2.512   7.578 -0.0324  0.1682 -0.8271
 5951TIP3   OH239487   6.377   0.356   7.242 -0.4034  0.3490 -0.1760
 5951TIP3    H139488   6.310   0.318   7.185  0.2674 -0.1490 -0.6428
 5951TIP3    H239489   6.456   0.306   7.223 -0.0874  0.3838  0.9670
 5952TIP3   OH239490   5.682   4.646   1.518 -0.1410  0.1794 -0.2805
 5952TIP3    H139491   5.701   4.709   1.448  1.8364 -1.3291 -1.2025
 5952TIP3    H239492   5.614   4.589   1.481  0.1910 -0.0131 -0.5961
 5953TIP3   OH239493   0.944   3.582   8.557  0.0604 -0.0006 -0.4357
 5953TIP3    H139494   0.974   3.512   8.615 -0.9383  0.6256  0.9113
 5953TIP3    H239495   0.850   3.567   8.548  0.1645  0.0238 -1.7750
 5954TIP3   OH239496   2.613   3.893   0.432  0.6447  0.7759 -0.0669
 5954TIP3    H139497   2.563   3.964   0.473  1.1124  0.3184  1.3234
 5954TIP3    H239498   2.687   3.878   0.490  0.2700 -1.2211 -0.0281
 5955TIP3   OH239499   4.648   1.727   7.923  0.5936  0.9681  0.0916
 5955TIP3    H139500   4.725   1.744   7.869 -0.3305  3.1290 -0.6757
 5955TIP3    H239501   4.576   1.766   7.874 -0.8921 -0.3473  1.1295
 5956TIP3   OH239502   2.528   5.902   8.635 -0.0856  0.0580 -0.3013
 5956TIP3    H139503   2.569   5.985   8.610 -0.3572  0.7292  1.3570
 5956TIP3    H239504   2.600   5.845   8.660 -0.0246  1.1540  2.3694
 5957TIP3   OH239505   3.334   3.890   6.741 -0.3477 -0.1080 -0.1750
 5957TIP3    H139506   3.387   3.969   6.735 -1.1036  0.3948 -0.3447
 5957TIP3    H239507   3.350   3.843   6.659  1.7660 -1.2315  0.7909
 5958TIP3   OH239508   2.507   3.065   8.452 -0.4604  0.4217 -0.4631
 5958TIP3    H139509   2.586   3.082   8.402 -0.6729  0.2287 -0.8680
 5958TIP3    H239510   2.448   3.136   8.429 -1.1393 -0.5087 -1.7179
 5959TIP3   OH239511   3.943   5.742   2.504 -0.6474  0.0401 -0.5320
 5959TIP3    H139512   3.951   5.650   2.531 -1.1147  0.3440  0.6934
 5959TIP3    H239513   4.018   5.785   2.545 -1.2021  0.4499  0.0871
 5960TIP3   OH239514   2.656   4.260   8.266 -0.1294  0.5586  0.5668
 5960TIP3    H139515   2.618   4.293   8.185 -0.7262 -0.7451  0.2932
 5960TIP3    H239516   2.581   4.249   8.325 -0.1016 -1.2222  0.3140
 5961TIP3   OH239517   4.113   2.219   8.487 -0.0053 -0.0612 -0.9164
 5961TIP3    H139518   4.066   2.297   8.457  1.6369  1.0803 -0.6970
 5961TIP3    H239519   4.045   2.163   8.524 -1.0952  1.9961  0.4288
 5962TIP3   OH239520   4.268   6.457   0.846 -0.0380 -0.1916 -0.1983
 5962TIP3    H139521   4.245   6.431   0.757 -1.9921 -0.1924  0.2616
 5962TIP3    H239522   4.291   6.550   0.839  0.9367 -0.4708 -0.8639
 5963TIP3   OH239523   3.525   6.865   0.367 -0.4778 -0.1064 -0.6937
 5963TIP3    H139524   3.480   6.945   0.393 -0.3558 -0.2449 -0.0578
 5963TIP3    H239525   3.490   6.797   0.425  0.5668 -0.2124 -0.1593
 5964TIP3   OH239526   4.152   0.813   7.936 -0.4248 -0.5083 -0.6292
 5964TIP3    H139527   4.202   0.870   7.877  0.5230  0.4949  1.0584
 5964TIP3    H239528   4.101   0.873   7.990 -0.8585 -1.3723 -0.0577
 5965TIP3   OH239529   5.660   1.696   0.964  0.4127 -0.4044 -0.0106
 5965TIP3    H139530   5.581   1.748   0.979 -0.8696 -2.1417 -0.4244
 5965TIP3    H239531   5.717   1.718   1.038 -1.4564 -0.8891  1.6755
 5966TIP3   OH239532   6.825   3.030   2.249 -0.0016  0.7751  0.0841
 5966TIP3    H139533   6.906   3.077   2.267 -0.1904  0.6863  1.2729
 5966TIP3    H239534   6.773   3.042   2.328 -0.3811 -0.7579  0.0964
 5967TIP3   OH239535   1.097   1.351   1.647  0.2454 -0.3979  0.3149
 5967TIP3    H139536   1.076   1.406   1.723 -0.2529 -1.4902  1.0033
 5967TIP3    H239537   1.176   1.390   1.610 -0.1921  0.8785  0.6568
 5968TIP3   OH239538   6.770   5.422   0.749 -0.2368 -0.3897 -0.2453
 5968TIP3    H139539   6.858   5.395   0.776 -0.6214  0.1577  1.7660
 5968TIP3    H239540   6.712   5.363   0.797 -1.0084 -1.0901 -1.9505
 5969TIP3   OH239541   2.023   2.651   2.342  0.1194  0.9549 -0.3628
 5969TIP3    H139542   2.066   2.570   2.316 -0.3752  0.2286  0.9543
 5969TIP3    H239543   2.073   2.682   2.418 -0.3555  1.2679 -0.1687
 5970TIP3   OH239544   4.651   4.373   8.341 -0.1924 -0.1884 -0.2013
 5970TIP3    H139545   4.703   4.297   8.316  0.3200 -0.1483  0.6730
 5970TIP3    H239546   4.689   4.402   8.424 -0.5086  0.8994 -0.4120
 5971TIP3   OH239547   5.597   2.075   8.594 -0.8432  0.0801 -0.0360
 5971TIP3    H139548   5.563   1.992   8.628  0.1632 -0.1735  0.3778
 5971TIP3    H239549   5.672   2.096   8.650 -0.3672  0.6758 -0.8611
 5972TIP3   OH239550   1.371   2.002   1.424 -0.0625 -0.3040  0.4343
 5972TIP3    H139551   1.316   1.928   1.450  0.5665 -0.4009  1.5218
 5972TIP3    H239552   1.380   2.055   1.503  1.6370 -0.4429  0.3747
 5973TIP3   OH239553   5.555   1.858   2.076 -0.6560  0.0026 -0.5394
 5973TIP3    H139554   5.465   1.887   2.095  0.0937  1.7192  0.6830
 5973TIP3    H239555   5.606   1.890   2.150  1.1739  0.0474 -1.7651
 5974TIP3   OH239556   2.213   5.565   0.117  0.3066 -0.0344  0.1765
 5974TIP3    H139557   2.200   5.641   0.059 -0.7794 -2.2225 -2.7127
 5974TIP3    H239558   2.308   5.556   0.124  0.4611  0.6844 -0.7637
 5975TIP3   OH239559   2.506   1.938   0.221 -0.1624  0.3167  0.3356
 5975TIP3    H139560   2.477   1.863   0.170  1.0899 -0.4447  0.7061
 5975TIP3    H239561   2.458   2.012   0.184 -1.4260 -0.6518 -0.0265
 5976TIP3   OH239562   0.834   4.157   0.282 -0.2484 -0.3214  0.3354
 5976TIP3    H139563   0.815   4.204   0.363 -1.1354 -2.5882  1.5542
 5976TIP3    H239564   0.768   4.087   0.279 -0.0820 -0.4607 -2.2425
 5977TIP3   OH239565   2.570   4.367   8.027 -0.0837 -0.7601 -0.4957
 5977TIP3    H139566   2.541   4.276   8.025  0.2326 -1.0065  2.3089
 5977TIP3    H239567   2.653   4.367   7.979 -0.8269 -1.5999 -1.8310
 5978TIP3   OH239568   4.859   2.769   1.989 -0.4983  0.5756 -0.1967
 5978TIP3    H139569   4.842   2.685   2.032  0.3671 -0.4723 -1.8058
 5978TIP3    H239570   4.875   2.830   2.061 -1.7229 -0.4836  1.0330
 5979TIP3   OH239571   2.268   0.958   1.315  0.0193 -0.5539  0.2143
 5979TIP3    H139572   2.259   0.866   1.339  1.6240 -0.6814  0.4180
 5979TIP3    H239573   2.312   0.999   1.389  2.3294 -0.3476 -1.1463
 5980TIP3   OH239574   1.785   3.436   1.091 -0.1832 -0.8173  0.0344
 5980TIP3    H139575   1.799   3.513   1.147 -0.5290  0.5434 -1.6515
 5980TIP3    H239576   1.858   3.378   1.112  0.0089 -0.1134  1.4678
 5981TIP3   OH239577   3.420   3.498   7.508 -0.2527 -0.1945 -0.1178
 5981TIP3    H139578   3.501   3.523   7.464 -0.1029 -2.1560 -1.0618
 5981TIP3    H239579   3.354   3.498   7.439 -0.9268  0.6616  0.5010
 5982TIP3   OH239580   3.388   5.711   1.292  0.2743  0.2826  0.1554
 5982TIP3    H139581   3.399   5.796   1.250  0.4193  0.7428  1.0939
 5982TIP3    H239582   3.344   5.730   1.375  0.4888 -0.5260  0.4740
 5983TIP3   OH239583   5.337   1.549   6.640 -0.3872  0.2058 -0.3055
 5983TIP3    H139584   5.334   1.643   6.653  0.6487  0.2222 -0.0816
 5983TIP3    H239585   5.300   1.511   6.719 -1.1053  0.4256 -0.5332
 5984TIP3   OH239586   4.813   2.214   2.434 -0.2390 -0.5567 -0.0569
 5984TIP3    H139587   4.792   2.129   2.471 -0.6508 -0.7259 -0.6697
 5984TIP3    H239588   4.876   2.252   2.495 -0.2786 -1.1748  0.3720
 5985TIP3   OH239589   1.552   0.974   0.878 -0.3070  0.4004 -0.3686
 5985TIP3    H139590   1.619   1.016   0.825  0.3616 -0.1185  0.0457
 5985TIP3    H239591   1.587   0.887   0.897 -0.9267  0.2599  0.1746
 5986TIP3   OH239592   1.107   3.226   0.548 -0.1848  0.2464 -0.0120
 5986TIP3    H139593   1.029   3.213   0.601  0.2320 -0.8870  0.3704
 5986TIP3    H239594   1.113   3.321   0.536 -3.6728  0.2625 -3.2497
 5987TIP3   OH239595   0.497   6.684   1.955 -0.2511  0.2711 -0.1025
 5987TIP3    H139596   0.472   6.698   1.864  1.4119 -0.0822 -0.6429
 5987TIP3    H239597   0.451   6.604   1.980 -0.0265 -0.1159 -0.9097
 5988TIP3   OH239598   2.034   3.901   0.866 -0.3287  0.1158  0.1395
 5988TIP3    H139599   1.986   3.842   0.923 -2.2694  1.8221  0.3966
 5988TIP3    H239600   2.066   3.845   0.795  2.6038 -2.1663  2.9726
 5989TIP3   OH239601   5.618   6.613   8.100 -0.2576  0.8603 -0.3259
 5989TIP3    H139602   5.669   6.553   8.047  0.9252  2.9526 -1.6975
 5989TIP3    H239603   5.528   6.605   8.066 -0.6453 -1.7017  1.0654
 5990TIP3   OH239604   4.065   1.882   8.658  0.1039  0.0731  0.0083
 5990TIP3    H139605   4.004   1.948   8.626 -1.4056 -0.3162  1.9403
 5990TIP3    H239606   4.024   1.798   8.635 -0.8086 -0.2104  2.4579
 5991TIP3   OH239607   3.830   3.170   7.224  0.2185 -0.2243  0.2580
 5991TIP3    H139608   3.806   3.114   7.298  0.9958 -0.1244  0.5954
 5991TIP3    H239609   3.875   3.245   7.264  2.0795 -0.9329 -0.3995
 5992TIP3   OH239610   0.341   1.672   7.539 -0.4348 -0.5245 -0.5181
 5992TIP3    H139611   0.320   1.659   7.632 -0.3422 -0.4599 -0.4880
 5992TIP3    H239612   0.273   1.733   7.508  1.0684  1.6228  0.1675
 5993TIP3   OH239613   0.949   6.118   2.023  0.5078  0.3759  0.5218
 5993TIP3    H139614   0.985   6.196   1.982  0.0666 -0.1603 -0.9446
 5993TIP3    H239615   0.860   6.111   1.988 -1.0776  1.5532  3.8943
 5994TIP3   OH239616   0.307   2.729   7.602  0.0135 -0.1405  0.1186
 5994TIP3    H139617   0.262   2.777   7.672  0.3524  2.6347 -1.4220
 5994TIP3    H239618   0.348   2.797   7.549  2.7745 -2.3149 -0.7904
 5995TIP3   OH239619   2.200   1.241   8.547  0.3164  0.4135 -0.2850
 5995TIP3    H139620   2.113   1.210   8.570  0.9661  0.0451  1.9709
 5995TIP3    H239621   2.189   1.335   8.530 -0.4299  0.5106  0.6363
 5996TIP3   OH239622   5.700   1.658   1.926 -0.0016  0.1760  0.1076
 5996TIP3    H139623   5.649   1.717   1.982  1.4080 -1.0332  2.8801
 5996TIP3    H239624   5.754   1.717   1.873 -0.8176  1.3944  0.5719
 5997TIP3   OH239625   0.782   5.828   2.364 -0.0552 -0.1917 -0.0914
 5997TIP3    H139626   0.803   5.749   2.412 -1.9085 -0.2491  0.7278
 5997TIP3    H239627   0.812   5.899   2.420  0.2776 -0.2916 -0.1417
 5998TIP3   OH239628   4.403   6.238   7.530  0.0164 -0.3497 -0.0966
 5998TIP3    H139629   4.384   6.218   7.438 -1.2155 -0.2543  0.1209
 5998TIP3    H239630   4.376   6.160   7.578  0.9014 -0.5045  0.1804
 5999TIP3   OH239631   3.349   3.292   7.967 -0.0666 -0.2774  0.0520
 5999TIP3    H139632   3.356   3.387   7.983  1.7079 -0.5247  1.1091
 5999TIP3    H239633   3.416   3.275   7.901 -0.7463 -0.7139 -0.5212
 6000TIP3   OH239634   4.799   6.671   1.745  0.2927 -0.3048 -0.4139
 6000TIP3    H139635   4.720   6.723   1.759  1.4124  1.1954  0.6829
 6000TIP3    H239636   4.780   6.588   1.789  0.0283  0.7578  1.6129
 6001TIP3   OH239637   5.258   5.027   1.342 -0.0481  0.1389  0.1591
 6001TIP3    H139638   5.310   4.951   1.365 -0.8211  0.1381  2.0805
 6001TIP3    H239639   5.314   5.102   1.363  0.0709  0.1312 -0.1161
 6002TIP3   OH239640   3.271   6.368   0.021 -0.0595 -0.1739 -0.2898
 6002TIP3    H139641   3.357   6.376   0.062 -0.8039 -0.3043  1.3941
 6002TIP3    H239642   3.277   6.419  -0.060  1.3702  0.4059  0.1638
 6003TIP3   OH239643   6.282   4.675   0.945  0.0393  0.2744 -0.1095
 6003TIP3    H139644   6.233   4.647   0.868  1.7973 -0.3727 -1.0537
 6003TIP3    H239645   6.328   4.596   0.974  1.8319  1.1992 -0.3018
 6004TIP3   OH239646   0.483   6.146   7.102 -0.2566 -0.4665  0.3853
 6004TIP3    H139647   0.501   6.228   7.056  1.4366 -0.5892  0.7436
 6004TIP3    H239648   0.457   6.173   7.190  1.2809 -0.2838  0.8194
 6005TIP3   OH239649   3.343   0.548   6.755  0.1772 -0.5479 -0.2387
 6005TIP3    H139650   3.251   0.567   6.737  0.2118 -1.1373 -1.0684
 6005TIP3    H239651   3.380   0.632   6.782 -0.5590 -0.2706 -0.0812
 6006TIP3   OH239652   1.530   3.802   7.966  0.1727  0.0360 -0.2589
 6006TIP3    H139653   1.561   3.714   7.988  0.1129  0.3608  1.2410
 6006TIP3    H239654   1.605   3.843   7.922  0.6936 -0.3068  0.2859
 6007TIP3   OH239655   4.331   1.159   8.372 -0.2975 -0.2468 -0.1554
 6007TIP3    H139656   4.322   1.067   8.347 -0.8341  0.3144 -2.2208
 6007TIP3    H239657   4.418   1.184   8.339  0.5659 -0.3729  1.8401
 6008TIP3   OH239658   4.549   1.944   0.296 -0.1692 -0.4222  0.0720
 6008TIP3    H139659   4.517   2.032   0.316  0.3155 -0.3272  0.4552
 6008TIP3    H239660   4.512   1.889   0.365  1.2012 -0.1574  1.0661
 6009TIP3   OH239661   1.544   3.770   0.057 -0.3469  0.2291  0.1931
 6009TIP3    H139662   1.620   3.732   0.014 -2.0596 -2.3982 -0.7416
 6009TIP3    H239663   1.572   3.784   0.147  1.0429 -1.4103  0.0611
 6010TIP3   OH239664   6.203   1.001   6.395  0.9846 -0.4645 -0.1324
 6010TIP3    H139665   6.249   0.925   6.359  1.7305  0.6907 -1.7526
 6010TIP3    H239666   6.253   1.026   6.472  1.8431 -0.5120 -0.6633
 6011TIP3   OH239667   0.917   0.689   1.957 -0.4730  0.2882 -0.4483
 6011TIP3    H139668   0.949   0.778   1.944  1.0987 -0.0085  1.0187
 6011TIP3    H239669   0.971   0.654   2.028 -2.9215 -0.8609  1.0042
 6012TIP3   OH239670   5.691   0.994   6.943 -0.1967  0.4191  0.0932
 6012TIP3    H139671   5.650   1.018   6.859  0.3013 -0.8779 -0.5515
 6012TIP3    H239672   5.676   0.900   6.951  0.2361  0.4299  1.2060
 6013TIP3   OH239673   6.231   4.855   0.204  1.1581 -0.8201  0.0585
 6013TIP3    H139674   6.213   4.769   0.165  0.8368 -0.3553 -0.8437
 6013TIP3    H239675   6.292   4.897   0.143  0.6663 -0.0857  0.0600
 6014TIP3   OH239676   0.030   3.323   7.705  0.0163  0.1926  0.0801
 6014TIP3    H139677  -0.010   3.409   7.720 -1.9616 -0.6851  0.0977
 6014TIP3    H239678   0.087   3.310   7.781  1.1899  1.9261 -0.4510
 6015TIP3   OH239679   6.478   4.897   0.066 -0.4153  0.7650  0.1902
 6015TIP3    H139680   6.519   4.978   0.036 -2.2562  1.6364 -0.1145
 6015TIP3    H239681   6.480   4.840  -0.011 -0.8763  1.2714 -0.2110
 6016TIP3   OH239682   5.471   5.595   8.258  0.7341 -0.3935 -0.1169
 6016TIP3    H139683   5.390   5.647   8.256  1.8610  1.6530  2.0319
 6016TIP3    H239684   5.494   5.583   8.166 -2.9533 -2.8181 -0.9654
 6017TIP3   OH239685   5.925   4.084   7.926  0.3862 -0.5086  0.3495
 6017TIP3    H139686   6.014   4.066   7.953  0.4531  0.8526  1.1725
 6017TIP3    H239687   5.872   4.063   8.003  0.1711  0.0252  0.3549
 6018TIP3   OH239688   1.039   2.375   6.473  0.1323 -0.3213  0.0445
 6018TIP3    H139689   1.000   2.299   6.515 -0.7499 -0.4435 -0.9494
 6018TIP3    H239690   0.970   2.442   6.477  0.3450 -0.0673 -0.4259
 6019TIP3   OH239691   2.751   3.007   7.707  0.0826 -0.8241 -0.3971
 6019TIP3    H139692   2.674   2.952   7.711 -1.5351  1.3673  2.0015
 6019TIP3    H239693   2.790   3.001   7.795 -0.5553  2.1978  0.2013
 6020TIP3   OH239694   2.980   4.807   1.919 -0.4234 -0.1215 -0.5151
 6020TIP3    H139695   2.967   4.842   2.007  1.5078  0.9949 -0.6066
 6020TIP3    H239696   3.015   4.881   1.869 -1.4972 -0.7246 -2.2470
 6021TIP3   OH239697   4.669   0.295   0.781 -0.4984 -0.0167 -0.2294
 6021TIP3    H139698   4.610   0.271   0.853 -0.6298 -2.3513 -1.0135
 6021TIP3    H239699   4.717   0.214   0.763 -1.5900 -0.0426 -3.7649
 6022TIP3   OH239700   6.753   3.124   7.003 -1.1364  0.0251  0.9946
 6022TIP3    H139701   6.715   3.108   6.916  0.8254 -0.8058  0.2147
 6022TIP3    H239702   6.736   3.216   7.021 -0.9709  0.4007 -0.6253
 6023TIP3   OH239703   3.854   1.280   7.034  0.2347  0.1470 -0.7917
 6023TIP3    H139704   3.925   1.322   7.082 -0.4244  0.2329  0.1411
 6023TIP3    H239705   3.790   1.350   7.019  0.1709 -0.0127 -1.2917
 6024TIP3   OH239706   4.959   1.899   8.059 -0.1605 -0.5814  0.0392
 6024TIP3    H139707   4.999   1.958   8.123 -0.4306  0.1352 -0.4454
 6024TIP3    H239708   4.941   1.819   8.109  0.8267 -0.5075  0.5382
 6025TIP3   OH239709   2.866   2.146   6.846  0.5226 -0.0645  0.5246
 6025TIP3    H139710   2.907   2.229   6.825 -1.2164  1.3492  2.2445
 6025TIP3    H239711   2.817   2.163   6.927 -2.1109 -1.9794 -0.5041
 6026TIP3   OH239712   0.067   2.014   1.073 -0.3522  0.1604  0.1856
 6026TIP3    H139713   0.027   2.029   1.159 -1.2493  0.0128 -0.1899
 6026TIP3    H239714   0.135   1.948   1.089 -1.8680 -1.4125  0.4677
 6027TIP3   OH239715   4.294   5.011   0.349 -0.3062 -0.2319 -0.4493
 6027TIP3    H139716   4.290   4.952   0.425  1.2147  1.3539  0.9397
 6027TIP3    H239717   4.225   5.075   0.365  1.6941  1.6611  1.0496
 6028TIP3   OH239718   6.546   2.369   1.160  0.5432 -0.2271 -0.3293
 6028TIP3    H139719   6.622   2.341   1.210  0.3984 -1.8174 -0.9391
 6028TIP3    H239720   6.581   2.430   1.095  1.3856 -1.2622 -0.8740
 6029TIP3   OH239721   5.514   4.280   7.713 -0.1067  0.3271 -0.2742
 6029TIP3    H139722   5.556   4.209   7.665 -1.8844 -0.0761 -1.3232
 6029TIP3    H239723   5.504   4.350   7.648  2.0305  1.7727  0.8560
 6030TIP3   OH239724   1.783   1.572   8.516 -0.2360 -0.3661  0.4040
 6030TIP3    H139725   1.844   1.637   8.552  0.0459  0.4672 -1.4621
 6030TIP3    H239726   1.729   1.546   8.591  0.0842  1.5118  1.3449
 6031TIP3   OH239727   0.310   5.279   7.801  0.1068  0.3588  0.4490
 6031TIP3    H139728   0.272   5.347   7.856  0.6428  0.6538  0.4657
 6031TIP3    H239729   0.397   5.265   7.837 -0.5225 -1.4207  1.3999
 6032TIP3   OH239730   4.483   0.324   1.795 -0.0714 -0.4324 -0.3019
 6032TIP3    H139731   4.390   0.336   1.817  0.2703  0.7953  0.5774
 6032TIP3    H239732   4.526   0.310   1.879  0.7916  0.9576 -0.4765
 6033TIP3   OH239733   6.881   0.461   1.093  0.0901  0.0232  0.1991
 6033TIP3    H139734   6.938   0.383   1.089  0.4520  0.2085  1.2247
 6033TIP3    H239735   6.939   0.534   1.074 -0.7422 -0.0594 -3.4095
 6034TIP3   OH239736   2.666   1.867   8.164 -0.1326  0.1278  0.0801
 6034TIP3    H139737   2.640   1.793   8.219  0.7981  0.0208  0.4064
 6034TIP3    H239738   2.736   1.910   8.214 -1.0968  1.6143  0.1826
 6035TIP3   OH239739   2.989   5.506   2.443 -0.1895  0.0829 -0.1990
 6035TIP3    H139740   3.060   5.568   2.463 -0.0907  0.0208 -0.3543
 6035TIP3    H239741   2.945   5.545   2.367  0.6311 -0.6520 -1.0697
 6036TIP3   OH239742   2.170   4.184   0.050  0.1541  0.2139  0.5364
 6036TIP3    H139743   2.089   4.159   0.005 -0.0936  2.6916 -0.5548
 6036TIP3    H239744   2.234   4.192  -0.020  0.7274  0.5294  1.0897
 6037TIP3   OH239745   0.640   6.326   8.519  0.5246  0.0168 -0.7609
 6037TIP3    H139746   0.659   6.233   8.509  0.7609 -0.1024  0.5902
 6037TIP3    H239747   0.548   6.330   8.546  1.2311 -0.0866  2.0451
 6038TIP3   OH239748   3.236   5.650   1.864  0.1261 -0.2886  0.0314
 6038TIP3    H139749   3.309   5.588   1.869  0.5974  0.2194 -0.4652
 6038TIP3    H239750   3.166   5.608   1.914  1.6236  0.4256  2.9996
 6039TIP3   OH239751   5.680   3.406   8.074  0.3446 -0.1265  0.0727
 6039TIP3    H139752   5.699   3.499   8.055  1.7307 -0.6761 -1.5408
 6039TIP3    H239753   5.760   3.360   8.048 -0.9372 -1.9674 -0.8711
 6040TIP3   OH239754   2.486   1.774   0.848 -0.0449 -0.2990 -0.1779
 6040TIP3    H139755   2.507   1.713   0.778  1.8048  0.1959 -0.1036
 6040TIP3    H239756   2.457   1.853   0.802 -3.0894 -1.3228 -0.2714
 6041TIP3   OH239757   0.140   3.548   1.025  0.5580  0.5099 -0.0823
 6041TIP3    H139758   0.098   3.464   1.044 -0.2470  0.1093 -3.0364
 6041TIP3    H239759   0.080   3.613   1.061 -1.8646 -0.1104 -2.6175
 6042TIP3   OH239760   1.421   1.414   0.479 -0.3606  0.4437  0.0894
 6042TIP3    H139761   1.397   1.323   0.461 -0.1491  0.5361 -0.6917
 6042TIP3    H239762   1.346   1.465   0.447  0.1397  0.6270 -0.8437
 6043TIP3   OH239763   6.757   4.880   6.825 -0.0067 -0.1646  1.0736
 6043TIP3    H139764   6.724   4.791   6.812  0.4839 -0.6207  2.7579
 6043TIP3    H239765   6.720   4.930   6.752  0.2836 -1.8862 -0.3247
 6044TIP3   OH239766   4.432   5.270   1.579 -0.3038 -0.7548  0.0765
 6044TIP3    H139767   4.390   5.260   1.664  2.4558 -1.4652  1.4402
 6044TIP3    H239768   4.460   5.362   1.577  0.0565 -0.8616  0.1547
 6045TIP3   OH239769   0.408   3.451   0.244  0.6673  0.0294 -0.5418
 6045TIP3    H139770   0.426   3.360   0.267  0.2772  0.0767 -0.0234
 6045TIP3    H239771   0.484   3.499   0.278  0.7727 -0.0742 -0.6284
 6046TIP3   OH239772   6.781   0.760   0.355  0.2765  0.4286  0.6399
 6046TIP3    H139773   6.770   0.744   0.262  1.5778  0.4327  0.4721
 6046TIP3    H239774   6.811   0.851   0.361  0.1510  0.4460  1.0663
 6047TIP3   OH239775   1.150   5.430   1.621  0.3644  0.0618  0.1805
 6047TIP3    H139776   1.091   5.502   1.643 -0.1348 -0.0970 -0.6002
 6047TIP3    H239777   1.209   5.468   1.555 -1.8087 -0.9956 -2.6063
 6048TIP3   OH239778   3.474   6.747   1.162 -0.1415 -1.0271 -0.8668
 6048TIP3    H139779   3.407   6.798   1.208  1.0519 -0.3003  0.1284
 6048TIP3    H239780   3.491   6.672   1.220  1.2356 -0.2023 -0.1205
 6049TIP3   OH239781   4.465   5.475   0.001  0.2560  0.1716  0.3068
 6049TIP3    H139782   4.458   5.569   0.018  1.0017  0.3888 -0.5428
 6049TIP3    H239783   4.422   5.462  -0.083 -1.2810 -0.5241  1.1556
 6050TIP3   OH239784   3.994   1.232   0.444 -0.5751 -0.2226 -0.6325
 6050TIP3    H139785   4.036   1.150   0.421 -1.5409 -0.6769 -0.8372
 6050TIP3    H239786   3.929   1.246   0.374 -0.8599  0.3766 -0.2563
 6051TIP3   OH239787   5.788   1.359   8.087 -0.4592 -0.1228  0.7539
 6051TIP3    H139788   5.787   1.338   7.994 -1.8770  1.6668  0.2935
 6051TIP3    H239789   5.710   1.317   8.122  0.1480 -0.9123  1.1838
 6052TIP3   OH239790   4.865   1.203   8.280  0.1018 -0.2135  0.0204
 6052TIP3    H139791   4.875   1.296   8.257  1.2610 -0.2249  0.4353
 6052TIP3    H239792   4.953   1.168   8.278 -0.0751 -0.8757  1.6917
 6053TIP3   OH239793   2.854   0.653   0.300 -0.2019  0.3511  0.1672
 6053TIP3    H139794   2.764   0.651   0.335  0.1551  2.3647  1.3554
 6053TIP3    H239795   2.907   0.618   0.371 -0.0900 -2.0791 -1.0041
 6054TIP3   OH239796   1.673   0.865   8.328  0.4679  0.1882  0.0418
 6054TIP3    H139797   1.675   0.781   8.282  1.1435 -0.0670  0.5172
 6054TIP3    H239798   1.721   0.849   8.409 -0.9873  0.5345  1.0080
 6055TIP3   OH239799   4.523   1.599   1.508 -0.3719  0.1940 -0.1346
 6055TIP3    H139800   4.436   1.594   1.549  0.4437  0.1181  1.6535
 6055TIP3    H239801   4.519   1.677   1.452 -0.7239  1.8637  2.1040
 6056TIP3   OH239802   3.245   5.969   7.226  0.2981  0.1677 -0.4840
 6056TIP3    H139803   3.243   6.053   7.180 -1.9910  0.0903 -0.6410
 6056TIP3    H239804   3.302   5.984   7.301 -0.3764  2.0071 -0.2922
 6057TIP3   OH239805   2.892   6.745   7.559 -0.1481  0.1355  0.5484
 6057TIP3    H139806   2.866   6.729   7.468 -0.4490 -0.8998  0.7995
 6057TIP3    H239807   2.861   6.834   7.578  2.2606  1.4243 -1.1519
 6058TIP3   OH239808   2.821   0.259   0.392  0.1947  0.1132  0.3214
 6058TIP3    H139809   2.879   0.215   0.455  1.2606  0.6544 -0.2534
 6058TIP3    H239810   2.772   0.322   0.445  0.1683 -0.3045  0.8052
 6059TIP3   OH239811   2.883   5.743   1.863 -0.6314 -0.0087  0.2458
 6059TIP3    H139812   2.788   5.733   1.873 -0.2966 -2.6896  1.4756
 6059TIP3    H239813   2.907   5.805   1.932 -1.4297  0.4156  0.1609
 6060TIP3   OH239814   0.592   6.174   2.018  0.3728  0.2492  0.1880
 6060TIP3    H139815   0.582   6.192   1.924  0.5905  1.3084  0.3590
 6060TIP3    H239816   0.538   6.097   2.033  0.3142  0.0845 -0.8057
 6061TIP3   OH239817   4.330   3.675   0.026 -0.0953  0.0350  0.2916
 6061TIP3    H139818   4.301   3.762   0.000  3.4175  1.2060 -0.3260
 6061TIP3    H239819   4.376   3.688   0.108  0.2527 -1.2868  0.3342
 6062TIP3   OH239820   6.425   2.375   1.881  0.3243 -0.0783 -0.0052
 6062TIP3    H139821   6.398   2.295   1.926 -0.2360  0.5896  0.8642
 6062TIP3    H239822   6.343   2.418   1.857  0.4944 -1.3721 -3.5459
 6063TIP3   OH239823   0.250   1.199   6.957  0.2134 -0.3228 -0.6401
 6063TIP3    H139824   0.232   1.112   6.923 -1.7907  0.5283 -1.9341
 6063TIP3    H239825   0.233   1.257   6.883  1.1151  1.2081  0.3013
 6064TIP3   OH239826   3.997   1.404   8.089  0.0883  0.1296 -0.0450
 6064TIP3    H139827   3.966   1.393   7.998  0.7569 -0.1842 -0.2381
 6064TIP3    H239828   4.091   1.391   8.084 -0.0728 -1.7115  0.9829
 6065TIP3   OH239829   2.745   6.052   2.803 -0.1113  0.1181  0.5278
 6065TIP3    H139830   2.735   6.115   2.732 -1.3692 -0.0022  0.5739
 6065TIP3    H239831   2.837   6.027   2.800  0.9914  3.4497  1.7872
 6066TIP3   OH239832   6.393   5.354   7.764 -0.3272  0.3848 -0.1567
 6066TIP3    H139833   6.485   5.378   7.766 -0.3733  0.5080  0.8143
 6066TIP3    H239834   6.390   5.267   7.805 -0.9532  1.5176  2.3773
 6067TIP3   OH239835   5.320   4.197   2.106  0.4550 -0.5574 -0.9651
 6067TIP3    H139836   5.291   4.143   2.033 -0.8414  2.0187 -2.4862
 6067TIP3    H239837   5.354   4.277   2.066 -0.5581  1.0829  1.2157
 6068TIP3   OH239838   3.969   5.677   7.720  0.0261 -0.2582 -0.2346
 6068TIP3    H139839   4.007   5.619   7.654 -0.6772 -0.9135 -0.0760
 6068TIP3    H239840   3.889   5.633   7.748 -0.5495  0.8204 -0.1425
 6069TIP3   OH239841   3.990   2.688   1.328  0.1381  0.1705 -0.1580
 6069TIP3    H139842   4.048   2.740   1.273 -0.2854 -1.0710 -1.8795
 6069TIP3    H239843   3.907   2.685   1.280  0.0419 -1.7410  0.0308
 6070TIP3   OH239844   6.685   6.660   0.405 -0.0019  0.1141 -0.0673
 6070TIP3    H139845   6.657   6.613   0.327 -0.8454 -1.6500  1.2177
 6070TIP3    H239846   6.677   6.752   0.382  2.4427 -0.2203 -2.9613
 6071TIP3   OH239847   3.473   4.367   7.426 -0.1380 -0.3259  0.6840
 6071TIP3    H139848   3.424   4.407   7.497 -2.2814 -2.8340  0.7808
 6071TIP3    H239849   3.500   4.282   7.462  0.7161 -0.6999 -0.7810
 6072TIP3   OH239850   4.420   3.056   7.539 -0.0099  0.5591 -0.3182
 6072TIP3    H139851   4.452   3.141   7.567 -0.2748  0.6798 -0.3838
 6072TIP3    H239852   4.407   3.064   7.445 -2.2574  1.1849 -0.0040
 6073TIP3   OH239853   2.047   2.338   7.555  0.3562 -0.0458 -0.0557
 6073TIP3    H139854   1.967   2.389   7.566  0.3961 -0.3081  1.8176
 6073TIP3    H239855   2.019   2.260   7.507 -0.6484 -0.3701  1.0036
 6074TIP3   OH239856   4.172   5.520   8.249 -0.3561  0.4403 -0.5386
 6074TIP3    H139857   4.106   5.488   8.188 -0.2416  1.0365 -0.9748
 6074TIP3    H239858   4.128   5.589   8.299 -0.8381 -0.8537  0.9237
 6075TIP3   OH239859   0.123   1.309   0.428  0.3065  0.1570 -0.1016
 6075TIP3    H139860   0.109   1.239   0.492  1.6359 -0.1745 -0.1550
 6075TIP3    H239861   0.188   1.274   0.367  0.7583  1.3195 -0.3152
 6076TIP3   OH239862   5.671   1.803   0.181  0.2494  0.1721  0.0658
 6076TIP3    H139863   5.578   1.784   0.176  0.1663 -0.4526  2.6906
 6076TIP3    H239864   5.699   1.768   0.265  3.2667 -1.3326 -1.3766
 6077TIP3   OH239865   5.246   2.424   7.582  0.2263 -0.4478 -0.7454
 6077TIP3    H139866   5.271   2.447   7.671 -0.0581  1.6499 -1.1652
 6077TIP3    H239867   5.216   2.333   7.588  0.6834 -0.4983  1.1835
 6078TIP3   OH239868   4.136   5.675   2.268 -0.1469 -0.0520 -0.2418
 6078TIP3    H139869   4.115   5.585   2.241 -2.2643  0.7128 -1.3785
 6078TIP3    H239870   4.097   5.682   2.356 -2.7851  0.5944 -1.3579
 6079TIP3   OH239871   1.209   1.381   1.295 -0.4020  0.0498 -0.2099
 6079TIP3    H139872   1.223   1.476   1.292  0.7975 -0.1130 -0.1038
 6079TIP3    H239873   1.283   1.347   1.345  0.0665 -1.1250 -1.6464
 6080TIP3   OH239874   1.441   4.274   1.933 -0.5846  0.2702 -0.1274
 6080TIP3    H139875   1.424   4.331   2.008 -0.4703 -0.0728  0.1652
 6080TIP3    H239876   1.398   4.317   1.859 -2.1829 -0.2404  0.4601
 6081TIP3   OH239877   6.051   6.559   2.769 -0.1405  0.0777  0.5516
 6081TIP3    H139878   6.089   6.487   2.819  1.7564 -0.3247 -1.3390
 6081TIP3    H239879   6.111   6.633   2.784 -0.6137  0.5108  0.3600
 6082TIP3   OH239880   1.457   2.143   7.979  0.5193 -0.2141 -0.5571
 6082TIP3    H139881   1.480   2.202   7.907  3.1230 -1.0506 -0.5170
 6082TIP3    H239882   1.415   2.200   8.044 -0.2535  0.8932 -1.9607
 6083TIP3   OH239883   2.078   4.886   0.381 -0.3461 -0.1315  0.0257
 6083TIP3    H139884   2.050   4.809   0.332  0.6531  0.4926 -1.5995
 6083TIP3    H239885   1.997   4.925   0.413 -0.8324 -3.2998  3.3561
 6084TIP3   OH239886   1.838   6.038   1.910 -0.4405 -0.3745 -0.0112
 6084TIP3    H139887   1.905   5.980   1.874 -1.2767 -1.8698  0.7637
 6084TIP3    H239888   1.837   6.018   2.004  0.5462  2.2561  0.6630
 6085TIP3   OH239889   4.361   5.693   7.758 -0.3444 -0.1876  0.3630
 6085TIP3    H139890   4.345   5.718   7.667  0.3922  0.5216  0.4111
 6085TIP3    H239891   4.366   5.776   7.805  1.3409 -0.4212  0.6827
 6086TIP3   OH239892   5.280   1.230   0.500  0.2095 -0.3188  0.2651
 6086TIP3    H139893   5.354   1.170   0.513  1.4636  0.7248 -1.6154
 6086TIP3    H239894   5.255   1.256   0.589  2.6105 -0.1488  0.9797
 6087TIP3   OH239895   4.661   5.261   1.094 -0.3286 -0.1124  0.1868
 6087TIP3    H139896   4.575   5.254   1.135 -0.2387 -0.0308  0.3891
 6087TIP3    H239897   4.718   5.206   1.147  0.0619  0.9671  0.9206
 6088TIP3   OH239898   2.608   3.135   0.634  0.5937  0.3492  0.2290
 6088TIP3    H139899   2.525   3.146   0.681  1.2237 -1.3977  1.8541
 6088TIP3    H239900   2.646   3.222   0.633 -0.9561  1.0701 -0.0174
 6089TIP3   OH239901   4.581   5.101   0.742  0.3905  0.2338 -0.1137
 6089TIP3    H139902   4.491   5.106   0.709  0.2455 -1.0833  0.0466
 6089TIP3    H239903   4.594   5.185   0.787 -0.8289  0.3564  0.0593
 6090TIP3   OH239904   1.465   5.432   1.210  0.4540 -0.1191 -0.1196
 6090TIP3    H139905   1.482   5.338   1.212 -0.4964 -0.2925  1.9526
 6090TIP3    H239906   1.552   5.472   1.212  0.8497 -0.9578  0.0329
 6091TIP3   OH239907   5.528   6.113   8.526  0.2217 -0.3352 -0.4063
 6091TIP3    H139908   5.513   6.020   8.543 -0.1998 -0.2310 -0.2148
 6091TIP3    H239909   5.618   6.128   8.555 -0.3281 -0.2568  1.4034
 6092TIP3   OH239910   3.386   2.835   7.323  0.1878 -0.1761  0.0311
 6092TIP3    H139911   3.441   2.765   7.286 -0.0934 -0.1308 -0.4796
 6092TIP3    H239912   3.311   2.789   7.361  1.0354 -0.3240  1.6092
 6093TIP3   OH239913   6.052   3.114   7.569  0.0170  0.0143  0.1908
 6093TIP3    H139914   5.959   3.123   7.591  0.0007 -0.3777  0.2969
 6093TIP3    H239915   6.052   3.089   7.477 -0.0100 -0.5505  0.3396
 6094TIP3   OH239916   6.382   3.056   1.874  0.0214 -0.1808  0.2058
 6094TIP3    H139917   6.446   3.117   1.911 -0.6499  1.9847 -1.9801
 6094TIP3    H239918   6.343   3.014   1.951  1.5134  1.0608  1.7368
 6095TIP3   OH239919   6.829   0.060   2.010 -0.1377 -0.2257  0.2358
 6095TIP3    H139920   6.908   0.019   2.044  1.4597  1.7691 -0.8859
 6095TIP3    H239921   6.761  -0.007   2.021  2.2144 -3.0953 -1.2217
 6096TIP3   OH239922   5.989   6.725   1.295  0.4806 -0.2071  0.0052
 6096TIP3    H139923   6.057   6.759   1.353 -0.4283 -0.3931  1.2214
 6096TIP3    H239924   5.996   6.630   1.304 -1.4854 -0.2381  2.0978
 6097TIP3   OH239925   6.279   2.176   8.387  1.0243  0.0584 -0.2594
 6097TIP3    H139926   6.370   2.196   8.367  1.1210 -0.3549 -0.2364
 6097TIP3    H239927   6.238   2.157   8.303  1.0106  0.0216 -0.2441
 6098TIP3   OH239928   4.398   2.464   1.635  0.4606  0.1156 -0.1685
 6098TIP3    H139929   4.315   2.499   1.603 -0.1949 -0.8601  0.4348
 6098TIP3    H239930   4.423   2.399   1.570  1.6096  1.5432 -1.2153
 6099TIP3   OH239931   3.132   1.291   2.261 -0.0607  0.0040 -0.5743
 6099TIP3    H139932   3.082   1.373   2.270 -1.2794 -0.8157  0.4064
 6099TIP3    H239933   3.224   1.320   2.257 -0.4494  1.4172 -0.0230
 6100TIP3   OH239934   2.859   5.710   7.598 -0.2092  0.4755  0.0850
 6100TIP3    H139935   2.772   5.671   7.584 -0.2091  0.7876 -0.8212
 6100TIP3    H239936   2.877   5.694   7.691 -0.2228 -1.6552 -0.2215
 6101TIP3   OH239937   4.394   3.786   7.508 -0.0181  0.0814  0.2513
 6101TIP3    H139938   4.476   3.783   7.459  0.4979  0.1037  1.0802
 6101TIP3    H239939   4.343   3.856   7.466 -0.6424 -1.5128 -1.7820
 6102TIP3   OH239940   3.590   2.458   0.781 -0.2589  0.0516  0.2576
 6102TIP3    H139941   3.667   2.448   0.836 -1.1615  0.2986  1.6199
 6102TIP3    H239942   3.623   2.450   0.692  1.0379 -1.9968  0.8438
 6103TIP3   OH239943   3.238   5.627   6.993 -0.1467 -1.0448 -0.5096
 6103TIP3    H139944   3.229   5.684   6.917 -1.6941  0.6544  0.8738
 6103TIP3    H239945   3.305   5.563   6.967  0.2127  0.1749 -2.8358
 6104TIP3   OH239946   2.500   4.207   0.272  0.0020 -0.1041  0.4415
 6104TIP3    H139947   2.509   4.191   0.178  0.0793 -1.8907  0.7042
 6104TIP3    H239948   2.446   4.134   0.303  2.2599 -1.1561  2.1964
 6105TIP3   OH239949   0.080   6.639   0.942  0.2676 -0.2448 -0.4057
 6105TIP3    H139950   0.049   6.713   0.890 -0.6015  0.7249  1.4047
 6105TIP3    H239951   0.003   6.583   0.953  0.8780 -1.3770 -1.6168
 6106TIP3   OH239952   6.574   3.554   7.755 -0.3307  0.7409  0.0266
 6106TIP3    H139953   6.555   3.525   7.666  0.7972 -1.5283  0.4458
 6106TIP3    H239954   6.601   3.645   7.746  0.0968  0.4558 -1.9820
 6107TIP3   OH239955   0.382   0.798   0.888  0.2388  0.3347  0.0139
 6107TIP3    H139956   0.363   0.875   0.834 -0.5070  0.4845  0.4644
 6107TIP3    H239957   0.436   0.832   0.959  1.3567  0.1072 -0.7012
 6108TIP3   OH239958   1.662   0.708   1.384  0.2862 -0.2954 -0.3935
 6108TIP3    H139959   1.607   0.634   1.357 -1.0600  0.6314 -0.2571
 6108TIP3    H239960   1.647   0.715   1.478  1.4912 -0.7018 -0.1603
 6109TIP3   OH239961   6.286   1.610   8.615 -0.1256  0.0156  0.0118
 6109TIP3    H139962   6.244   1.683   8.570  2.0062 -0.0627 -2.3631
 6109TIP3    H239963   6.375   1.608   8.578  0.8781 -1.8686  2.2834
 6110TIP3   OH239964   6.839   1.874   2.189  0.4066  0.6857  0.1417
 6110TIP3    H139965   6.900   1.812   2.227  1.3545  1.5189  0.0175
 6110TIP3    H239966   6.753   1.832   2.198  1.1495 -1.1590 -1.0516
 6111TIP3   OH239967   3.547   2.635   8.240 -0.5185  0.0645  0.0607
 6111TIP3    H139968   3.488   2.663   8.310 -0.4166  1.1345 -0.2576
 6111TIP3    H239969   3.531   2.542   8.231  0.4252 -0.4260  2.4547
 6112TIP3   OH239970   6.036   6.642   0.698 -0.5755 -0.2720 -0.4782
 6112TIP3    H139971   6.060   6.720   0.647  4.7440 -1.7621 -0.8308
 6112TIP3    H239972   6.036   6.672   0.789 -2.4291  0.7838 -0.7630
 6113TIP3   OH239973   2.318   2.115   0.121 -0.7189 -0.2027 -0.0875
 6113TIP3    H139974   2.253   2.173   0.161  0.3922  0.7361  0.4132
 6113TIP3    H239975   2.338   2.156   0.037  0.0227  0.1291  0.2401
 6114TIP3   OH239976   6.157   3.782   8.358 -0.5523 -0.1091 -0.0312
 6114TIP3    H139977   6.231   3.842   8.362 -1.0737  0.5027  0.7106
 6114TIP3    H239978   6.185   3.707   8.411 -1.2875  1.0962  2.2132
 6115TIP3   OH239979   6.025   3.174   0.360  0.2443 -0.0992 -0.5134
 6115TIP3    H139980   6.094   3.113   0.386  0.7724  1.1645  1.2318
 6115TIP3    H239981   5.947   3.119   0.350  0.9623 -1.2126 -0.1751
 6116TIP3   OH239982   0.019   0.996   0.376  0.6291 -0.3805 -0.1569
 6116TIP3    H139983  -0.019   1.078   0.345  1.2588 -0.4994 -1.2929
 6116TIP3    H239984   0.047   1.015   0.466  0.4968  0.5578 -0.3096
 6117TIP3   OH239985   5.170   3.849   7.837 -0.0600  0.4627  0.0599
 6117TIP3    H139986   5.162   3.878   7.927  1.4854  2.0550 -0.2622
 6117TIP3    H239987   5.216   3.765   7.843  0.5896  0.8520  0.7414
 6118TIP3   OH239988   6.893   0.506   2.512 -0.0659 -0.0254 -0.2346
 6118TIP3    H139989   6.965   0.548   2.558  1.2295 -1.6510 -0.6974
 6118TIP3    H239990   6.926   0.419   2.489 -2.0599 -0.7077 -0.7445
 6119TIP3   OH239991   5.999   3.932   1.943  0.0237 -0.3576  0.5295
 6119TIP3    H139992   5.970   3.868   1.878  1.7952  0.5739 -1.2924
 6119TIP3    H239993   6.054   3.881   2.003 -3.3551 -1.7107  2.8521
 6120TIP3   OH239994   4.123   3.239   8.543 -0.0843 -0.9948 -1.0365
 6120TIP3    H139995   4.208   3.267   8.511  1.1168 -1.0835  1.7573
 6120TIP3    H239996   4.143   3.173   8.610 -2.3957 -1.6358 -0.8831
 6121TIP3   OH239997   5.473   2.733   7.720  0.1776  0.1142  0.5954
 6121TIP3    H139998   5.508   2.646   7.701 -2.1116 -0.5269 -1.1715
 6121TIP3    H239999   5.431   2.723   7.806 -1.0661 -0.8960 -0.1025
 6122TIP3   OH240000   3.397   6.820   1.801  0.1876 -0.3973 -0.2341
 6122TIP3    H140001   3.459   6.803   1.873  0.7687  0.5483 -0.5028
 6122TIP3    H240002   3.422   6.905   1.767 -0.7458 -0.3755 -0.9013
 6123TIP3   OH240003   0.474   5.806   7.685 -0.5299 -0.1995 -0.2539
 6123TIP3    H140004   0.384   5.774   7.687 -0.4299 -0.6693 -2.0273
 6123TIP3    H240005   0.465   5.901   7.675 -0.8370 -0.3007 -1.0039
 6124TIP3   OH240006   0.766   3.991   6.738  0.0330  0.1275  0.1156
 6124TIP3    H140007   0.778   3.952   6.825 -0.6935  0.6887  0.4881
 6124TIP3    H240008   0.675   3.972   6.716 -0.3930  1.6861  0.3702
 6125TIP3   OH240009   4.435   0.433   8.131  0.3378  0.2331  0.0991
 6125TIP3    H140010   4.378   0.476   8.067 -0.9155 -1.7170 -0.1693
 6125TIP3    H240011   4.473   0.359   8.083  0.6998 -0.2721  1.1290
 6126TIP3   OH240012   0.351   0.271   7.866 -0.1396 -0.0922 -0.3848
 6126TIP3    H140013   0.265   0.311   7.851 -0.6657 -1.2031 -0.4525
 6126TIP3    H240014   0.331   0.182   7.895  0.9881 -0.1949  0.1284
 6127TIP3   OH240015   5.124   3.686   0.568 -0.3130 -0.3500  0.5441
 6127TIP3    H140016   5.078   3.609   0.535  1.2904 -0.1446 -2.5054
 6127TIP3    H240017   5.120   3.749   0.496  0.1798  1.6787  2.1981
 6128TIP3   OH240018   4.784   2.174   0.803  0.2750  0.0003  0.1258
 6128TIP3    H140019   4.749   2.127   0.879  0.3958 -0.7583 -0.2772
 6128TIP3    H240020   4.815   2.257   0.839 -0.3046 -0.0622  0.7889
 6129TIP3   OH240021   2.906   3.528   8.533 -0.3649  0.2457 -0.4570
 6129TIP3    H140022   2.945   3.567   8.611 -1.5802 -3.9441  2.6299
 6129TIP3    H240023   2.978   3.478   8.494 -0.8779 -2.0755  1.3501
 6130TIP3   OH240024   1.982   4.144   1.357 -0.7311 -1.1971 -0.4525
 6130TIP3    H140025   1.930   4.200   1.415 -1.4202 -2.0973 -0.1715
 6130TIP3    H240026   2.015   4.203   1.290  1.3796  0.2012  1.6554
 6131TIP3   OH240027   4.113   6.669   0.449 -0.3054  0.5174 -0.2329
 6131TIP3    H140028   4.148   6.723   0.378  1.3234 -0.8548 -0.5286
 6131TIP3    H240029   4.121   6.724   0.527  0.2101  1.1419 -0.7131
 6132TIP3   OH240030   5.421   3.764   8.037 -0.3677 -0.4841 -0.4041
 6132TIP3    H140031   5.493   3.701   8.033  0.1435  0.1215 -1.1351
 6132TIP3    H240032   5.450   3.836   7.981  0.2907  1.6957  2.4924
 6133TIP3   OH240033   2.826   5.180   2.647  0.3482 -0.2553 -0.3334
 6133TIP3    H140034   2.881   5.135   2.711 -0.1789 -0.6073 -0.1180
 6133TIP3    H240035   2.846   5.273   2.659 -1.2439 -0.1006  1.8257
 6134TIP3   OH240036   6.761   5.259   1.121  0.8082 -0.1016 -0.3385
 6134TIP3    H140037   6.725   5.257   1.033  0.5125  0.3671 -0.2345
 6134TIP3    H240038   6.756   5.351   1.147  1.1718 -0.1854  0.0527
 6135TIP3   OH240039   4.003   6.022   1.181  0.1987 -0.4210  0.2971
 6135TIP3    H140040   3.944   6.085   1.140 -0.9271 -1.2381  0.6118
 6135TIP3    H240041   4.091   6.048   1.151 -0.5466 -1.2631 -3.0650
 6136TIP3   OH240042   5.230   6.383   8.190 -0.3534  0.0167 -0.1738
 6136TIP3    H140043   5.140   6.350   8.192 -0.9869  1.6765  0.3592
 6136TIP3    H240044   5.255   6.390   8.282 -0.3865  1.3291 -0.2465
 6137TIP3   OH240045   2.865   6.029   2.472 -0.2379 -0.3688 -0.7767
 6137TIP3    H140046   2.798   5.979   2.425 -0.8762  3.0919 -4.0314
 6137TIP3    H240047   2.817   6.101   2.513  1.1022  0.1651 -0.0872
 6138TIP3   OH240048   0.312   0.888   2.453 -0.1610 -0.5033 -0.2609
 6138TIP3    H140049   0.227   0.931   2.466 -1.0617 -2.4220  0.6229
 6138TIP3    H240050   0.313   0.866   2.360 -0.8959 -0.9820 -0.1594
 6139TIP3   OH240051   4.932   3.745   6.674 -0.3609 -0.5239 -0.6290
 6139TIP3    H140052   4.852   3.788   6.704 -0.0983 -1.3204  1.3860
 6139TIP3    H240053   4.993   3.816   6.658 -0.0895 -0.0318  2.1645
 6140TIP3   OH240054   0.281   1.331   7.753  1.1514  0.7240  0.3144
 6140TIP3    H140055   0.369   1.308   7.723  0.5652  0.7504 -1.5350
 6140TIP3    H240056   0.230   1.251   7.740  0.6374  1.0530  0.2844
 6141TIP3   OH240057   1.504   4.672   1.750  0.3073  0.4449 -0.2158
 6141TIP3    H140058   1.441   4.614   1.708 -0.7939 -0.2517  2.1748
 6141TIP3    H240059   1.573   4.613   1.782  0.9727  0.9148 -0.7551
 6142TIP3   OH240060   3.897   4.045   0.513 -0.0172 -0.3180 -0.0325
 6142TIP3    H140061   3.869   4.113   0.451 -0.8139 -1.1961 -0.6610
 6142TIP3    H240062   3.905   4.091   0.597 -0.3472  0.5949 -0.4878
 6143TIP3   OH240063   1.613   6.757   0.911 -0.4607  0.0334  0.0149
 6143TIP3    H140064   1.672   6.778   0.984 -1.4037 -0.1057  0.8370
 6143TIP3    H240065   1.586   6.842   0.877 -0.4871  0.1026  0.2090
 6144TIP3   OH240066   5.241   1.437   6.867  0.4561  0.2920  0.1836
 6144TIP3    H140067   5.248   1.391   6.950 -0.1345  2.0239  1.2507
 6144TIP3    H240068   5.148   1.458   6.858  0.1544 -1.5631 -1.9351
 6145TIP3   OH240069   0.619   6.558   0.390 -0.3411 -0.1168 -0.3454
 6145TIP3    H140070   0.633   6.650   0.367  2.3887 -0.6647 -1.1568
 6145TIP3    H240071   0.626   6.511   0.308 -0.0225 -1.2051  0.2816
 6146TIP3   OH240072   5.280   1.902   1.257  0.0696  0.1049 -0.0700
 6146TIP3    H140073   5.189   1.905   1.228  0.6219 -2.3066 -2.5130
 6146TIP3    H240074   5.282   1.836   1.326 -0.2420  1.3949  1.2228
 6147TIP3   OH240075   4.258   4.083   7.062  0.2228 -0.6198  0.0553
 6147TIP3    H140076   4.218   4.106   6.978 -0.7547 -0.6963  0.4852
 6147TIP3    H240077   4.274   3.989   7.056  0.7647 -0.5090 -0.2890
 6148TIP3   OH240078   2.499   3.061   2.738 -0.2772 -0.5420  0.4501
 6148TIP3    H140079   2.414   3.104   2.727  0.2116  0.1840 -0.6475
 6148TIP3    H240080   2.544   3.113   2.803 -0.1420 -0.0800 -0.0067
 6149TIP3   OH240081   3.808   2.270   7.912 -0.3148 -0.2647 -0.2016
 6149TIP3    H140082   3.745   2.258   7.983  1.4227  1.6935  1.8184
 6149TIP3    H240083   3.771   2.341   7.859 -0.0346  0.5796  0.7199
 6150TIP3   OH240084   3.539   6.588   7.129  0.4028  0.0534  0.2127
 6150TIP3    H140085   3.589   6.530   7.072 -0.8691  1.0142 -2.0412
 6150TIP3    H240086   3.587   6.671   7.127  0.5633 -0.0179  0.8884
 6151TIP3   OH240087   1.776   6.639   1.738 -0.1445  0.1180 -0.0996
 6151TIP3    H140088   1.716   6.628   1.664 -1.8015  1.5701  0.9505
 6151TIP3    H240089   1.812   6.728   1.726  0.7298 -0.2069  0.0501
 6152TIP3   OH240090   1.693   5.806   0.674 -0.0368 -0.5933  0.6611
 6152TIP3    H140091   1.661   5.877   0.731 -1.1044 -0.9086  0.4821
 6152TIP3    H240092   1.677   5.726   0.724 -1.9128 -0.9607 -0.4361
 6153TIP3   OH240093   4.631   3.084   1.092 -0.3629 -0.3766  0.2701
 6153TIP3    H140094   4.694   3.066   1.162  0.4587  0.8255 -0.1185
 6153TIP3    H240095   4.676   3.060   1.011 -0.1498  0.9999 -0.0588
 6154TIP3   OH240096   3.085   1.361   0.856  0.1851 -0.2400  0.1232
 6154TIP3    H140097   3.066   1.455   0.867  0.5025 -0.3082  1.2852
 6154TIP3    H240098   3.145   1.340   0.926 -1.0519 -1.6656  0.8037
 6155TIP3   OH240099   2.641   6.246   0.447 -0.2729  0.0563  0.0200
 6155TIP3    H140100   2.715   6.243   0.387  0.2384  0.1677  0.6307
 6155TIP3    H240101   2.576   6.187   0.409  0.1307 -0.0430 -0.5194
 6156TIP3   OH240102   3.696   0.212   7.667  0.0344  0.2304 -0.5345
 6156TIP3    H140103   3.612   0.168   7.655  0.1905  0.1919 -1.5130
 6156TIP3    H240104   3.673   0.301   7.693 -0.3232  0.4228 -1.4967
 6157TIP3   OH240105   3.435   5.706   8.218 -0.1207 -0.1301 -0.2338
 6157TIP3    H140106   3.489   5.778   8.251  0.1102 -0.4647  0.1329
 6157TIP3    H240107   3.449   5.635   8.280  0.6019 -0.9075 -1.2562
 6158TIP3   OH240108   6.114   0.025   2.413  0.1696  1.2666  0.4076
 6158TIP3    H140109   6.121  -0.024   2.494 -1.2444  0.8250  0.2792
 6158TIP3    H240110   6.033   0.075   2.421 -0.7854  0.1089 -1.2913
 6159TIP3   OH240111   0.870   0.682   2.947 -0.4446 -0.3094  0.0131
 6159TIP3    H140112   0.788   0.632   2.948 -0.3733 -0.4955  2.4766
 6159TIP3    H240113   0.929   0.632   3.004  0.4791  1.2172  0.4443
 6160TIP3   OH240114   2.724   2.787   8.110  0.1173 -0.0731 -0.1275
 6160TIP3    H140115   2.706   2.745   8.025 -1.5378 -0.0226  0.1690
 6160TIP3    H240116   2.730   2.880   8.090  0.3704 -0.1169 -0.2698
 6161TIP3   OH240117   2.798   1.506   8.150  0.0025  0.0908 -0.0267
 6161TIP3    H140118   2.749   1.462   8.080  0.3077  0.2822 -0.3710
 6161TIP3    H240119   2.731   1.542   8.208 -0.2645  0.2954 -0.4574
 6162TIP3   OH240120   0.325   1.301   2.098 -0.1520 -0.0460  0.3657
 6162TIP3    H140121   0.244   1.351   2.103 -1.0136 -1.3529  0.0850
 6162TIP3    H240122   0.381   1.351   2.038 -1.0299  0.5177  0.0037
 6163TIP3   OH240123   6.757   2.866   0.063 -0.1777 -0.3733  0.3875
 6163TIP3    H140124   6.807   2.928   0.010  0.8183 -2.0225 -0.7242
 6163TIP3    H240125   6.667   2.873   0.030  0.2262 -0.6176 -0.8419
 6164TIP3   OH240126   2.041   5.042   1.693  0.0782  0.0945 -0.2114
 6164TIP3    H140127   2.000   5.108   1.637  1.5258  0.3158 -1.0647
 6164TIP3    H240128   1.997   4.960   1.671 -0.7147  0.5208 -0.2255
 6165TIP3   OH240129   5.642   5.133   0.962  0.2064  0.4766  0.1872
 6165TIP3    H140130   5.732   5.141   0.993  0.9540 -2.3501 -0.9234
 6165TIP3    H240131   5.628   5.211   0.908  1.3282  1.8264  1.7315
 6166TIP3   OH240132   0.886   0.540   8.651  0.8631  0.5198 -0.2013
 6166TIP3    H140133   0.895   0.526   8.557  3.0054 -0.8586  0.1519
 6166TIP3    H240134   0.915   0.630   8.665 -2.3854  1.8861 -1.1302
 6167TIP3   OH240135   2.100   3.988   2.063  0.6025 -0.4476 -0.1100
 6167TIP3    H140136   2.064   4.073   2.088  0.8751 -0.6392  1.0275
 6167TIP3    H240137   2.032   3.925   2.089  1.5981 -0.7941  1.8748
 6168TIP3   OH240138   6.605   2.475   7.487  0.4543 -0.1060  0.3779
 6168TIP3    H140139   6.599   2.565   7.519  0.4507 -0.0416  0.1996
 6168TIP3    H240140   6.621   2.484   7.393  0.1645 -0.2891  0.3080
 6169TIP3   OH240141   3.927   2.275   6.444 -0.0900 -0.0755  0.4544
 6169TIP3    H140142   3.953   2.367   6.454 -0.5806 -0.1133  2.3783
 6169TIP3    H240143   3.961   2.231   6.522  1.0158 -1.7828 -0.8911
 6170TIP3   OH240144   3.873   3.271   7.749  0.4275 -0.3224 -0.5639
 6170TIP3    H140145   3.937   3.213   7.709  0.0783  0.3161 -2.1151
 6170TIP3    H240146   3.894   3.358   7.715  0.4582  0.3739  1.1040
 6171TIP3   OH240147   1.991   4.767   7.319  0.7704  0.3983 -0.1308
 6171TIP3    H140148   1.902   4.749   7.289 -0.3652  1.6047  2.2463
 6171TIP3    H240149   2.040   4.687   7.300 -1.4311 -1.2292  0.6567
 6172TIP3   OH240150   0.447   6.455   1.489  0.1414  0.1559 -0.1174
 6172TIP3    H140151   0.501   6.517   1.441 -2.0106  2.4162  0.1892
 6172TIP3    H240152   0.510   6.405   1.542  1.9651  2.4618  0.0748
 6173TIP3   OH240153   4.973   0.383   6.967 -0.2022  0.5082 -1.0419
 6173TIP3    H140154   5.001   0.328   6.894  1.4824 -1.4384  0.9358
 6173TIP3    H240155   4.918   0.325   7.021  0.1088  1.2974  0.1678
 6174TIP3   OH240156   4.523   5.941   8.511  0.0089  0.2942  0.0343
 6174TIP3    H140157   4.604   5.951   8.561 -1.0935  0.2077  1.9192
 6174TIP3    H240158   4.493   6.031   8.497  0.2771  0.3157 -0.4190
 6175TIP3   OH240159   6.188   6.826   2.667  0.4624 -0.6737  0.3909
 6175TIP3    H140160   6.257   6.760   2.661 -0.0158 -1.1197 -0.4162
 6175TIP3    H240161   6.229   6.900   2.711  1.8887 -0.3824 -1.3338
 6176TIP3   OH240162   3.896   0.150   8.192  0.0956 -0.2996  0.4496
 6176TIP3    H140163   3.820   0.187   8.147 -1.4308 -1.8508  1.6082
 6176TIP3    H240164   3.970   0.169   8.134 -1.2750  0.5725 -1.1120
 6177TIP3   OH240165   4.445   0.601   2.616  0.0445 -0.0280 -0.2016
 6177TIP3    H140166   4.385   0.666   2.581 -1.1126 -1.0852 -0.2709
 6177TIP3    H240167   4.487   0.643   2.691 -1.6982  0.3433  0.6051
 6178TIP3   OH240168   6.242   5.633   1.930 -0.2605 -0.8478  0.1833
 6178TIP3    H140169   6.159   5.682   1.932 -0.1841 -0.7154  2.4655
 6178TIP3    H240170   6.267   5.633   1.838 -0.7607  2.5604 -0.0688
 6179TIP3   OH240171   2.960   4.159   1.243  0.0654 -0.7514  0.0530
 6179TIP3    H140172   3.050   4.172   1.272 -0.6207  1.9457  1.3371
 6179TIP3    H240173   2.951   4.214   1.165 -0.6299 -0.3906  0.3740
 6180TIP3   OH240174   2.748   3.382   2.593 -0.1962  0.2763  0.2985
 6180TIP3    H140175   2.802   3.373   2.514 -1.9335 -1.1591 -0.8007
 6180TIP3    H240176   2.807   3.419   2.659  1.7161  0.0728 -1.2323
 6181TIP3   OH240177   1.336   0.458   2.477 -0.0286  0.2878  0.7050
 6181TIP3    H140178   1.269   0.396   2.450  0.2630  0.3330 -0.1732
 6181TIP3    H240179   1.313   0.482   2.567 -1.5274  0.7800  0.2041
 6182TIP3   OH240180   1.044   3.374   8.302 -0.2116  0.3353  0.3426
 6182TIP3    H140181   1.035   3.310   8.231  0.6567 -0.1380  0.6472
 6182TIP3    H240182   0.992   3.449   8.273  0.6702  0.4224 -1.1108
 6183TIP3   OH240183   0.235   6.667   0.351  0.1109  0.2763 -0.1074
 6183TIP3    H140184   0.326   6.641   0.342 -0.2635 -1.2197  0.2379
 6183TIP3    H240185   0.220   6.726   0.278  1.3938  0.6893 -0.0638
 6184TIP3   OH240186   3.424   5.305   6.601  0.2035  0.1643  0.5122
 6184TIP3    H140187   3.512   5.325   6.632 -0.1602 -0.9128  2.3653
 6184TIP3    H240188   3.433   5.223   6.553 -0.0368 -0.9484  2.2863
 6185TIP3   OH240189   4.505   0.824   1.709  0.6907 -0.7806  0.3253
 6185TIP3    H140190   4.500   0.841   1.803  0.6477 -0.0640  0.2015
 6185TIP3    H240191   4.514   0.729   1.702 -0.8798 -1.0128  1.0048
 6186TIP3   OH240192   6.259   4.891   0.685 -0.7757  0.2954  0.3720
 6186TIP3    H140193   6.283   4.822   0.623  1.8771  0.1786  1.4262
 6186TIP3    H240194   6.264   4.972   0.634  1.2555  0.1898  0.3352
 6187TIP3   OH240195   0.256   3.759   0.063  0.5340 -0.2974  0.2007
 6187TIP3    H140196   0.168   3.795   0.054  1.0773  0.5543 -2.5275
 6187TIP3    H240197   0.281   3.779   0.154 -2.6376 -2.1173  1.6276
 6188TIP3   OH240198   4.465   6.254   1.887  0.7675 -0.4087  0.5557
 6188TIP3    H140199   4.487   6.176   1.837  0.4042 -0.6164  0.7078
 6188TIP3    H240200   4.375   6.274   1.860  0.5774 -0.5107  1.0956
 6189TIP3   OH240201   0.112   6.729   1.203 -0.1877 -0.2200  0.5848
 6189TIP3    H140202   0.192   6.781   1.208 -0.6123  0.4170  1.0596
 6189TIP3    H240203   0.096   6.718   1.109  1.2126 -1.5829  0.4834
 6190TIP3   OH240204   4.554   3.631   8.537 -0.4242  0.3675 -0.2436
 6190TIP3    H140205   4.598   3.555   8.576  1.9077  1.6169 -0.3167
 6190TIP3    H240206   4.478   3.646   8.594 -1.0824 -2.0989 -0.3487
 6191TIP3   OH240207   4.396   1.324   7.672  0.1502  0.4202 -0.0285
 6191TIP3    H140208   4.479   1.351   7.712 -0.2432  0.5909  0.7038
 6191TIP3    H240209   4.353   1.406   7.648  0.1472  0.3385 -0.2998
 6192TIP3   OH240210   5.278   2.200   2.551  0.4938 -0.1669  0.3842
 6192TIP3    H140211   5.358   2.184   2.602  1.0984 -2.3131 -1.0905
 6192TIP3    H240212   5.222   2.125   2.570 -1.9949  2.0558  2.6240
 6193TIP3   OH240213   2.336   6.750   7.140 -0.0929  0.4276  0.4539
 6193TIP3    H140214   2.372   6.667   7.169  0.3510  0.6071  0.4305
 6193TIP3    H240215   2.241   6.739   7.144 -0.0426 -0.2762 -0.1046
 6194TIP3   OH240216   5.160   4.590   1.180  0.1917 -0.1223  0.1621
 6194TIP3    H140217   5.177   4.683   1.165 -0.4607 -0.2550 -1.6720
 6194TIP3    H240218   5.240   4.546   1.153 -0.4856 -0.2546 -1.8134
 6195TIP3   OH240219   4.204   3.853   6.808  0.1377 -0.1276  0.1540
 6195TIP3    H140220   4.263   3.925   6.782 -0.5967 -0.0938 -1.5531
 6195TIP3    H240221   4.119   3.895   6.821 -0.6685 -0.8240 -2.3499
 6196TIP3   OH240222   1.058   0.956   0.636 -0.5969  0.2461 -0.3656
 6196TIP3    H140223   1.034   1.049   0.630 -1.6696 -0.0116 -0.2627
 6196TIP3    H240224   1.149   0.956   0.665 -1.8360  1.2445  4.2872
 6197TIP3   OH240225   1.004   2.942   1.704 -0.4093  0.0683  0.6453
 6197TIP3    H140226   1.039   2.879   1.767 -1.1566 -1.3738 -0.3135
 6197TIP3    H240227   1.077   2.999   1.684  0.6391 -1.2093  0.6853
 6198TIP3   OH240228   3.846   0.175   0.587 -0.1589 -0.2924 -0.1368
 6198TIP3    H140229   3.811   0.107   0.644 -0.2054  0.7241  1.1039
 6198TIP3    H240230   3.934   0.192   0.620 -0.8683  1.6304  0.8894
 6199TIP3   OH240231   0.560   0.800   8.643  0.2402  0.0760  0.7799
 6199TIP3    H140232   0.510   0.727   8.605  2.2694 -1.2061  0.3911
 6199TIP3    H240233   0.592   0.848   8.568  1.2998 -0.3620  0.9334
 6200TIP3   OH240234   6.702   0.003   1.067  0.0055 -0.6626 -0.0528
 6200TIP3    H140235   6.761   0.068   1.029  1.0062 -1.4176  0.1520
 6200TIP3    H240236   6.634  -0.010   1.002  0.8271 -0.7674 -0.9128
 6201TIP3   OH240237   0.318   0.060   2.044 -0.2337  0.7440 -0.5034
 6201TIP3    H140238   0.256   0.066   2.117  1.3548  1.3067  0.8689
 6201TIP3    H240239   0.398   0.027   2.084 -0.3296 -2.5624 -2.6993
 6202TIP3   OH240240   2.026   6.484   0.436  0.0017  0.2340 -0.1845
 6202TIP3    H140241   2.074   6.561   0.408  0.1307 -0.3702 -1.7430
 6202TIP3    H240242   2.078   6.448   0.509 -0.2104  1.7315  0.7327
 6203TIP3   OH240243   4.044   3.205   7.503 -0.8978 -0.2369 -0.1918
 6203TIP3    H140244   4.104   3.254   7.446 -0.2143 -0.8901 -0.0518
 6203TIP3    H240245   4.102   3.157   7.563 -1.5598 -0.9308 -0.0951
 6204TIP3   OH240246   2.259   1.851   7.124 -0.4110  0.1302  0.0311
 6204TIP3    H140247   2.323   1.876   7.191  1.1274 -1.0142 -0.9494
 6204TIP3    H240248   2.313   1.825   7.049 -2.0512 -0.8934 -0.8243
 6205TIP3   OH240249   3.295   0.961   2.745 -0.1207 -0.9877 -0.4477
 6205TIP3    H140250   3.251   0.880   2.719 -2.3768  0.3277 -0.9753
 6205TIP3    H240251   3.324   0.944   2.835 -1.1234 -2.1683 -0.3176
 6206TIP3   OH240252   0.324   2.199   0.017 -0.3911 -0.8901  0.4601
 6206TIP3    H140253   0.246   2.146   0.029 -0.0436 -1.5277 -0.0583
 6206TIP3    H240254   0.395   2.136   0.006  0.1729 -0.3209  0.7370
 6207TIP3   OH240255   5.809   2.214   0.358 -0.7381  0.2015 -0.1780
 6207TIP3    H140256   5.727   2.252   0.327  0.1038  2.0414 -0.2639
 6207TIP3    H240257   5.874   2.282   0.342  0.8988 -1.3704 -0.5185
 6208TIP3   OH240258   3.458   0.218   0.460 -0.0323  0.0246 -0.0197
 6208TIP3    H140259   3.523   0.282   0.430  0.9164 -0.1822  1.4944
 6208TIP3    H240260   3.400   0.268   0.518  0.4703 -0.3755  0.8476
 6209TIP3   OH240261   3.715   6.325   1.528  0.2404 -0.2625  0.1279
 6209TIP3    H140262   3.764   6.395   1.571  1.4178  0.1785 -1.7690
 6209TIP3    H240263   3.641   6.307   1.586  1.2902  0.8111  1.8747
 6210TIP3   OH240264   4.304   5.764   0.313 -0.1251 -0.3872  0.1638
 6210TIP3    H140265   4.224   5.718   0.291 -0.9430  0.7997  0.5705
 6210TIP3    H240266   4.320   5.742   0.405 -1.0718  0.8734  0.6646
 6211TIP3   OH240267   6.493   3.773   8.011 -0.6881  0.3635 -0.0035
 6211TIP3    H140268   6.543   3.707   8.059 -2.0136 -1.0191 -0.4426
 6211TIP3    H240269   6.515   3.856   8.054  1.1870 -0.3140  0.4248
 6212TIP3   OH240270   6.571   4.437   0.619 -1.2474  0.0660  0.4449
 6212TIP3    H140271   6.636   4.507   0.622 -0.9288  0.0941 -3.0501
 6212TIP3    H240272   6.608   4.368   0.675  0.1809  1.3173  1.1245
 6213TIP3   OH240273   3.701   5.937   2.218  0.1984 -0.1019  0.2212
 6213TIP3    H140274   3.668   5.860   2.171 -1.8167  0.3797  0.7628
 6213TIP3    H240275   3.741   5.900   2.297 -2.3565 -0.5926  1.3979
 6214TIP3   OH240276   0.772   1.801   1.744  0.1305  0.4921  0.6995
 6214TIP3    H140277   0.859   1.830   1.715  0.3820 -0.7923  0.0869
 6214TIP3    H240278   0.721   1.881   1.749  0.8687  1.0954 -0.6291
 6215TIP3   OH240279   0.476   0.709   1.393  0.1602 -0.0458  0.5184
 6215TIP3    H140280   0.396   0.693   1.443 -0.5624  2.3518  0.2758
 6215TIP3    H240281   0.506   0.795   1.424  2.2099 -0.5138  0.0046
 6216TIP3   OH240282   0.783   4.760   8.616  0.1675 -0.1903 -0.9017
 6216TIP3    H140283   0.701   4.767   8.569 -1.3873 -1.1598  1.4829
 6216TIP3    H240284   0.813   4.671   8.599 -1.3193 -1.1755  1.1789
 6217TIP3   OH240285   2.820   6.695   1.736  0.6336  0.3571 -0.3139
 6217TIP3    H140286   2.908   6.703   1.772  0.7054  0.8718 -0.5976
 6217TIP3    H240287   2.763   6.720   1.809  0.5949 -1.9887  0.5501
 6218TIP3   OH240288   5.999   5.632   0.763 -0.4550 -0.4922 -0.0750
 6218TIP3    H140289   6.004   5.593   0.851 -0.7546  0.8238  0.5519
 6218TIP3    H240290   6.064   5.702   0.764 -0.5272 -0.4042 -0.8803
 6219TIP3   OH240291   5.616   6.213   2.286  0.3966  0.6379 -0.0880
 6219TIP3    H140292   5.547   6.275   2.310  0.3819  0.2814  0.8279
 6219TIP3    H240293   5.624   6.155   2.362  0.5723 -0.3431 -0.8407
 6220TIP3   OH240294   4.309   5.700   2.536  0.3164  0.4578  0.2568
 6220TIP3    H140295   4.337   5.654   2.615 -2.9548 -0.6576  0.9346
 6220TIP3    H240296   4.318   5.793   2.558  0.4272  0.1590  1.5627
 6221TIP3   OH240297   0.147   6.246   7.382 -0.2370  0.7523 -0.1506
 6221TIP3    H140298   0.054   6.257   7.406 -0.6484 -0.5557 -1.0253
 6221TIP3    H240299   0.148   6.254   7.287  0.7297  1.7579 -0.0677
 6222TIP3   OH240300   1.318   3.353   8.205 -0.3453 -0.4006 -0.0362
 6222TIP3    H140301   1.264   3.331   8.129  2.0547 -0.8612 -1.7138
 6222TIP3    H240302   1.333   3.269   8.248 -1.3212 -0.2046  0.7110
 6223TIP3   OH240303   3.452   0.637   8.076 -0.0992 -0.3826 -0.0878
 6223TIP3    H140304   3.464   0.635   7.981 -1.3026  0.9684 -0.3068
 6223TIP3    H240305   3.357   0.642   8.087  0.0859  1.8489  1.0886
 6224TIP3   OH240306   2.822   5.119   1.404 -0.1323  0.0984 -0.3471
 6224TIP3    H140307   2.830   5.093   1.312  1.7404 -1.2987  0.1597
 6224TIP3    H240308   2.830   5.037   1.453  0.5738  1.0031  1.1279
 6225TIP3   OH240309   4.950   1.359   2.525 -0.2762  0.2955  0.0603
 6225TIP3    H140310   4.911   1.394   2.445  1.0444  1.4068 -0.1390
 6225TIP3    H240311   4.974   1.269   2.503 -1.3965  0.0586 -0.2533
 6226TIP3   OH240312   0.660   3.882   7.001  0.1704 -0.5518  0.2728
 6226TIP3    H140313   0.682   3.812   7.063  0.7922 -2.0832 -1.5645
 6226TIP3    H240314   0.566   3.872   6.985  0.4335 -1.6766 -0.7318
 6227TIP3   OH240315   1.298   0.120   7.253  0.9985  0.4713 -0.7299
 6227TIP3    H140316   1.318   0.186   7.187  2.4407  0.3386 -0.4687
 6227TIP3    H240317   1.319   0.163   7.336  0.2076  0.2800 -0.4227
 6228TIP3   OH240318   4.517   6.328   1.266 -0.0076  0.2337  0.1933
 6228TIP3    H140319   4.545   6.356   1.353  0.5032  1.7861 -0.4223
 6228TIP3    H240320   4.560   6.244   1.252 -1.4451 -0.8932  2.0825
 6229TIP3   OH240321   1.925   6.622   1.382  0.5470  0.6843  0.2287
 6229TIP3    H140322   2.016   6.594   1.374  0.4739  0.8772 -1.4576
 6229TIP3    H240323   1.879   6.544   1.414  1.0373  0.0968 -0.4636
 6230TIP3   OH240324   1.196   4.889   1.026 -0.0261  0.1023 -0.1813
 6230TIP3    H140325   1.189   4.979   1.059 -0.0447 -0.0920  0.3450
 6230TIP3    H240326   1.269   4.851   1.075  0.0197 -0.1548 -0.4472
 6231TIP3   OH240327   4.820   6.514   2.138 -0.1484 -0.2613  0.5502
 6231TIP3    H140328   4.796   6.508   2.231 -1.6612 -0.6598  0.1497
 6231TIP3    H240329   4.875   6.592   2.133 -0.0594 -0.2192  1.7679
 6232TIP3   OH240330   0.960   6.667   7.716 -0.2644 -0.1199  0.6180
 6232TIP3    H140331   0.913   6.686   7.635  0.0015 -0.0998  0.4712
 6232TIP3    H240332   1.031   6.608   7.690 -1.3226 -1.6856  1.1148
 6233TIP3   OH240333   2.442   2.443   0.250 -0.4461  0.1493 -0.4876
 6233TIP3    H140334   2.456   2.406   0.163 -1.0610  0.0462 -0.5486
 6233TIP3    H240335   2.527   2.477   0.276  0.0740 -1.0635 -0.5469
 6234TIP3   OH240336   2.080   2.306   2.274  0.3006  0.1054 -0.1691
 6234TIP3    H140337   2.107   2.362   2.346 -1.3633  0.3340  0.3349
 6234TIP3    H240338   2.002   2.261   2.306  0.0530 -0.4854 -1.5020
 6235TIP3   OH240339   0.561   6.007   1.464 -0.6879  0.8369  0.5995
 6235TIP3    H140340   0.612   6.069   1.413  0.5530 -0.0028  0.7680
 6235TIP3    H240341   0.514   6.061   1.528 -0.9816  1.7362 -0.3484
 6236TIP3   OH240342   2.908   4.186   2.985  0.4105 -0.2129  0.2189
 6236TIP3    H140343   2.973   4.208   3.052  0.7667  1.7716 -0.6893
 6236TIP3    H240344   2.959   4.157   2.910  0.1025 -0.9428  0.2880
 6237TIP3   OH240345   6.835   2.474   6.891  0.1434 -0.0221 -0.2068
 6237TIP3    H140346   6.895   2.419   6.941  0.6355  0.3088 -0.4231
 6237TIP3    H240347   6.886   2.551   6.869 -0.5191  0.4997  0.0396
 6238TIP3   OH240348   0.032   2.376   1.685 -0.2178 -0.2871 -0.2329
 6238TIP3    H140349   0.075   2.409   1.607  1.5848 -2.2249 -0.1586
 6238TIP3    H240350  -0.058   2.358   1.658 -0.2110  1.0662 -1.2366
 6239TIP3   OH240351   4.792   3.134   3.445  0.9487  0.4084  0.1717
 6239TIP3    H140352   4.715   3.176   3.484  0.4674 -0.7853  0.5643
 6239TIP3    H240353   4.755   3.062   3.392  1.6506  1.3079 -1.6285
 6240TIP3   OH240354   1.723   4.733   0.924 -0.2848  0.2375  0.3634
 6240TIP3    H140355   1.647   4.723   0.982  0.2195  0.6904  1.1163
 6240TIP3    H240356   1.761   4.645   0.919 -0.4042  0.1705  0.6171
 6241TIP3   OH240357   1.700   0.789   2.307  0.9088 -0.4636 -0.6562
 6241TIP3    H140358   1.693   0.737   2.227 -0.4441  0.9776 -1.5334
 6241TIP3    H240359   1.791   0.820   2.306  0.4529  1.0835 -2.7229
 6242TIP3   OH240360   4.765   3.445   7.924  0.0626  0.0667  0.2772
 6242TIP3    H140361   4.851   3.429   7.963  0.0720 -0.3414  0.0949
 6242TIP3    H240362   4.704   3.399   7.982  0.2316 -2.0042 -1.0800
 6243TIP3   OH240363   5.004   5.652   8.328  0.1097 -0.8649  0.3710
 6243TIP3    H140364   5.049   5.570   8.305 -1.4021 -1.3920 -0.9091
 6243TIP3    H240365   5.005   5.654   8.424  2.6527 -0.9208  0.4073
 6244TIP3   OH240366   4.930   3.703   2.258  0.1080  0.1892 -0.6844
 6244TIP3    H140367   4.851   3.707   2.311  2.0646  1.9737  2.3888
 6244TIP3    H240368   4.923   3.620   2.211 -2.9090 -0.3652  0.5250
 6245TIP3   OH240369   4.805   3.808   7.712 -0.0284 -0.1298 -0.2322
 6245TIP3    H140370   4.778   3.860   7.636  0.6396  0.0132 -0.3734
 6245TIP3    H240371   4.854   3.870   7.767 -1.6801  0.1571  1.0166
 6246TIP3   OH240372   5.862   4.889   2.269 -0.3533  0.0205 -0.2151
 6246TIP3    H140373   5.780   4.845   2.290  0.5596 -0.7717  1.9850
 6246TIP3    H240374   5.903   4.905   2.354  2.1460 -0.3295 -1.2773
 6247TIP3   OH240375   6.355   3.085   7.149 -0.0541  0.1764  0.3423
 6247TIP3    H140376   6.341   3.172   7.185 -1.7491 -0.4312  1.2565
 6247TIP3    H240377   6.286   3.075   7.083  1.3730  0.2491 -1.2571
 6248TIP3   OH240378   3.704   5.242   0.470 -0.3570 -0.0356 -0.5875
 6248TIP3    H140379   3.703   5.335   0.496 -2.1813 -0.3149  0.5933
 6248TIP3    H240380   3.644   5.200   0.532 -0.8800 -1.7192 -2.1544
 6249TIP3   OH240381   6.622   1.978   0.118  0.2220  0.3193 -0.6113
 6249TIP3    H140382   6.563   1.969   0.043  0.6667  0.7438 -1.0170
 6249TIP3    H240383   6.686   2.044   0.091 -0.5938  1.7334  0.7814
 6250TIP3   OH240384   6.120   0.025   1.437  0.0545 -0.1348 -0.1226
 6250TIP3    H140385   6.169   0.085   1.381 -1.8915  0.5725 -1.1710
 6250TIP3    H240386   6.076   0.083   1.500 -0.8080 -0.5607 -0.3179
 6251TIP3   OH240387   1.144   0.893   1.562  0.0483  0.0610  0.3278
 6251TIP3    H140388   1.114   0.941   1.640 -0.4488  0.4400 -0.0872
 6251TIP3    H240389   1.226   0.937   1.537  0.1992 -0.0498  0.6245
 6252TIP3   OH240390   2.532   5.754   7.373 -0.1251 -0.1128  0.3153
 6252TIP3    H140391   2.555   5.836   7.416  1.5369 -0.0695 -0.5584
 6252TIP3    H240392   2.608   5.734   7.317 -1.2985 -1.2436 -0.9530
 6253TIP3   OH240393   2.288   1.212   7.020  0.8252 -0.6495  0.2192
 6253TIP3    H140394   2.224   1.251   6.961 -0.5704 -0.4303  1.7902
 6253TIP3    H240395   2.297   1.122   6.990 -0.8342 -0.9063  0.3916
 6254TIP3   OH240396   3.798   4.156   0.758 -0.2551 -0.2752  0.6419
 6254TIP3    H140397   3.713   4.173   0.718 -1.3764 -1.2706  2.4365
 6254TIP3    H240398   3.831   4.243   0.781 -1.0315  0.1091  0.3614
 6255TIP3   OH240399   5.970   1.210   0.905 -0.5798 -0.6591 -0.2472
 6255TIP3    H140400   5.921   1.234   0.826 -0.2375  2.1921  0.3058
 6255TIP3    H240401   6.053   1.255   0.897  0.0326 -1.4756  1.1173
 6256TIP3   OH240402   5.302   6.258   0.049 -0.0711  0.2291  0.2859
 6256TIP3    H140403   5.263   6.171   0.038  0.2618  0.3762 -3.2417
 6256TIP3    H240404   5.390   6.240   0.083 -0.0693 -0.7988 -0.2353
 6257TIP3   OH240405   0.896   1.127   0.895 -0.1934 -0.1808 -0.3332
 6257TIP3    H140406   0.865   1.167   0.814  0.6724  1.3834  0.0511
 6257TIP3    H240407   0.964   1.187   0.926  2.4060 -2.8312 -0.5415
 6258TIP3   OH240408   3.280   1.335   1.298 -0.2238  0.2933 -0.3046
 6258TIP3    H140409   3.325   1.319   1.215 -1.6588 -0.2988 -1.0125
 6258TIP3    H240410   3.209   1.395   1.275 -0.8764 -0.1970  0.4072
 6259TIP3   OH240411   2.874   3.023   6.891  0.2929  0.2714  0.0802
 6259TIP3    H140412   2.837   3.110   6.908  0.7355  0.4960 -0.0821
 6259TIP3    H240413   2.967   3.032   6.914  0.6084  0.1885 -1.0983
 6260TIP3   OH240414   2.614   2.156   2.311  0.5102 -0.2174 -0.4529
 6260TIP3    H140415   2.609   2.244   2.274 -0.7648 -0.4841 -0.9888
 6260TIP3    H240416   2.562   2.161   2.391  2.1028  0.0001  0.6118
 6261TIP3   OH240417   1.552   3.863   1.304 -0.1153 -0.0989  0.0056
 6261TIP3    H140418   1.501   3.804   1.358 -0.4339 -0.1436 -0.3423
 6261TIP3    H240419   1.506   3.947   1.309  0.5422  0.2390  0.8063
 6262TIP3   OH240420   0.211   5.739   1.744 -0.0139 -0.1567  0.4075
 6262TIP3    H140421   0.233   5.714   1.654  0.9434  0.0498  0.5694
 6262TIP3    H240422   0.258   5.677   1.799 -1.4116 -0.9261  0.7794
 6263TIP3   OH240423   0.808   3.472   1.751 -0.0595 -0.1757  0.0400
 6263TIP3    H140424   0.725   3.520   1.751 -0.2676 -0.3750  2.8195
 6263TIP3    H240425   0.870   3.532   1.710 -1.3008  0.4476 -1.0211
 6264TIP3   OH240426   2.423   1.188   8.058 -0.2983  0.3043  0.0018
 6264TIP3    H140427   2.398   1.204   8.149  1.9428  1.4956  0.4719
 6264TIP3    H240428   2.475   1.265   8.034  2.4479 -1.6943 -0.9770
 6265TIP3   OH240429   0.801   3.189   8.240  0.1907  0.1001 -0.2428
 6265TIP3    H140430   0.767   3.102   8.216 -1.3820  0.1453  1.5347
 6265TIP3    H240431   0.774   3.245   8.167 -3.1900 -0.0169  0.7300
 6266TIP3   OH240432   2.791   1.133   6.952 -0.6966  0.1597  0.3902
 6266TIP3    H140433   2.804   1.054   7.005  0.8660 -0.3259 -0.6473
 6266TIP3    H240434   2.789   1.101   6.862 -1.2456  1.1953  0.0215
 6267TIP3   OH240435   6.159   3.619   7.531 -0.2179 -0.2111 -0.5671
 6267TIP3    H140436   6.183   3.626   7.624  0.3292  0.2694 -0.7366
 6267TIP3    H240437   6.204   3.540   7.500 -0.5279 -0.4596 -0.3896
 6268TIP3   OH240438   4.126   0.638   7.201  0.1227  0.2812  0.4273
 6268TIP3    H140439   4.125   0.718   7.149 -0.5921 -0.0737 -0.1345
 6268TIP3    H240440   4.137   0.568   7.136 -2.0996 -0.2808  0.5487
 6269TIP3   OH240441   2.333   1.216   7.511 -0.4244  0.2278 -0.0260
 6269TIP3    H140442   2.341   1.311   7.503  0.0525  0.3518  1.5590
 6269TIP3    H240443   2.367   1.182   7.428  1.3882  1.3756  0.1918
 6270TIP3   OH240444   5.803   6.730   6.892  0.3606  0.3207 -0.5588
 6270TIP3    H140445   5.890   6.720   6.853  0.6756  0.6127  0.0628
 6270TIP3    H240446   5.743   6.723   6.817  0.9275  0.3649 -1.0270
 6271TIP3   OH240447   6.153   6.474   1.566 -0.3871 -0.1685 -0.1089
 6271TIP3    H140448   6.216   6.424   1.618  0.3461 -0.5356 -1.3334
 6271TIP3    H240449   6.168   6.565   1.591 -0.0158 -0.3367  0.2871
 6272TIP3   OH240450   5.088   6.104   0.467  0.1995  0.2822  0.2731
 6272TIP3    H140451   4.997   6.082   0.449  0.9175 -0.6292 -2.8165
 6272TIP3    H240452   5.114   6.045   0.537 -0.8735 -1.3736 -0.6675
 6273TIP3   OH240453   2.992   1.882   8.397  0.4193  0.1067 -0.2452
 6273TIP3    H140454   3.030   1.829   8.327 -2.4692 -1.0765 -1.0898
 6273TIP3    H240455   2.981   1.820   8.470 -1.6007 -0.1777 -0.7233
 6274TIP3   OH240456   1.948   2.106   8.210 -0.1341 -0.5629 -0.6008
 6274TIP3    H140457   1.887   2.180   8.205  0.6193  0.0843 -0.5905
 6274TIP3    H240458   1.963   2.094   8.304  0.4092 -0.1389 -0.6223
 6275TIP3   OH240459   6.754   6.052   7.162 -0.2101  0.2151 -0.4220
 6275TIP3    H140460   6.694   6.014   7.226  2.5366 -2.6879  0.6778
 6275TIP3    H240461   6.768   6.141   7.193 -0.3020 -0.5497  2.0814
 6276TIP3   OH240462   4.442   4.803   6.844 -0.1378 -0.3203 -0.3840
 6276TIP3    H140463   4.518   4.860   6.858 -0.7300  0.9006 -1.8037
 6276TIP3    H240464   4.457   4.728   6.902  1.7347  0.2672 -0.0279
 6277TIP3   OH240465   1.789   1.329   0.570 -0.1878  0.1887 -0.1597
 6277TIP3    H140466   1.864   1.372   0.611 -0.3314  0.7363 -0.4597
 6277TIP3    H240467   1.776   1.377   0.488  0.5850 -1.3623 -1.2455
 6278TIP3   OH240468   0.120   2.178   7.611 -0.1409  0.7301 -0.5283
 6278TIP3    H140469   0.154   2.253   7.659  4.1359 -1.2409 -0.0812
 6278TIP3    H240470   0.122   2.205   7.519 -1.2511  1.9690 -0.2253
 6279TIP3   OH240471   3.738   3.133   8.228  0.1578  0.1517 -0.0450
 6279TIP3    H140472   3.730   3.057   8.171 -1.6511  0.5099 -0.3186
 6279TIP3    H240473   3.832   3.150   8.232  0.4947 -1.3311 -0.9722
 6280TIP3   OH240474   5.929   1.582   0.112  0.0051  0.1811 -0.6229
 6280TIP3    H140475   5.993   1.565   0.181 -0.5980 -0.1437 -0.1292
 6280TIP3    H240476   5.936   1.676   0.094 -0.3005  0.4049  0.3669
 6281TIP3   OH240477   2.373   4.053   0.483  0.1294  1.0578 -0.1987
 6281TIP3    H140478   2.289   4.013   0.507 -0.2926  1.4478 -0.9760
 6281TIP3    H240479   2.374   4.137   0.529  1.2250  0.0067  1.8122
 6282TIP3   OH240480   3.114   1.754   1.712  0.4984 -0.2801 -0.7896
 6282TIP3    H140481   3.105   1.832   1.767  1.4908  0.4406 -1.5991
 6282TIP3    H240482   3.200   1.718   1.735  0.6063 -0.3812 -1.3369
 6283TIP3   OH240483   0.040   0.265   2.792  0.1964 -0.2594 -0.0725
 6283TIP3    H140484   0.130   0.296   2.802  0.0699 -0.5538  3.2608
 6283TIP3    H240485   0.041   0.177   2.829 -1.4622 -0.2569  0.0386
 6284TIP3   OH240486   0.589   5.243   1.125 -0.1784  0.1862  0.7548
 6284TIP3    H140487   0.599   5.337   1.111 -1.0374 -0.1421 -2.7336
 6284TIP3    H240488   0.677   5.207   1.112  0.1850  0.4430  2.2546
 6285TIP3   OH240489   6.410   0.586   8.643 -0.1127 -0.0465 -0.5140
 6285TIP3    H140490   6.483   0.620   8.592 -1.0071  1.7036 -0.7239
 6285TIP3    H240491   6.405   0.645   8.719  0.9186 -2.3069  1.4637
 6286TIP3   OH240492   2.048   1.683   1.303  0.2097 -0.4687  0.8938
 6286TIP3    H140493   2.140   1.660   1.290  0.0946 -1.3379  1.5442
 6286TIP3    H240494   2.001   1.628   1.241  0.1656  0.5767 -0.0388
 6287TIP3   OH240495   6.574   6.625   7.089 -0.3263 -0.3012 -0.1143
 6287TIP3    H140496   6.508   6.664   7.033 -0.0246  0.7613  0.2409
 6287TIP3    H240497   6.653   6.621   7.035 -0.0879  0.5416  0.1575
 6288TIP3   OH240498   1.799   3.527   6.834 -0.3739  0.1406  0.1544
 6288TIP3    H140499   1.794   3.621   6.816 -0.2619  0.0706 -0.2635
 6288TIP3    H240500   1.890   3.512   6.858 -0.5529  0.2546  0.9054
 6289TIP3   OH240501   5.706   5.870   2.463  0.1585  0.0672  0.1452
 6289TIP3    H140502   5.794   5.833   2.467  1.1170  2.1360 -0.1656
 6289TIP3    H240503   5.652   5.800   2.428  1.8475 -1.0142 -0.4191
 6290TIP3   OH240504   3.234   1.402   7.267 -0.3731  0.2525 -0.5072
 6290TIP3    H140505   3.241   1.450   7.349  0.8768  1.2001 -1.1423
 6290TIP3    H240506   3.291   1.448   7.206 -0.5435 -0.9776 -1.6626
 6291TIP3   OH240507   4.166   2.660   7.078  0.1659 -0.4585 -0.4844
 6291TIP3    H140508   4.235   2.710   7.034 -0.0271 -0.8365 -1.2430
 6291TIP3    H240509   4.181   2.569   7.051  1.9899 -1.2793  2.8065
 6292TIP3   OH240510   6.023   3.253   1.020 -0.5313  0.3322  0.1604
 6292TIP3    H140511   5.962   3.325   1.004 -1.2248 -0.8383 -3.3351
 6292TIP3    H240512   6.070   3.243   0.937  0.9880 -1.9431  1.2041
 6293TIP3   OH240513   1.313   5.051   7.450 -0.6909 -0.8205 -0.2263
 6293TIP3    H140514   1.259   5.089   7.381  1.0744  0.2931 -1.0612
 6293TIP3    H240515   1.336   4.964   7.417  0.8263  0.0119 -1.5024
 6294TIP3   OH240516   5.966   1.028   2.218 -0.0007 -0.0653  0.5784
 6294TIP3    H140517   6.054   0.991   2.209  0.7661  1.9698 -1.1935
 6294TIP3    H240518   5.913   0.956   2.251  2.1760 -1.5548  1.0509
 6295TIP3   OH240519   2.078   4.900   2.424 -0.0291  0.3502  0.5791
 6295TIP3    H140520   2.096   4.944   2.507  0.9416  3.1681 -0.9737
 6295TIP3    H240521   2.157   4.912   2.372 -1.0098 -0.2662 -1.1743
 6296TIP3   OH240522   2.537   3.673   2.478  0.0122  0.4096  0.1131
 6296TIP3    H140523   2.628   3.674   2.508  0.2316  0.6440 -0.5469
 6296TIP3    H240524   2.499   3.753   2.514  0.2331  0.6155 -0.1092
 6297TIP3   OH240525   6.575   3.701   1.326  0.0440  0.5316 -0.7541
 6297TIP3    H140526   6.560   3.787   1.366 -0.4559 -0.4624  1.2759
 6297TIP3    H240527   6.594   3.721   1.234  2.9341  3.0515  0.2216
 6298TIP3   OH240528   3.542   2.920   0.704  0.4600 -0.0907  0.1621
 6298TIP3    H140529   3.473   2.975   0.668  0.5143 -0.5429 -0.6585
 6298TIP3    H240530   3.555   2.952   0.794 -0.4548  0.3221  0.1491
 6299TIP3   OH240531   3.747   6.726   7.412  0.1891  0.1437  0.8480
 6299TIP3    H140532   3.726   6.749   7.321  1.8293 -3.1810 -0.5236
 6299TIP3    H240533   3.664   6.693   7.448 -0.0806 -0.1671 -0.0349
 6300TIP3   OH240534   2.969   6.214   2.292  0.2800 -0.5708  0.1849
 6300TIP3    H140535   2.886   6.235   2.249  0.1557 -0.7405  0.3412
 6300TIP3    H240536   2.946   6.151   2.360  0.5553 -0.7142  0.1493
 6301TIP3   OH240537   4.876   5.463   7.070 -0.2207 -0.2283 -0.4669
 6301TIP3    H140538   4.809   5.451   7.002 -0.8912  0.9134 -0.0497
 6301TIP3    H240539   4.888   5.376   7.108 -2.3853 -0.2896  0.2506
 6302TIP3   OH240540   6.201   3.249   1.744 -0.3729  0.3625  0.4314
 6302TIP3    H140541   6.294   3.231   1.738 -0.6724 -1.1724 -0.0525
 6302TIP3    H240542   6.191   3.338   1.709  0.7365 -0.0192 -0.9198
 6303TIP3   OH240543   0.644   6.415   8.045  0.7607 -0.4756 -0.3923
 6303TIP3    H140544   0.698   6.355   8.097  1.6968  0.2726 -0.4776
 6303TIP3    H240545   0.705   6.481   8.014  0.1695 -0.7786 -2.2906
 6304TIP3   OH240546   4.755   4.414   7.778  0.3581  0.7193  0.0736
 6304TIP3    H140547   4.736   4.461   7.697 -0.9427  0.6349  0.3183
 6304TIP3    H240548   4.678   4.427   7.833 -0.4756 -2.4280 -0.1778
 6305TIP3   OH240549   5.396   3.309   1.279 -0.1973  0.4855 -0.3643
 6305TIP3    H140550   5.361   3.389   1.241 -2.1205 -1.6555 -3.5116
 6305TIP3    H240551   5.475   3.290   1.228  0.8973  0.8246  1.0970
 6306TIP3   OH240552   1.663   3.594   1.890 -0.4040  0.0499  0.2628
 6306TIP3    H140553   1.599   3.630   1.951 -1.7259 -0.2654 -0.8775
 6306TIP3    H240554   1.672   3.661   1.822 -1.5580 -0.9464 -0.9475
 6307TIP3   OH240555   5.867   5.877   8.525  0.5520  1.1565 -0.4466
 6307TIP3    H140556   5.954   5.911   8.504  1.0387  1.1836  1.4454
 6307TIP3    H240557   5.883   5.791   8.563 -0.1704  1.5140  0.6999
 6308TIP3   OH240558   6.872   3.262   1.048  0.1267 -0.5098 -0.3926
 6308TIP3    H140559   6.845   3.249   1.138  0.6749 -1.4273 -0.3418
 6308TIP3    H240560   6.875   3.174   1.011  0.6755 -0.2197 -1.0712
 6309TIP3   OH240561   0.580   3.819   0.771 -0.4237  0.0924 -0.0712
 6309TIP3    H140562   0.504   3.812   0.714 -0.4623 -0.1404  0.0071
 6309TIP3    H240563   0.546   3.806   0.859  0.2019 -4.1833 -0.2466
 6310TIP3   OH240564   5.034   5.931   0.670 -0.5847  0.5135 -0.7802
 6310TIP3    H140565   5.051   5.841   0.640 -2.7489 -0.2158 -0.0056
 6310TIP3    H240566   4.969   5.921   0.739 -0.4019  2.6597 -0.2437
 6311TIP3   OH240567   1.685   1.697   6.942 -0.0066  0.5419 -0.0374
 6311TIP3    H140568   1.610   1.725   6.889  0.1604  0.3889 -0.3586
 6311TIP3    H240569   1.725   1.779   6.972 -0.9674  0.6129  1.0966
 6312TIP3   OH240570   2.541   5.786   1.286 -0.8172  0.0573 -0.7652
 6312TIP3    H140571   2.539   5.860   1.226  1.0748  0.8924  0.1273
 6312TIP3    H240572   2.490   5.814   1.362 -1.7297 -0.3226 -1.2275
 6313TIP3   OH240573   3.654   1.953   2.347 -0.1602 -0.0420 -0.0836
 6313TIP3    H140574   3.604   1.917   2.421 -1.7561  3.6611  0.8704
 6313TIP3    H240575   3.587   1.977   2.283  0.7293  1.4205 -0.5024
 6314TIP3   OH240576   1.285   2.251   0.372 -0.3058  0.5900  0.4950
 6314TIP3    H140577   1.262   2.160   0.354  0.4234  0.0778  1.9481
 6314TIP3    H240578   1.254   2.299   0.296 -0.0486 -0.9751 -0.6634
 6315TIP3   OH240579   1.003   2.700   0.647 -0.3685 -0.2276  0.3109
 6315TIP3    H140580   0.931   2.757   0.675  0.8530  0.8864  1.3059
 6315TIP3    H240581   1.024   2.648   0.724 -0.7050 -1.2448 -0.2598
 6316TIP3   OH240582   3.611   4.021   0.425  0.1877  0.4691  0.3320
 6316TIP3    H140583   3.682   4.069   0.468 -0.9014  0.7709  1.8612
 6316TIP3    H240584   3.550   4.000   0.496 -1.7381  1.0478 -1.0728
 6317TIP3   OH240585   1.617   6.201   0.064  0.2645 -0.8576  0.0218
 6317TIP3    H140586   1.695   6.254   0.079 -0.0119 -0.4499  0.0276
 6317TIP3    H240587   1.649   6.124   0.017  0.7309 -0.8816  0.3684
 6318TIP3   OH240588   0.867   4.555   0.313 -0.3296 -0.2954  0.1777
 6318TIP3    H140589   0.927   4.607   0.260  0.3616 -0.9680  0.2898
 6318TIP3    H240590   0.923   4.494   0.361 -1.0673 -0.6638  0.5916
 6319TIP3   OH240591   6.484   0.658   7.092  0.9200  0.2186 -0.4359
 6319TIP3    H140592   6.574   0.690   7.086  0.9678  0.4195  0.9453
 6319TIP3    H240593   6.483   0.578   7.040  1.8097  0.3928 -0.7330
 6320TIP3   OH240594   0.306   0.205   0.584 -0.1792  0.1142 -0.0703
 6320TIP3    H140595   0.337   0.237   0.499 -0.8850  0.6744 -0.1168
 6320TIP3    H240596   0.220   0.167   0.566  0.3082 -1.1643  0.1224
 6321TIP3   OH240597   0.916   1.906   8.362 -0.4657  0.3686  0.1993
 6321TIP3    H140598   0.841   1.906   8.303 -0.1745  2.5054 -0.2596
 6321TIP3    H240599   0.992   1.898   8.305 -0.2727 -0.6264  0.5702
 6322TIP3   OH240600   2.792   0.222   1.560  0.0213  0.1845 -0.0613
 6322TIP3    H140601   2.800   0.317   1.549  0.3804  0.0171 -1.4196
 6322TIP3    H240602   2.854   0.186   1.497 -3.7845 -1.0717 -3.5030
 6323TIP3   OH240603   0.294   4.019   0.600 -0.6383  0.4290  0.0483
 6323TIP3    H140604   0.269   4.076   0.673  2.0000  1.7281  0.0512
 6323TIP3    H240605   0.249   4.057   0.524  0.9349  2.5219  0.0774
 6324TIP3   OH240606   3.972   5.062   2.409  0.5727  0.2535 -0.0860
 6324TIP3    H140607   3.913   5.126   2.371  1.0548  1.2779  0.8480
 6324TIP3    H240608   4.060   5.090   2.383  0.7872 -0.0549  0.2839
 6325TIP3   OH240609   2.841   0.881   1.788 -0.1085 -0.1021  0.5053
 6325TIP3    H140610   2.921   0.900   1.738 -1.0877  0.0132 -1.0615
 6325TIP3    H240611   2.872   0.872   1.878  1.7701 -0.6678 -0.1388
 6326TIP3   OH240612   5.156   3.157   1.514  0.3483  0.7449 -0.6957
 6326TIP3    H140613   5.112   3.242   1.516  1.0734  1.1494 -1.4244
 6326TIP3    H240614   5.179   3.144   1.422 -3.2455 -2.1063 -1.4009
 6327TIP3   OH240615   5.333   6.066   2.405 -0.0306 -0.1989  0.0680
 6327TIP3    H140616   5.407   6.090   2.461 -1.1278 -1.3430  2.0968
 6327TIP3    H240617   5.368   6.000   2.345  0.7263 -0.3502  0.6683
 6328TIP3   OH240618   3.164   3.457   8.368  0.3227 -0.3495 -0.6692
 6328TIP3    H140619   3.223   3.390   8.403 -0.3064 -1.1519 -1.1224
 6328TIP3    H240620   3.204   3.540   8.394  1.6071 -0.8807 -0.8914
 6329TIP3   OH240621   4.657   1.088   8.123 -0.6835  0.1676 -0.1707
 6329TIP3    H140622   4.635   1.113   8.213 -3.2068  2.0631 -1.1769
 6329TIP3    H240623   4.733   1.141   8.101 -0.0070 -0.3551  0.8116
 6330TIP3   OH240624   1.223   4.008   0.791 -0.5134  0.2080 -0.0920
 6330TIP3    H140625   1.206   3.939   0.854  1.2165  0.3272  0.5571
 6330TIP3    H240626   1.272   3.966   0.720 -3.6202 -0.2495 -2.1811
 6331TIP3   OH240627   5.979   0.435   8.020 -0.7472 -0.2468  0.8522
 6331TIP3    H140628   6.054   0.392   8.062 -0.0011 -1.4003 -1.5104
 6331TIP3    H240629   6.017   0.490   7.952 -1.7353  3.7248  3.1567
 6332TIP3   OH240630   3.997   4.806   2.169  1.1055 -0.3318  0.1213
 6332TIP3    H140631   4.030   4.896   2.160 -0.8386  0.5442  1.1217
 6332TIP3    H240632   3.915   4.806   2.119  0.8227 -1.4013  0.5601
 6333TIP3   OH240633   2.796   4.578   7.436 -0.1988  0.1043  0.0163
 6333TIP3    H140634   2.867   4.624   7.392  0.3749  0.7999  1.5888
 6333TIP3    H240635   2.797   4.490   7.399  1.5154  0.0892  0.0419
 6334TIP3   OH240636   2.408   4.567   8.172  0.0923 -0.0531 -0.3790
 6334TIP3    H140637   2.485   4.522   8.137 -0.8964 -2.8564  0.7484
 6334TIP3    H240638   2.420   4.658   8.146  1.7005 -1.0687 -3.9156
 6335TIP3   OH240639   2.307   3.151   8.188 -1.0789 -0.3144  0.3787
 6335TIP3    H140640   2.319   3.061   8.219 -0.0204  0.0002  0.9464
 6335TIP3    H240641   2.212   3.162   8.184 -1.2312 -1.2290  0.9918
 6336TIP3   OH240642   3.998   1.791   8.282 -0.0964 -0.0413  0.4749
 6336TIP3    H140643   4.090   1.768   8.270 -0.3341 -1.0683  0.5718
 6336TIP3    H240644   4.000   1.877   8.325  0.8026  0.3413 -0.3021
 6337TIP3   OH240645   6.665   6.753   2.070  0.1552 -0.6268  0.2585
 6337TIP3    H140646   6.588   6.794   2.030  0.3252  0.7658  1.2651
 6337TIP3    H240647   6.643   6.744   2.162  1.0689 -0.4785  0.5067
 6338TIP3   OH240648   1.219   1.256   8.168 -0.2996 -0.1359  0.3209
 6338TIP3    H140649   1.213   1.166   8.135  0.0156 -0.0185 -0.0716
 6338TIP3    H240650   1.166   1.307   8.106  1.1448  0.2474 -0.6559
 6339TIP3   OH240651   2.353   5.132   8.255 -0.3165 -0.3155 -0.6278
 6339TIP3    H140652   2.354   5.104   8.163 -1.9646 -1.0735 -0.4496
 6339TIP3    H240653   2.336   5.226   8.251 -0.8221 -0.4211 -1.0866
 6340TIP3   OH240654   5.798   4.574   7.698  0.3086 -0.0405 -0.0406
 6340TIP3    H140655   5.790   4.505   7.765  1.8816  0.1136  0.3508
 6340TIP3    H240656   5.889   4.602   7.704 -0.2729  2.0275 -0.2720
 6341TIP3   OH240657   5.270   0.274   1.398 -0.3002  0.1781  0.0910
 6341TIP3    H140658   5.291   0.213   1.469  1.4062 -2.8290 -2.7024
 6341TIP3    H240659   5.332   0.346   1.409  1.7195 -1.4920  0.2702
 6342TIP3   OH240660   2.372   1.942   7.361  0.1033  0.1157  0.3958
 6342TIP3    H140661   2.321   1.951   7.441  1.0245 -0.1051  1.0310
 6342TIP3    H240662   2.434   1.871   7.380  0.7819  0.5126 -0.2594
 6343TIP3   OH240663   3.950   0.837   2.054  0.1111  0.0906  0.7624
 6343TIP3    H140664   3.994   0.786   2.122  1.0351  3.4921  2.9867
 6343TIP3    H240665   4.010   0.910   2.036 -2.1435  1.8319 -0.2554
 6344TIP3   OH240666   3.613   3.664   1.773  0.3579 -0.6013  0.0629
 6344TIP3    H140667   3.537   3.720   1.792 -0.3546 -1.2850 -0.6899
 6344TIP3    H240668   3.629   3.618   1.856  0.1696 -0.2049  0.3261
 6345TIP3   OH240669   5.546   0.727   0.358  0.4367  0.1131 -0.2993
 6345TIP3    H140670   5.455   0.730   0.388  0.2025  1.4896 -1.0328
 6345TIP3    H240671   5.598   0.726   0.438 -0.2096  1.3482  0.1670
 6346TIP3   OH240672   1.437   6.556   7.390  0.1461 -0.4878  0.1890
 6346TIP3    H140673   1.438   6.545   7.485 -0.1164 -1.6807  0.0702
 6346TIP3    H240674   1.358   6.510   7.362 -0.6348  1.1560 -0.4806
 6347TIP3   OH240675   2.633   3.673   6.657  0.0677 -0.0963  0.4940
 6347TIP3    H140676   2.728   3.678   6.640  0.0553  2.6955  0.7290
 6347TIP3    H240677   2.622   3.594   6.709  2.4259 -0.0480  1.2108
 6348TIP3   OH240678   0.705   0.240   0.661  0.1562 -0.1476 -0.2204
 6348TIP3    H140679   0.634   0.255   0.723 -0.0744  0.9909 -0.7280
 6348TIP3    H240680   0.772   0.193   0.711 -0.4659 -0.1910  0.5828
 6349TIP3   OH240681   2.531   4.096   8.009  0.1376  0.2472 -0.2087
 6349TIP3    H140682   2.449   4.074   7.963 -0.0882  0.3022  0.1650
 6349TIP3    H240683   2.527   4.047   8.090  1.4553 -1.4138 -1.0916
 6350TIP3   OH240684   3.558   4.429   1.753  0.1827 -0.0724  0.8401
 6350TIP3    H140685   3.499   4.429   1.678  0.2699 -1.5319  0.7328
 6350TIP3    H240686   3.500   4.421   1.829  0.1456  0.4644  0.8713
 6351TIP3   OH240687   5.307   4.786   0.198  0.3893  0.0789 -0.5754
 6351TIP3    H140688   5.384   4.826   0.157  1.9812  0.2284  2.2946
 6351TIP3    H240689   5.235   4.843   0.172  1.8565  2.1528 -0.3780
 6352TIP3   OH240690   3.701   5.638   8.654 -0.1392 -0.4844 -0.1321
 6352TIP3    H140691   3.714   5.701   8.725 -1.3862 -0.5056  0.1285
 6352TIP3    H240692   3.719   5.553   8.695 -0.9184 -0.5028  0.1950
 6353TIP3   OH240693   5.421   4.439   8.508 -0.2613 -0.3565 -0.3527
 6353TIP3    H140694   5.372   4.414   8.429  0.5696  1.8171 -1.6459
 6353TIP3    H240695   5.354   4.461   8.572 -1.0007  0.4589 -1.3673
 6354TIP3   OH240696   4.217   6.329   1.819 -1.2037 -0.1714 -0.1931
 6354TIP3    H140697   4.140   6.353   1.872 -2.0800 -0.2651 -1.3868
 6354TIP3    H240698   4.225   6.399   1.755 -0.7622 -0.5628 -0.5727
 6355TIP3   OH240699   5.121   3.831   1.963  0.1080 -0.1852  0.0389
 6355TIP3    H140700   5.098   3.739   1.953  1.3654 -0.6326  1.0823
 6355TIP3    H240701   5.107   3.849   2.057  0.2526  0.5801 -0.0809
 6356TIP3   OH240702   6.216   4.814   8.181 -0.1663 -0.3923  0.3720
 6356TIP3    H140703   6.134   4.795   8.135 -1.4475  1.0082  1.9072
 6356TIP3    H240704   6.270   4.861   8.117 -0.5821 -1.2390 -0.6288
 6357TIP3   OH240705   5.029   1.681   2.374 -0.2697  0.0148 -0.3269
 6357TIP3    H140706   4.958   1.618   2.368  0.3546 -0.5605 -2.7199
 6357TIP3    H240707   5.107   1.632   2.348  0.6006  1.2537 -0.1712
 6358TIP3   OH240708   4.543   1.519   7.094 -0.1504 -0.1592 -0.1088
 6358TIP3    H140709   4.516   1.492   7.006 -0.4732 -2.0068  0.5168
 6358TIP3    H240710   4.463   1.514   7.146 -0.1584  1.7709  0.1625
 6359TIP3   OH240711   3.608   4.481   0.481  0.1639  0.1045 -0.3854
 6359TIP3    H140712   3.570   4.568   0.465 -0.7018  0.1428  1.6589
 6359TIP3    H240713   3.605   4.470   0.576  0.2444 -2.1869 -0.5984
 6360TIP3   OH240714   3.998   3.218   1.896 -0.2224 -0.3089 -0.1657
 6360TIP3    H140715   4.030   3.260   1.816  0.2364 -1.3800 -0.5655
 6360TIP3    H240716   4.051   3.255   1.966 -0.0315 -0.0023 -0.4714
 6361TIP3   OH240717   5.750   2.121   1.461 -0.5148  0.2649  0.4514
 6361TIP3    H140718   5.770   2.167   1.543  0.5086  0.0620  0.3315
 6361TIP3    H240719   5.834   2.087   1.431 -0.7414  0.9634 -1.0733
 6362TIP3   OH240720   4.269   5.973   0.027  0.2218 -0.2646 -0.4801
 6362TIP3    H140721   4.190   5.932   0.063  1.0360 -2.6459 -1.2061
 6362TIP3    H240722   4.253   5.978  -0.067  1.6979 -2.8666 -0.9700
 6363TIP3   OH240723   6.563   5.931   2.553  0.0721 -0.3101 -0.1453
 6363TIP3    H140724   6.485   5.934   2.608  0.4093  0.1110  0.3158
 6363TIP3    H240725   6.559   6.012   2.502  0.2692 -0.2308 -0.0354
 6364TIP3   OH240726   1.624   5.061   2.629  0.4235  0.2497  0.0227
 6364TIP3    H140727   1.688   5.123   2.664 -0.3962  0.6803  0.8120
 6364TIP3    H240728   1.637   5.063   2.535  0.2302  1.8716 -0.0024
 6365TIP3   OH240729   1.156   3.912   8.387  0.1069  0.0410  0.4099
 6365TIP3    H140730   1.129   3.986   8.334 -0.6930 -0.6310 -0.1528
 6365TIP3    H240731   1.097   3.841   8.361 -0.1145 -0.3937  1.9800
 6366TIP3   OH240732   5.860   4.987   8.284 -0.0456  0.2765  0.4741
 6366TIP3    H140733   5.891   5.048   8.217 -0.6914 -0.5547 -0.6191
 6366TIP3    H240734   5.785   5.031   8.324 -0.3875  0.2973 -0.1754
 6367TIP3   OH240735   2.786   4.005   1.416  0.4823 -0.1934  0.3060
 6367TIP3    H140736   2.820   4.079   1.367  0.0364  0.0166  0.3059
 6367TIP3    H240737   2.863   3.960   1.449  0.7736 -0.0882 -0.2225
 6368TIP3   OH240738   5.502   1.611   1.648 -0.4686  0.2490  0.5571
 6368TIP3    H140739   5.505   1.707   1.653 -1.6270  0.3037  0.3207
 6368TIP3    H240740   5.593   1.585   1.660 -0.2279  1.3466  1.3521
 6369TIP3   OH240741   0.723   5.464   1.695  0.1788  0.3421  0.3674
 6369TIP3    H140742   0.630   5.487   1.698  0.0275 -0.2027  3.5717
 6369TIP3    H240743   0.736   5.428   1.608 -2.5203  0.8131 -0.3139
 6370TIP3   OH240744   6.684   6.457   1.614  0.2592 -0.6796  0.1933
 6370TIP3    H140745   6.620   6.493   1.552  0.4413 -1.2183 -0.3148
 6370TIP3    H240746   6.695   6.366   1.586  0.0093 -1.0587  1.2925
 6371TIP3   OH240747   2.125   5.364   0.272  0.3700  0.1308 -0.2186
 6371TIP3    H140748   2.100   5.381   0.363 -1.3161  0.2702 -0.6595
 6371TIP3    H240749   2.159   5.447   0.240  1.4845 -0.0641  0.4201
 6372TIP3   OH240750   1.345   0.167   8.422 -0.6120  0.1799 -0.4611
 6372TIP3    H140751   1.254   0.161   8.449 -0.5793  1.7483  0.0857
 6372TIP3    H240752   1.354   0.102   8.353 -1.9823 -0.4139 -0.1177
 6373TIP3   OH240753   2.271   5.123   2.083 -0.0694  0.7650  0.1334
 6373TIP3    H140754   2.366   5.130   2.094 -0.1757 -0.1859  2.0019
 6373TIP3    H240755   2.258   5.128   1.988  1.9506 -0.3009 -0.2597
 6374TIP3   OH240756   6.440   4.439   0.945 -0.6834 -0.2761 -0.1019
 6374TIP3    H140757   6.507   4.383   0.983 -2.0977 -1.3973  0.8671
 6374TIP3    H240758   6.371   4.379   0.916 -0.7569  0.7349 -2.2319
 6375TIP3   OH240759   4.406   5.232   1.264 -0.5103 -0.0239  0.0198
 6375TIP3    H140760   4.423   5.250   1.356  0.2503  1.3507 -0.3540
 6375TIP3    H240761   4.411   5.137   1.256  1.5032 -0.0403  1.0060
 6376TIP3   OH240762   3.321   4.614   0.876  0.3028 -0.2858 -0.2363
 6376TIP3    H140763   3.249   4.650   0.823  1.9366  1.9300 -1.1119
 6376TIP3    H240764   3.290   4.621   0.966 -1.1242 -0.7721 -0.6527
 6377TIP3   OH240765   2.389   0.405   0.542  0.0809  0.1305 -0.6442
 6377TIP3    H140766   2.366   0.474   0.605 -0.2972 -0.0845 -0.5408
 6377TIP3    H240767   2.315   0.344   0.546  1.1316 -1.1196  0.4425
 6378TIP3   OH240768   2.169   6.699   0.316  0.4399 -0.3520  0.1293
 6378TIP3    H140769   2.120   6.766   0.267 -0.4801  0.1230  1.6204
 6378TIP3    H240770   2.191   6.633   0.251 -0.1427  0.5764 -1.0514
 6379TIP3   OH240771   5.199   3.282   8.059 -0.0404 -0.2883 -0.0529
 6379TIP3    H140772   5.142   3.305   7.986 -0.3512 -0.1961  0.2157
 6379TIP3    H240773   5.206   3.187   8.055 -1.6856 -0.4951  0.9788
 6380TIP3   OH240774   4.627   3.041   2.105  0.0328 -1.0332  0.0882
 6380TIP3    H140775   4.696   3.095   2.067 -2.6495  2.5731 -0.2642
 6380TIP3    H240776   4.661   3.013   2.189  1.3903  2.1334  0.7392
 6381TIP3   OH240777   1.131   4.772   6.891  0.2310  0.3043  0.1325
 6381TIP3    H140778   1.129   4.811   6.979 -3.1516 -0.5753  0.5997
 6381TIP3    H240779   1.076   4.830   6.839 -1.7458 -1.6686 -0.1130
 6382TIP3   OH240780   0.268   0.870   2.722 -0.3469 -0.2097 -0.9589
 6382TIP3    H140781   0.251   0.962   2.744 -0.9305 -0.5280 -0.0052
 6382TIP3    H240782   0.288   0.871   2.629  0.0156  0.9302 -0.8856
 6383TIP3   OH240783   1.385   4.900   8.649 -0.3583 -0.2505  0.0652
 6383TIP3    H140784   1.469   4.860   8.624  0.2665  0.3884  1.0548
 6383TIP3    H240785   1.334   4.827   8.684  0.5854 -0.3228  1.3851
 6384TIP3   OH240786   5.722   0.700   2.977  0.2538  0.1145 -0.5393
 6384TIP3    H140787   5.638   0.657   2.960 -0.2155 -0.5903  2.8409
 6384TIP3    H240788   5.699   0.791   2.996  0.3798  0.1392 -0.5051
 6385TIP3   OH240789   1.583   3.907   2.719  0.3863 -0.8457  0.4582
 6385TIP3    H140790   1.672   3.914   2.684  0.8587 -1.5474  1.4798
 6385TIP3    H240791   1.561   3.995   2.748 -0.0642 -0.2050 -1.6324
 6386TIP3   OH240792   4.976   1.365   1.866 -1.1520 -0.6643 -0.3590
 6386TIP3    H140793   5.040   1.309   1.910 -1.7501 -0.8910  0.2298
 6386TIP3    H240794   4.909   1.304   1.835 -2.4754 -0.1695  1.4197
 6387TIP3   OH240795   2.948   1.361   7.781  0.4638 -0.0781 -0.1109
 6387TIP3    H140796   2.858   1.330   7.771  1.3042 -2.4985 -0.8887
 6387TIP3    H240797   2.982   1.312   7.855  1.2449  0.5738 -0.0311
 6388TIP3   OH240798   3.109   5.958   2.386  0.6713  0.0647 -0.3637
 6388TIP3    H140799   3.163   6.035   2.399 -1.0413  1.4785 -1.1709
 6388TIP3    H240800   3.034   5.971   2.444  2.4033 -3.2792  3.0263
 6389TIP3   OH240801   0.898   5.092   8.373  0.3695 -0.3503 -0.5830
 6389TIP3    H140802   0.991   5.071   8.379 -0.2132 -2.8820  1.9110
 6389TIP3    H240803   0.874   5.118   8.462 -1.5478 -1.0296 -0.8496
 6390TIP3   OH240804   5.479   3.509   7.911 -0.0119 -0.9330  0.5616
 6390TIP3    H140805   5.551   3.494   7.971  0.3399  1.5202  0.8662
 6390TIP3    H240806   5.521   3.517   7.825  0.5862  2.8666  1.0126
 6391TIP3   OH240807   2.736   2.126   6.137 -0.0460  0.0838  0.0368
 6391TIP3    H140808   2.700   2.050   6.181  1.9654 -0.2773  1.2031
 6391TIP3    H240809   2.795   2.089   6.070 -0.0250  0.6155 -0.2465
 6392TIP3   OH240810   5.130   3.912   1.304 -0.2967 -0.2753  0.6766
 6392TIP3    H140811   5.218   3.949   1.311 -0.3336 -0.0304 -0.1250
 6392TIP3    H240812   5.098   3.910   1.394 -0.1977  1.4158  0.7734
 6393TIP3   OH240813   0.444   5.291   2.181  0.6229 -0.5425 -0.0289
 6393TIP3    H140814   0.410   5.380   2.183 -0.9619 -1.1226  0.1504
 6393TIP3    H240815   0.435   5.264   2.090 -0.2914 -1.0157  0.1916
 6394TIP3   OH240816   6.063   1.121   2.765  0.1811 -0.1469 -0.3804
 6394TIP3    H140817   6.135   1.182   2.778 -0.8899  1.9414 -3.1479
 6394TIP3    H240818   5.985   1.170   2.792 -0.4408 -1.5183  0.4109
 6395TIP3   OH240819   0.747   2.640   1.874  0.0905  0.5764  0.6460
 6395TIP3    H140820   0.686   2.580   1.916  1.0871  0.1854  1.5807
 6395TIP3    H240821   0.747   2.717   1.931 -0.5232  1.1221 -0.0748
 6396TIP3   OH240822   4.482   6.601   1.611  0.1202 -0.7117  0.2019
 6396TIP3    H140823   4.492   6.696   1.603  0.0789 -0.5216  1.9827
 6396TIP3    H240824   4.556   6.565   1.562  0.5936  0.2652  0.1637
 6397TIP3   OH240825   5.222   0.918   2.021  0.6074 -0.3131 -0.3290
 6397TIP3    H140826   5.288   0.849   2.013  1.0176  0.2467 -2.1508
 6397TIP3    H240827   5.262   0.995   1.982 -0.2113  0.7374  0.8178
 6398TIP3   OH240828   3.493   1.574   7.675  0.8322 -0.0430 -0.2784
 6398TIP3    H140829   3.517   1.627   7.751  1.1927 -0.1783 -0.2981
 6398TIP3    H240830   3.541   1.613   7.602 -1.8173  2.0402 -1.0955
 6399TIP3   OH240831   2.977   1.715   8.605  0.6649  0.0708 -0.2611
 6399TIP3    H140832   2.981   1.619   8.612 -1.3409 -0.0645 -0.5436
 6399TIP3    H240833   2.891   1.738   8.639  1.7314  1.9661  1.3541
 6400TIP3   OH240834   6.072   4.158   1.766 -0.1349  0.1530  0.2646
 6400TIP3    H140835   6.068   4.238   1.818 -1.4855 -0.3121  0.9167
 6400TIP3    H240836   6.082   4.087   1.829  0.2762 -0.2602 -0.2493
 6401TIP3   OH240837   2.426   2.325   0.649  0.3437  0.1335  0.0089
 6401TIP3    H140838   2.501   2.330   0.589  0.0843  1.9384 -0.2439
 6401TIP3    H240839   2.349   2.330   0.591  0.0639  0.1127  0.3731
 6402TIP3   OH240840   0.626   2.424   1.414 -0.4113 -0.5122 -0.0476
 6402TIP3    H140841   0.637   2.436   1.320  0.3258 -0.0718  0.0837
 6402TIP3    H240842   0.542   2.379   1.423  0.2411 -2.0179 -1.0080
 6403TIP3   OH240843   6.253   1.290   0.859 -0.1372 -0.3083  0.4962
 6403TIP3    H140844   6.261   1.216   0.799  0.4814 -0.7130  1.0539
 6403TIP3    H240845   6.298   1.261   0.938 -2.2108 -0.3675  1.7295
 6404TIP3   OH240846   0.545   5.303   7.162 -0.3332  0.0512  0.0538
 6404TIP3    H140847   0.546   5.339   7.073 -1.5320  0.9122  0.3661
 6404TIP3    H240848   0.605   5.358   7.211 -0.8288  0.5368  0.1229
 6405TIP3   OH240849   5.938   2.519   1.360  0.2804  0.0360  0.0331
 6405TIP3    H140850   5.889   2.479   1.432  0.1316  0.0831 -0.0419
 6405TIP3    H240851   6.025   2.479   1.365  0.3191  0.1535  0.3366
 6406TIP3   OH240852   2.593   6.304   1.695 -0.4534 -0.5542 -0.2238
 6406TIP3    H140853   2.581   6.330   1.786 -0.6489  3.1875 -1.1719
 6406TIP3    H240854   2.513   6.257   1.672 -0.8036 -0.7112  1.2256
 6407TIP3   OH240855   3.302   5.290   8.370  0.7659 -0.0632 -0.1550
 6407TIP3    H140856   3.366   5.317   8.304  0.4755 -0.2893 -0.5265
 6407TIP3    H240857   3.344   5.312   8.453  0.7916  0.9807 -0.4267
 6408TIP3   OH240858   0.123   0.332   1.438 -0.0622 -0.2485 -0.4805
 6408TIP3    H140859   0.152   0.286   1.517 -1.0639 -0.3144 -0.1479
 6408TIP3    H240860   0.048   0.282   1.407  1.4300 -1.3738 -2.5836
 6409TIP3   OH240861   2.794   1.804   1.872  0.7015  0.4372  0.0322
 6409TIP3    H140862   2.888   1.796   1.892  1.0628  2.3580 -0.7116
 6409TIP3    H240863   2.770   1.890   1.906 -1.1674 -0.5930  1.4809
 6410TIP3   OH240864   3.400   4.076   0.228 -0.3871 -0.3098 -0.0515
 6410TIP3    H140865   3.430   4.081   0.137 -0.1379  1.3091  0.0847
 6410TIP3    H240866   3.465   4.023   0.273  0.4729  0.3745 -0.4615
 6411TIP3   OH240867   1.606   5.507   1.723 -0.2245  0.1408 -0.1775
 6411TIP3    H140868   1.678   5.528   1.662 -1.2866  2.5276 -0.7350
 6411TIP3    H240869   1.536   5.475   1.667 -1.3238  2.6558 -0.3634
 6412TIP3   OH240870   4.400   6.561   7.785 -0.0408  0.0105 -0.2917
 6412TIP3    H140871   4.341   6.564   7.861 -0.1801  1.0771 -0.4247
 6412TIP3    H240872   4.357   6.501   7.724 -0.7193  0.3525 -0.1605
 6413TIP3   OH240873   2.431   2.751   1.612  0.0541 -0.0191  0.3495
 6413TIP3    H140874   2.510   2.743   1.559 -0.3939  0.2101 -0.3728
 6413TIP3    H240875   2.394   2.663   1.613  0.4378 -0.1797  0.8922
 6414TIP3   OH240876   1.432   0.959   8.403 -0.3214 -0.1900  0.2885
 6414TIP3    H140877   1.522   0.939   8.378  0.8759  1.0809  3.0838
 6414TIP3    H240878   1.381   0.883   8.373  1.4123 -0.4112 -2.4053
 6415TIP3   OH240879   5.501   3.371   7.564  0.3544  0.0549 -0.5261
 6415TIP3    H140880   5.593   3.377   7.591 -0.3811  2.0100  1.9499
 6415TIP3    H240881   5.484   3.452   7.517  0.0586 -0.6474 -1.6614
 6416TIP3   OH240882   4.858   3.169   2.074  0.2723 -0.1275 -0.0720
 6416TIP3    H140883   4.843   3.141   1.984 -0.1693 -0.3283  0.0622
 6416TIP3    H240884   4.926   3.111   2.107  2.1079  1.3839 -0.9807
 6417TIP3   OH240885   3.977   4.703   0.467 -0.0571  0.1516  0.0630
 6417TIP3    H140886   3.939   4.756   0.397  0.2492  2.3157  1.4471
 6417TIP3    H240887   3.905   4.689   0.529  0.5638  1.5381  1.1415
 6418TIP3   OH240888   3.357   1.198   1.657 -0.0468  0.1608 -0.1357
 6418TIP3    H140889   3.408   1.208   1.576  0.6592 -0.9297  0.1581
 6418TIP3    H240890   3.279   1.252   1.642  0.3863  0.5129 -1.2751
 6419TIP3   OH240891   1.867   0.852   7.167  0.1936 -0.0643  0.1263
 6419TIP3    H140892   1.772   0.854   7.181  0.1938 -1.2551  0.3899
 6419TIP3    H240893   1.883   0.769   7.123  1.2561 -0.4644  1.2106
 6420TIP3   OH240894   3.223   5.725   8.638  0.0445 -0.4167 -0.1675
 6420TIP3    H140895   3.300   5.782   8.631 -0.7418  0.7826  0.5320
 6420TIP3    H240896   3.257   5.644   8.675  1.1890 -0.4153 -1.1472
 6421TIP3   OH240897   6.882   3.474   1.756  0.4727  0.2490  0.7323
 6421TIP3    H140898   6.957   3.531   1.772  0.0713  0.1406  3.5008
 6421TIP3    H240899   6.806   3.534   1.759  0.3247  0.1897 -0.9185
 6422TIP3   OH240900   3.888   2.021   8.513  0.3413 -0.2167  0.3277
 6422TIP3    H140901   3.822   1.988   8.573  0.1115 -0.2549  0.0581
 6422TIP3    H240902   3.847   2.016   8.427  0.8184 -0.5689  0.1103
 6423TIP3   OH240903   6.671   3.209   8.529 -0.3257 -0.6258  0.3490
 6423TIP3    H140904   6.605   3.189   8.596  0.4273 -0.6265  1.0932
 6423TIP3    H240905   6.619   3.231   8.451 -1.2108 -0.6767  0.9078
 6424TIP3   OH240906   5.404   1.364   2.910  0.0053  0.0498 -0.2942
 6424TIP3    H140907   5.473   1.302   2.887  0.6294  1.2437 -1.8056
 6424TIP3    H240908   5.440   1.450   2.888 -0.9938  0.9397  1.3284
 6425TIP3   OH240909   0.092   4.108   0.830  0.4672  0.3035 -0.4002
 6425TIP3    H140910   0.012   4.110   0.882  0.2540  2.9378 -0.6870
 6425TIP3    H240911   0.153   4.054   0.881 -1.3259 -1.4379  0.0016
 6426TIP3   OH240912   1.797   6.399   1.444 -0.5004  0.0990 -0.9825
 6426TIP3    H140913   1.726   6.339   1.422  0.5307 -1.1819 -0.8987
 6426TIP3    H240914   1.784   6.417   1.538  0.0377 -1.2152 -0.6286
 6427TIP3   OH240915   6.291   0.162   1.271 -0.2466 -0.6732 -0.2189
 6427TIP3    H140916   6.237   0.231   1.235 -0.3379  0.4285  1.8524
 6427TIP3    H240917   6.342   0.129   1.197 -0.3523  1.4665 -1.3078
 6428TIP3   OH240918   4.514   3.088   3.495  0.3430 -0.2920 -0.8952
 6428TIP3    H140919   4.473   3.070   3.410 -0.0845  0.9967 -0.9925
 6428TIP3    H240920   4.444   3.071   3.558  1.2652 -3.3130 -0.5691
 6429TIP3   OH240921   5.483   3.765   2.575  0.2997 -0.0933  0.3477
 6429TIP3    H140922   5.442   3.688   2.614 -2.6343  1.5011  0.6929
 6429TIP3    H240923   5.481   3.748   2.481 -1.0475 -0.1563  0.3716
 6430TIP3   OH240924   5.685   3.893   7.808 -0.1920  0.6388 -0.3248
 6430TIP3    H140925   5.700   3.959   7.876 -0.4939  0.8670 -0.4800
 6430TIP3    H240926   5.774   3.870   7.779 -0.0533  0.4128  0.2605
 6431TIP3   OH240927   6.598   4.111   7.795 -0.0998  0.1043 -0.1969
 6431TIP3    H140928   6.612   4.108   7.701 -2.1602  0.9849 -0.5874
 6431TIP3    H240929   6.686   4.107   7.833  0.8801  1.3941 -2.1874
 6432TIP3   OH240930   0.661   0.853   2.139 -0.1047 -0.5818  0.3566
 6432TIP3    H140931   0.691   0.942   2.121  0.0960 -0.6476  0.3594
 6432TIP3    H240932   0.736   0.811   2.180 -0.0865 -0.8505  0.0549
 6433TIP3   OH240933   0.670   2.312   7.166  0.1460 -0.1396 -0.0645
 6433TIP3    H140934   0.681   2.405   7.148 -2.0611  0.3701  0.8432
 6433TIP3    H240935   0.726   2.295   7.242  1.0966  0.2563 -0.6643
 6434TIP3   OH240936   0.523   3.061   7.679 -0.4279 -0.0500  0.2596
 6434TIP3    H140937   0.500   3.126   7.614  1.1724 -1.3835 -1.7622
 6434TIP3    H240938   0.449   3.061   7.740 -3.6333 -0.9134 -3.2467
 6435TIP3   OH240939   2.539   2.645   2.583 -0.4618 -0.0974 -0.5913
 6435TIP3    H140940   2.532   2.553   2.610  2.5709 -0.5499 -0.9946
 6435TIP3    H240941   2.554   2.692   2.665 -1.5163  0.0064 -0.4418
 6436TIP3   OH240942   3.185   3.037   7.354 -0.1080 -0.4286 -0.0181
 6436TIP3    H140943   3.175   3.114   7.299 -1.9484  0.9801  2.1145
 6436TIP3    H240944   3.270   3.001   7.330  0.0377  1.2259 -2.3064
 6437TIP3   OH240945   4.373   3.407   2.835 -0.4232  0.0820  0.4570
 6437TIP3    H140946   4.364   3.332   2.894 -1.1201 -1.3033 -1.3259
 6437TIP3    H240947   4.286   3.447   2.833 -0.7498 -0.6375 -0.5594
 6438TIP3   OH240948   2.307   1.142   0.230  0.1760 -0.0776 -0.2631
 6438TIP3    H140949   2.250   1.078   0.187 -0.1020 -0.6427  0.9010
 6438TIP3    H240950   2.253   1.221   0.236 -0.5484 -0.6311  0.8932
 6439TIP3   OH240951   4.895   0.839   7.180 -0.5145  0.4580 -0.3931
 6439TIP3    H140952   4.847   0.763   7.147  0.6480  0.3655 -1.9858
 6439TIP3    H240953   4.862   0.913   7.129 -0.8490  0.8443  0.3719
 6440TIP3   OH240954   2.452   2.616   1.270  0.3659  0.2713 -0.1277
 6440TIP3    H140955   2.449   2.711   1.273 -0.0331  0.2607 -0.0614
 6440TIP3    H240956   2.366   2.591   1.236  0.0553 -0.1002  0.8831
 6441TIP3   OH240957   5.301   0.639   8.445 -0.0900  0.5653  0.2517
 6441TIP3    H140958   5.325   0.616   8.535 -1.7711 -0.8308  0.4185
 6441TIP3    H240959   5.326   0.563   8.393  0.2906  1.0992 -0.3534
 6442TIP3   OH240960   2.723   6.199   1.481  0.5373 -0.0553 -0.0938
 6442TIP3    H140961   2.685   6.243   1.557  1.6242 -1.0746  1.0882
 6442TIP3    H240962   2.796   6.149   1.516 -1.2436 -3.7124 -1.1158
 6443TIP3   OH240963   4.866   3.174   3.196 -0.3183  0.7627 -0.0964
 6443TIP3    H140964   4.863   3.160   3.290  0.2968  1.2973  0.0137
 6443TIP3    H240965   4.914   3.257   3.186 -0.4579  0.7579 -0.8694
 6444TIP3   OH240966   0.336   2.422   7.844  0.1583  0.5111  0.4896
 6444TIP3    H140967   0.369   2.439   7.756 -0.2649  1.2222  0.4620
 6444TIP3    H240968   0.365   2.332   7.864  1.4352  0.8330  0.1746
 6445TIP3   OH240969   2.059   0.162   1.565 -0.0388 -0.0328 -0.2909
 6445TIP3    H140970   2.102   0.161   1.480  0.4663  1.6697 -0.0944
 6445TIP3    H240971   1.965   0.161   1.544  0.0521 -2.0063 -0.7672
 6446TIP3   OH240972   1.781   6.753   1.105 -0.7979 -0.1912 -0.0775
 6446TIP3    H140973   1.735   6.744   1.188  0.1985  1.4890  0.6953
 6446TIP3    H240974   1.874   6.751   1.128 -0.4471  3.5827 -0.6310
 6447TIP3   OH240975   4.342   2.102   0.786 -0.3802 -0.3415 -0.2550
 6447TIP3    H140976   4.400   2.174   0.810 -0.4189 -1.3422  3.5038
 6447TIP3    H240977   4.396   2.024   0.794 -1.1435 -0.9782 -1.1297
 6448TIP3   OH240978   1.357   6.703   0.842  0.3235  0.5486 -0.0783
 6448TIP3    H140979   1.440   6.729   0.881  0.4088  0.3203 -0.1083
 6448TIP3    H240980   1.359   6.607   0.841  0.9641  0.5489 -2.0110
 6449TIP3   OH240981   6.700   4.133   0.020  0.0664 -0.1822  0.6434
 6449TIP3    H140982   6.715   4.172  -0.066  0.9002  1.0676  1.3137
 6449TIP3    H240983   6.616   4.088   0.012  0.4109 -0.6040 -0.9814
 6450TIP3   OH240984   4.222   0.754   0.699 -0.0752 -0.3150 -0.4053
 6450TIP3    H140985   4.149   0.815   0.703 -1.1735 -1.6509  1.4865
 6450TIP3    H240986   4.208   0.695   0.773  2.7354 -0.8522 -0.2102
 6451TIP3   OH240987   5.259   1.498   7.696 -0.5737 -0.2831 -0.3823
 6451TIP3    H140988   5.236   1.408   7.719  1.2621 -0.9737 -1.0994
 6451TIP3    H240989   5.200   1.552   7.749 -1.8341 -1.8847 -0.0637
 6452TIP3   OH240990   6.491   1.974   7.541  0.1028 -0.2514 -0.4696
 6452TIP3    H140991   6.469   2.061   7.576 -0.5419 -0.9016  0.8186
 6452TIP3    H240992   6.503   1.988   7.447 -0.2534  1.1806 -0.3233
 6453TIP3   OH240993   6.379   5.815   1.378  0.4963  0.4809 -0.2452
 6453TIP3    H140994   6.397   5.892   1.323 -0.0087 -0.7622 -2.2313
 6453TIP3    H240995   6.404   5.740   1.324 -0.7253 -0.8521  0.9567
 6454TIP3   OH240996   4.907   5.220   0.627  0.4201  0.0207 -0.2474
 6454TIP3    H140997   4.976   5.243   0.690 -0.2415  0.8858  0.1730
 6454TIP3    H240998   4.831   5.199   0.681 -0.6949  2.4735 -0.7574
 6455TIP3   OH240999   3.260   2.508   0.507 -0.2066 -1.2218 -0.3938
 6455TIP3    H141000   3.335   2.566   0.522 -0.0805 -0.6344 -2.8388
 6455TIP3    H241001   3.233   2.481   0.594 -0.9913  3.4410  1.0879
 6456TIP3   OH241002   6.419   5.064   8.442  0.3111 -0.1977  0.0241
 6456TIP3    H141003   6.474   5.135   8.410 -2.3600  3.3120  2.4971
 6456TIP3    H241004   6.341   5.067   8.387 -0.6696  0.1807  1.3969
 6457TIP3   OH241005   3.722   0.686   1.635 -0.8781 -0.0192 -0.5344
 6457TIP3    H141006   3.752   0.770   1.599 -0.4641 -0.0557 -0.2794
 6457TIP3    H241007   3.770   0.676   1.716 -0.8490 -0.5588 -0.6145
 6458TIP3   OH241008   4.794   0.598   2.559  0.4563  0.1575  0.1225
 6458TIP3    H141009   4.847   0.610   2.637  1.3299 -0.2182 -0.3988
 6458TIP3    H241010   4.847   0.542   2.502  0.1010  0.8933 -0.9805
 6459TIP3   OH241011   1.824   4.607   1.516 -0.1450  0.5076 -0.1801
 6459TIP3    H141012   1.857   4.530   1.562 -0.2433 -0.1233 -1.1355
 6459TIP3    H241013   1.866   4.603   1.430 -0.7778  1.0685 -0.5237
 6460TIP3   OH241014   0.267   3.809   0.325 -0.2744  0.0465  0.1009
 6460TIP3    H141015   0.338   3.747   0.342 -0.1119  0.1652 -0.1391
 6460TIP3    H241016   0.245   3.845   0.410  0.1891  0.2679  0.1285
 6461TIP3   OH241017   2.207   1.620   2.306 -0.9179  0.7600  0.0204
 6461TIP3    H141018   2.164   1.611   2.391  1.5503  0.0494  1.2875
 6461TIP3    H241019   2.144   1.585   2.244 -3.1371  2.0655  1.4062
 6462TIP3   OH241020   5.893   3.300   2.512  0.0687  0.2192 -0.1618
 6462TIP3    H141021   5.928   3.224   2.467  3.2382  0.9355  0.8276
 6462TIP3    H241022   5.901   3.279   2.605 -1.4619  0.8115  0.1459
 6463TIP3   OH241023   3.729   1.331   7.588  0.3538  0.1198  0.3133
 6463TIP3    H141024   3.694   1.306   7.674  0.0631 -3.0768 -0.6156
 6463TIP3    H241025   3.670   1.399   7.557 -0.2127  0.5313  2.1472
 6464TIP3   OH241026   5.343   2.773   2.749  0.1340  0.3306 -0.4511
 6464TIP3    H141027   5.287   2.850   2.762  0.0362 -0.1191  2.7725
 6464TIP3    H241028   5.285   2.699   2.764  1.0119 -0.2089  0.4406
 6465TIP3   OH241029   1.963   2.549   2.947 -0.1428  0.4964  0.0339
 6465TIP3    H141030   1.902   2.601   2.894  0.6859 -0.3767 -1.8665
 6465TIP3    H241031   2.029   2.613   2.975 -0.5046  0.9528 -0.1317
 6466TIP3   OH241032   4.659   0.070   0.572 -0.2499 -0.1607 -0.3665
 6466TIP3    H141033   4.749   0.077   0.604 -1.5827  2.2496  3.6384
 6466TIP3    H241034   4.649   0.144   0.512  0.0557  0.5609  0.4509
 6467TIP3   OH241035   1.868   4.080   1.050  0.1904  0.2336  0.5210
 6467TIP3    H141036   1.941   4.060   0.991 -1.7218  0.2439 -1.9725
 6467TIP3    H241037   1.841   3.995   1.085 -2.0428 -0.6602 -2.9214
 6468TIP3   OH241038   4.389   6.706   0.697 -0.4718 -0.3421  0.4965
 6468TIP3    H141039   4.394   6.799   0.674  1.1316  0.2739  2.9212
 6468TIP3    H241040   4.447   6.663   0.633 -0.0567  0.5434  0.2584
 6469TIP3   OH241041   4.153   4.837   7.142  0.1989 -0.1057 -0.1033
 6469TIP3    H141042   4.210   4.767   7.173  0.8105  0.6010  0.3978
 6469TIP3    H241043   4.110   4.800   7.065  0.7101 -0.9389 -0.0027
 6470TIP3   OH241044   4.656   3.760   2.728  0.1424 -0.0846 -0.1252
 6470TIP3    H141045   4.716   3.824   2.690  0.8813 -0.7420 -0.0979
 6470TIP3    H241046   4.577   3.765   2.674  1.4692 -1.6036 -2.3313
 6471TIP3   OH241047   1.795   1.852   2.276 -0.0395 -0.3010 -0.3064
 6471TIP3    H141048   1.863   1.852   2.343 -1.6710  0.1827  1.4499
 6471TIP3    H241049   1.829   1.796   2.206  2.2622  0.1942  0.3413
 6472TIP3   OH241050   4.789   3.364   6.729  0.9579  0.0114  0.2751
 6472TIP3    H141051   4.819   3.292   6.785  1.3595 -0.6382 -0.7340
 6472TIP3    H241052   4.869   3.398   6.688  0.5048 -0.8895 -1.4545
 6473TIP3   OH241053   1.292   0.297   1.330  0.4197 -0.2598  0.1722
 6473TIP3    H141054   1.209   0.297   1.378  0.6209 -1.6177  0.5335
 6473TIP3    H241055   1.269   0.263   1.243  0.3453  0.7385 -0.2143
 6474TIP3   OH241056   1.863   2.555   7.504  0.1974 -0.3961  0.8290
 6474TIP3    H141057   1.858   2.631   7.447  1.2308 -1.1607 -0.3475
 6474TIP3    H241058   1.796   2.495   7.471  1.9718 -1.6000 -0.8725
 6475TIP3   OH241059   1.868   0.929   1.259  0.2590 -0.6215 -0.4888
 6475TIP3    H141060   1.899   0.873   1.330 -0.1902 -0.9356 -0.5360
 6475TIP3    H241061   1.817   0.871   1.203 -0.2008 -0.1716 -0.5487
 6476TIP3   OH241062   2.430   5.280   2.264  0.1158  0.1050  0.5188
 6476TIP3    H141063   2.369   5.236   2.324  1.5895 -3.2864 -0.2218
 6476TIP3    H241064   2.505   5.303   2.319 -0.3293  1.0654  0.7511
 6477TIP3   OH241065   1.532   3.548   0.437 -0.7162 -0.0567  0.2565
 6477TIP3    H141066   1.457   3.510   0.389  1.1817 -1.7499 -1.5930
 6477TIP3    H241067   1.523   3.642   0.424 -1.5980 -0.3279 -1.4849
 6478TIP3   OH241068   0.412   3.524   8.443 -0.5444  0.2292 -0.3913
 6478TIP3    H141069   0.421   3.474   8.362  0.1755  2.2703 -1.6522
 6478TIP3    H241070   0.360   3.468   8.500 -1.1242 -1.2638 -2.2731
 6479TIP3   OH241071   1.718   4.483   7.443  0.4095 -0.5987  0.1000
 6479TIP3    H141072   1.807   4.498   7.476 -0.0222 -0.7858  1.3891
 6479TIP3    H241073   1.682   4.571   7.429  0.7080 -0.5211 -0.1938
 6480TIP3   OH241074   0.107   3.407   8.215  0.0851  0.1111  0.1208
 6480TIP3    H141075   0.172   3.461   8.170 -0.2042  0.7111  0.4210
 6480TIP3    H241076   0.053   3.469   8.264 -0.8931 -0.3585 -0.3442
 6481TIP3   OH241077   0.581   2.616   0.081  0.2264 -0.0424  0.4238
 6481TIP3    H141078   0.599   2.614  -0.013  0.2418 -0.3863  0.4299
 6481TIP3    H241079   0.496   2.573   0.089 -0.0006  0.4173  0.5206
 6482TIP3   OH241080   2.796   2.208   7.114 -0.0834 -0.4380  0.0015
 6482TIP3    H141081   2.789   2.182   7.206 -1.5567 -0.7237 -0.1662
 6482TIP3    H241082   2.860   2.279   7.114  1.2106 -1.5470  0.9976
 6483TIP3   OH241083   5.506   4.506   1.738 -0.1595 -0.3053 -0.8170
 6483TIP3    H141084   5.575   4.565   1.709  0.5065 -0.4475  0.4357
 6483TIP3    H241085   5.512   4.431   1.679  1.4939 -0.8138 -0.0661
 6484TIP3   OH241086   1.235   6.685   2.338  0.5130  0.5883 -0.3614
 6484TIP3    H141087   1.178   6.755   2.371  1.1612  1.2018 -0.5101
 6484TIP3    H241088   1.211   6.676   2.246 -1.9997 -1.8115  0.3816
 6485TIP3   OH241089   0.699   3.036   8.002  0.1333  0.0245  0.0598
 6485TIP3    H141090   0.675   2.956   7.956 -0.3917  0.3301 -0.2153
 6485TIP3    H241091   0.755   3.083   7.940  2.1919 -1.0563  1.0076
 6486TIP3   OH241092   4.898   2.664   2.284  0.3091  0.0842  0.3875
 6486TIP3    H141093   4.839   2.688   2.355 -0.1528  0.4363 -0.1143
 6486TIP3    H241094   4.981   2.706   2.307  0.1765  0.1575  0.7401
 6487TIP3   OH241095   2.040   5.526   0.694  0.2952  0.7756 -0.2944
 6487TIP3    H141096   2.027   5.621   0.689  0.6278  0.8034 -0.7439
 6487TIP3    H241097   1.959   5.489   0.658 -0.8609  0.8264  2.1106
 6488TIP3   OH241098   0.632   3.920   1.168  0.0340 -0.1570 -1.2432
 6488TIP3    H141099   0.726   3.920   1.189 -0.0460  0.2024 -0.8860
 6488TIP3    H241100   0.623   3.986   1.099  0.1885 -0.8636 -1.9638
 6489TIP3   OH241101   6.208   0.936   0.147 -0.2683 -0.1220  0.2025
 6489TIP3    H141102   6.127   0.930   0.198 -0.6059  0.3118 -0.2696
 6489TIP3    H241103   6.189   1.000   0.079  0.5673  0.2030  0.2546
 6490TIP3   OH241104   3.453   6.103   0.604 -0.3646  0.4051  0.5277
 6490TIP3    H141105   3.493   6.025   0.565  0.8927  0.4931  1.5832
 6490TIP3    H241106   3.525   6.148   0.648 -1.0356  2.2862 -0.2117
 6491TIP3   OH241107   0.049   0.647   0.563 -0.6385 -0.6755  0.0025
 6491TIP3    H141108   0.015   0.560   0.543  0.4655 -0.5417 -3.0838
 6491TIP3    H241109   0.005   0.705   0.501  0.8499  0.4156 -0.0943
 6492TIP3   OH241110   4.355   1.397   1.894  0.5654  0.4236 -0.3301
 6492TIP3    H141111   4.325   1.380   1.804  0.3087  0.2895 -0.2201
 6492TIP3    H241112   4.274   1.415   1.943  0.7857  1.4541 -0.3300
 6493TIP3   OH241113   3.202   5.364   8.039 -0.4635  0.4133 -0.6218
 6493TIP3    H141114   3.286   5.400   8.010 -0.3380 -0.6748 -1.7073
 6493TIP3    H241115   3.146   5.440   8.053  1.4385  1.3928  2.7338
 6494TIP3   OH241116   1.928   3.254   7.470 -0.0825  0.1813 -0.3400
 6494TIP3    H141117   1.938   3.309   7.393  1.0125 -0.7434 -0.8848
 6494TIP3    H241118   1.891   3.172   7.437  0.5306 -0.2784  0.0839
 6495TIP3   OH241119   1.954   2.678   0.284 -0.0935  0.2547  0.5497
 6495TIP3    H141120   2.007   2.663   0.207 -0.1284 -0.1807  0.6077
 6495TIP3    H241121   1.910   2.595   0.300 -1.3423  0.7910  0.0880
 6496TIP3   OH241122   5.026   5.679   7.103  0.2231  0.1008  0.0632
 6496TIP3    H141123   4.980   5.606   7.061  0.2358 -1.2399  2.1782
 6496TIP3    H241124   4.979   5.757   7.075  0.6413 -0.5916 -2.8633
 6497TIP3   OH241125   1.978   1.422   7.276 -0.3469 -0.2732 -0.2318
 6497TIP3    H141126   1.898   1.462   7.241  0.3708  1.3417 -0.0965
 6497TIP3    H241127   1.973   1.438   7.370  0.1670 -0.1177 -0.2294
 6498TIP3   OH241128   5.281   1.215   7.371  0.0123  0.2259  0.0990
 6498TIP3    H141129   5.201   1.165   7.389 -1.2590  1.6254 -1.3216
 6498TIP3    H241130   5.350   1.166   7.414 -1.4543 -1.6391  0.4671
 6499TIP3   OH241131   0.518   4.345   0.044 -0.0572  0.1019  0.9644
 6499TIP3    H141132   0.511   4.306  -0.043  1.0836 -2.6893  2.0190
 6499TIP3    H241133   0.430   4.343   0.080  0.1151 -2.9798  1.4765
 6500TIP3   OH241134   5.044   6.792   0.486  0.0175  0.2497 -0.4074
 6500TIP3    H141135   4.982   6.803   0.413  0.7640  0.1559 -1.0641
 6500TIP3    H241136   5.035   6.872   0.537  0.6568  1.0434 -1.5101
 6501TIP3   OH241137   0.795   0.714   1.198  0.1581 -0.2375  0.2580
 6501TIP3    H141138   0.866   0.669   1.153  2.8848  0.8681  3.0202
 6501TIP3    H241139   0.755   0.647   1.253 -0.4370 -0.7059 -0.7366
 6502TIP3   OH241140   0.127   3.196   8.405  0.6128  0.5162  0.3291
 6502TIP3    H141141   0.219   3.184   8.429  0.4425 -0.1694  0.6711
 6502TIP3    H241142   0.123   3.284   8.369  1.5177  0.3478 -0.2151
 6503TIP3   OH241143   2.278   4.435   1.379  0.2079 -0.1537  0.1581
 6503TIP3    H141144   2.221   4.455   1.453 -0.4769  2.0446 -0.8920
 6503TIP3    H241145   2.229   4.369   1.329 -1.2367  1.2823 -0.4236
 6504TIP3   OH241146   3.206   0.376   0.382  0.7887 -0.0347 -0.0438
 6504TIP3    H141147   3.209   0.351   0.474 -0.9055 -0.9189 -0.1818
 6504TIP3    H241148   3.210   0.294   0.334 -2.2183 -0.0043 -0.5847
 6505TIP3   OH241149   4.035   1.322   0.013  0.0158 -0.1787 -0.1255
 6505TIP3    H141150   3.941   1.339   0.000  0.0082  1.2368  1.4663
 6505TIP3    H241151   4.042   1.227   0.017 -1.8007 -0.2948  2.3819
 6506TIP3   OH241152   1.726   0.339   8.312 -0.0876  0.5474  0.1679
 6506TIP3    H141153   1.719   0.276   8.240 -0.4187 -0.7177  1.2693
 6506TIP3    H241154   1.682   0.297   8.386  3.8197 -0.1228  2.3771
 6507TIP3   OH241155   4.271   0.556   7.960 -0.2764  0.2747  0.4174
 6507TIP3    H141156   4.227   0.639   7.977  0.0843  0.3510  1.0161
 6507TIP3    H241157   4.334   0.575   7.891 -1.2200  0.1437 -0.5134
 6508TIP3   OH241158   6.771   3.641   2.205  0.3579 -0.1429  0.4352
 6508TIP3    H141159   6.836   3.689   2.153  0.0516 -1.2961 -1.1042
 6508TIP3    H241160   6.749   3.565   2.151 -1.7183 -0.1850  1.2458
 6509TIP3   OH241161   6.462   1.294   0.516  0.1004  0.0450  0.3726
 6509TIP3    H141162   6.372   1.288   0.481  0.2340 -2.3174  0.2667
 6509TIP3    H241163   6.506   1.354   0.456 -0.3654 -1.9495 -2.1500
 6510TIP3   OH241164   4.795   2.714   8.234  0.1753 -0.0841 -0.1411
 6510TIP3    H141165   4.871   2.704   8.292  0.3980  1.2501 -0.1614
 6510TIP3    H241166   4.823   2.675   8.151  1.6355  2.0771 -0.7642
 6511TIP3   OH241167   6.827   1.681   7.765  0.1057 -0.1647 -0.8596
 6511TIP3    H141168   6.818   1.767   7.724 -1.4090 -0.3058 -0.8960
 6511TIP3    H241169   6.782   1.690   7.849  0.4803 -0.7536 -0.5880
 6512TIP3   OH241170   1.001   0.676   7.669 -0.0185  0.5641  0.0108
 6512TIP3    H141171   0.950   0.745   7.712  0.1888  1.4085 -1.0548
 6512TIP3    H241172   1.074   0.661   7.729 -0.0115  1.3541  0.2189
 6513TIP3   OH241173   0.516   2.116   0.281  0.3245 -0.2614 -1.0714
 6513TIP3    H141174   0.436   2.068   0.259  1.0340 -1.5882 -0.8901
 6513TIP3    H241175   0.488   2.179   0.348 -0.8437  0.3326 -2.0826
 6514TIP3   OH241176   5.029   6.691   0.023 -0.0261 -0.1274 -0.1101
 6514TIP3    H141177   4.943   6.674   0.063 -0.2786  2.4330  0.6137
 6514TIP3    H241178   5.091   6.648   0.081 -0.4924  2.3930  2.5142
 6515TIP3   OH241179   5.098   0.869   8.049  0.1379 -0.0015 -0.4248
 6515TIP3    H141180   5.134   0.889   7.963  1.3916 -0.8342 -0.1189
 6515TIP3    H241181   5.089   0.953   8.092 -0.5736  0.4358 -1.3736
 6516TIP3   OH241182   0.660   1.997   2.063  0.1951  0.2730  0.1996
 6516TIP3    H141183   0.754   1.978   2.070 -0.1783 -1.3842  1.2042
 6516TIP3    H241184   0.637   2.034   2.148 -0.1805  0.0955  0.1762
 6517TIP3   OH241185   3.136   1.313   1.519  0.0118 -0.3173 -0.5663
 6517TIP3    H141186   3.076   1.388   1.515  1.1992  0.6350 -0.9214
 6517TIP3    H241187   3.152   1.290   1.428  0.3194 -0.4667 -0.4748
 6518TIP3   OH241188   1.714   1.509   0.378  0.1492 -0.0318 -0.2738
 6518TIP3    H141189   1.740   1.599   0.358  0.9425 -0.4509 -1.2007
 6518TIP3    H241190   1.620   1.515   0.395  0.1199  0.9140 -0.6833
 6519TIP3   OH241191   6.084   5.229   8.563 -0.1429 -0.0669 -0.4184
 6519TIP3    H141192   6.111   5.138   8.548 -0.9234 -0.2787 -0.5961
 6519TIP3    H241193   6.098   5.243   8.657 -0.8680 -0.6746 -0.2073
 6520TIP3   OH241194   5.746   6.568   7.155 -0.6076  0.2791 -0.1277
 6520TIP3    H141195   5.773   6.621   7.230  0.1491 -2.0157  1.3601
 6520TIP3    H241196   5.826   6.555   7.105 -0.5680 -0.1964  0.0474
 6521TIP3   OH241197   0.785   6.615   7.940  0.5098 -0.0095 -0.3178
 6521TIP3    H141198   0.858   6.590   7.884  0.3372 -1.2015 -0.0296
 6521TIP3    H241199   0.791   6.711   7.946  1.6411 -0.0349 -0.8331
 6522TIP3   OH241200   4.533   3.782   7.765 -0.1314  0.3889 -0.2704
 6522TIP3    H141201   4.504   3.838   7.693  1.0746  2.0828  0.4870
 6522TIP3    H241202   4.624   3.761   7.743 -0.2012 -0.2824  0.0559
 6523TIP3   OH241203   4.950   0.604   7.648 -0.0061 -0.4991 -0.2082
 6523TIP3    H141204   5.021   0.559   7.602 -1.3179 -2.1308 -0.7152
 6523TIP3    H241205   4.917   0.668   7.585 -1.3373 -2.2480 -1.3670
 6524TIP3   OH241206   0.803   1.172   0.648  0.2323  0.1065 -0.5835
 6524TIP3    H141207   0.730   1.152   0.589  0.4627 -1.9712 -0.2616
 6524TIP3    H241208   0.879   1.177   0.590  0.0581  0.8039 -0.7562
 6525TIP3   OH241209   6.071   4.318   8.528 -0.1250  0.4703 -0.2129
 6525TIP3    H141210   6.044   4.402   8.493  4.2934  1.9768 -0.4970
 6525TIP3    H241211   6.053   4.255   8.458 -3.9862  0.8303  0.2001
 6526TIP3   OH241212   1.574   0.246   0.480 -0.3507  0.1014 -0.0618
 6526TIP3    H141213   1.601   0.165   0.436 -0.5116  1.0656 -2.0285
 6526TIP3    H241214   1.494   0.223   0.527  0.3872 -1.2182  0.5896
 6527TIP3   OH241215   0.777   4.069   2.242 -0.2335  0.3382 -0.0387
 6527TIP3    H141216   0.787   3.979   2.272 -1.4297 -0.3371 -1.5011
 6527TIP3    H241217   0.864   4.108   2.252  0.5521 -1.2708 -0.2943
 6528TIP3   OH241218   3.768   6.073   8.385 -0.2894 -0.7193  0.1380
 6528TIP3    H141219   3.800   6.116   8.464  2.4667  1.3425 -1.8509
 6528TIP3    H241220   3.799   5.983   8.392  0.8827 -0.2777  0.9666
 6529TIP3   OH241221   1.572   1.259   2.523  0.2145  0.4524  0.2243
 6529TIP3    H141222   1.668   1.252   2.529  0.1261 -0.5054  0.7700
 6529TIP3    H241223   1.556   1.283   2.432  0.9832  0.7433  0.1557
 6530TIP3   OH241224   6.853   3.806   7.324 -0.1449 -0.6562  0.0960
 6530TIP3    H141225   6.805   3.744   7.269  0.6178 -0.1531 -1.1844
 6530TIP3    H241226   6.818   3.892   7.301  1.0126 -0.3235 -0.5346
 6531TIP3   OH241227   0.913   0.943   2.181 -0.6515  0.7930  0.1766
 6531TIP3    H141228   0.991   0.902   2.218 -1.6930 -0.5031  1.0334
 6531TIP3    H241229   0.937   0.964   2.091  0.2133 -0.9597 -0.0400
 6532TIP3   OH241230   6.350   2.217   1.035 -0.6788  0.9419 -0.4499
 6532TIP3    H141231   6.345   2.292   0.975 -0.6946  1.5433  0.2785
 6532TIP3    H241232   6.440   2.217   1.066 -0.8337  1.0613  0.0285
 6533TIP3   OH241233   1.186   2.112   7.728 -0.0014 -0.0226 -0.2512
 6533TIP3    H141234   1.217   2.046   7.790 -0.1650  0.5307  0.4320
 6533TIP3    H241235   1.094   2.089   7.713 -0.0635  0.0654 -0.0003
 6534TIP3   OH241236   3.740   2.402   8.219  0.2740  0.8283  0.4630
 6534TIP3    H141237   3.673   2.467   8.197  1.0170  1.2215 -0.7972
 6534TIP3    H241238   3.702   2.318   8.194 -0.9042  0.6760  2.5936
 6535TIP3   OH241239   2.518   3.335   2.154  0.2637  0.0202 -0.2369
 6535TIP3    H141240   2.528   3.418   2.108 -0.0107 -0.0774 -0.4762
 6535TIP3    H241241   2.425   3.313   2.144 -1.0058  2.1957  4.0563
 6536TIP3   OH241242   3.119   2.192   7.826 -0.1828  0.3205  0.2221
 6536TIP3    H141243   3.051   2.146   7.777  0.4794  0.1721 -0.5853
 6536TIP3    H241244   3.147   2.263   7.769  1.4669 -0.6036 -0.1793
 6537TIP3   OH241245   5.908   3.829   0.720  0.4764 -0.3050  0.0490
 6537TIP3    H141246   5.998   3.825   0.750  0.1185  0.2734  1.3073
 6537TIP3    H241247   5.912   3.813   0.626  2.2523  2.6799 -0.5225
 6538TIP3   OH241248   1.405   4.799   7.852 -0.0989 -0.2611 -0.2896
 6538TIP3    H141249   1.418   4.817   7.945 -0.5893  0.1277 -0.2965
 6538TIP3    H241250   1.478   4.742   7.829  1.0872  1.1263 -0.1023
 6539TIP3   OH241251   1.497   2.646   0.724  0.2420  0.2393  0.0274
 6539TIP3    H141252   1.489   2.612   0.813  1.1382 -1.4379 -0.4876
 6539TIP3    H241253   1.439   2.591   0.672  0.3423  0.6723 -0.5534
 6540TIP3   OH241254   3.325   4.934   1.047 -0.4648 -0.6581 -0.2869
 6540TIP3    H141255   3.317   4.838   1.047  0.5745 -0.7528 -0.7265
 6540TIP3    H241256   3.280   4.961   1.127 -0.0937 -1.5699  0.2504
 6541TIP3   OH241257   1.247   1.769   1.454 -0.4473  0.3616 -0.5879
 6541TIP3    H141258   1.226   1.721   1.374  0.2780 -1.1780  0.0860
 6541TIP3    H241259   1.316   1.716   1.496 -2.1939 -0.0218  2.0509
 6542TIP3   OH241260   2.312   5.133   7.630  0.0229  0.1120 -0.6846
 6542TIP3    H141261   2.269   5.062   7.583  0.3500  0.5559 -1.6735
 6542TIP3    H241262   2.372   5.090   7.691 -0.4174 -0.4679 -0.6607
 6543TIP3   OH241263   0.171   2.879   1.091  0.1055 -0.5449  0.6197
 6543TIP3    H141264   0.179   2.943   1.162 -2.9841 -0.3606  0.9603
 6543TIP3    H241265   0.238   2.813   1.110  1.6137  1.2074  1.7383
 6544TIP3   OH241266   3.962   5.436   2.047  0.0652  0.4353 -0.4554
 6544TIP3    H141267   3.944   5.465   2.136  0.6633  0.2602 -0.2797
 6544TIP3    H241268   3.930   5.346   2.043  0.3326  0.3346 -0.3237
 6545TIP3   OH241269   3.915   3.943   0.951 -0.7628 -0.0741  0.2383
 6545TIP3    H141270   3.987   3.912   0.897 -0.3963  0.6538  0.2912
 6545TIP3    H241271   3.868   4.005   0.895 -0.4582  0.5843  0.6979
 6546TIP3   OH241272   3.881   4.997   0.470  0.0967  0.3909  0.3992
 6546TIP3    H141273   3.899   4.951   0.552 -0.6418  0.4832  0.6186
 6546TIP3    H241274   3.814   5.061   0.493  0.4991  0.9984 -0.0932
 6547TIP3   OH241275   1.425   0.070   2.118  0.3470 -1.0522  0.8523
 6547TIP3    H141276   1.477   0.136   2.163 -0.0513  0.0023 -0.2011
 6547TIP3    H241277   1.335   0.089   2.143  0.0521 -0.0936 -0.7494
 6548TIP3   OH241278   6.597   1.120   0.701 -0.0234  0.0337  0.4270
 6548TIP3    H141279   6.513   1.164   0.687  0.9442  1.1892 -2.4112
 6548TIP3    H241280   6.637   1.168   0.773 -0.7237  1.1782  0.0876
 6549TIP3   OH241281   5.504   0.555   2.900 -0.0332  0.0331 -0.4385
 6549TIP3    H141282   5.444   0.575   2.829 -0.6650 -0.1775  0.0226
 6549TIP3    H241283   5.448   0.519   2.969  0.8076 -1.5619 -0.5407
 6550TIP3   OH241284   5.394   5.502   0.192  0.0044  0.0689  0.5998
 6550TIP3    H141285   5.418   5.410   0.200 -0.1535  0.0887  1.3331
 6550TIP3    H241286   5.358   5.526   0.277 -0.2490  0.7264  0.3211
 6551TIP3   OH241287   0.644   0.895   0.244  0.2735  0.4743 -0.7582
 6551TIP3    H141288   0.654   0.805   0.277  0.8211  0.2190 -1.5816
 6551TIP3    H241289   0.592   0.885   0.165 -2.1370  1.2165  0.6318
 6552TIP3   OH241290   0.774   4.599   2.249  0.1177  0.4986  0.0711
 6552TIP3    H141291   0.697   4.603   2.192  0.1184 -0.7193 -0.0427
 6552TIP3    H241292   0.786   4.689   2.279  0.0188  1.1388 -1.7102
 6553TIP3   OH241293   6.490   6.866   1.413  0.3488 -0.1138 -0.1086
 6553TIP3    H141294   6.456   6.953   1.393 -0.5422 -0.4991 -0.3175
 6553TIP3    H241295   6.581   6.869   1.385 -0.2136  0.1078 -2.0996
 6554TIP3   OH241296   1.698   3.639   2.386  0.2629 -0.2382  0.3475
 6554TIP3    H141297   1.764   3.704   2.407 -0.8346  0.5904  1.4011
 6554TIP3    H241298   1.617   3.674   2.425 -0.0727 -2.9431  2.3939
 6555TIP3   OH241299   1.695   6.533   8.402 -0.7911 -0.0494  0.2165
 6555TIP3    H141300   1.734   6.456   8.443 -1.7788 -0.9664 -0.5039
 6555TIP3    H241301   1.740   6.541   8.317 -0.6283  0.2324  0.3256
 6556TIP3   OH241302   2.446   5.169   7.115 -0.2929 -0.1214  0.3883
 6556TIP3    H141303   2.363   5.123   7.103 -0.4086  0.2447 -0.2318
 6556TIP3    H241304   2.512   5.108   7.084 -0.5132  0.4429 -1.3381
 6557TIP3   OH241305   6.460   0.424   8.076  0.4656  0.0765 -0.4615
 6557TIP3    H141306   6.475   0.439   7.983 -0.7584 -0.6356 -0.8037
 6557TIP3    H241307   6.367   0.402   8.082  0.3954  0.6491  1.0068
 6558TIP3   OH241308   1.349   0.964   0.672 -0.1725  0.5384  0.4235
 6558TIP3    H141309   1.348   0.869   0.667 -1.6854  0.6009 -1.2656
 6558TIP3    H241310   1.385   0.983   0.759  1.7323 -1.5105  0.1673
 6559TIP3   OH241311   1.716   1.085   0.702 -0.1896 -0.0531  0.4226
 6559TIP3    H141312   1.742   1.170   0.665  0.4765 -0.0109  0.9639
 6559TIP3    H241313   1.704   1.029   0.625 -0.3708  0.4569  0.0685
 6560TIP3   OH241314   0.087   6.218   0.830 -0.1846  0.5882 -0.3803
 6560TIP3    H141315   0.181   6.215   0.812 -0.0145  1.3829  0.3358
 6560TIP3    H241316   0.062   6.127   0.843  0.5819  0.4195 -0.0823
 6561TIP3   OH241317   0.148   6.401   7.673  0.0467  0.3286  0.0178
 6561TIP3    H141318   0.123   6.316   7.635 -1.5756  0.0183  1.6238
 6561TIP3    H241319   0.238   6.388   7.702  0.0184 -0.6532 -0.2796
 6562TIP3   OH241320   4.901   1.365   0.332  0.1255  0.7926 -0.0939
 6562TIP3    H141321   4.927   1.350   0.424  1.4769 -2.2687 -0.8263
 6562TIP3    H241322   4.983   1.387   0.288  0.1692 -1.1162 -1.0791
 6563TIP3   OH241323   4.390   3.202   0.023  0.5287  0.0570 -0.3439
 6563TIP3    H141324   4.458   3.223   0.087  0.0794 -1.7999  0.8149
 6563TIP3    H241325   4.406   3.111  -0.001  1.5123  1.0162 -4.0065
 6564TIP3   OH241326   0.269   0.489   0.034 -0.3953  0.1336  0.3742
 6564TIP3    H141327   0.291   0.413  -0.019 -2.8804 -0.3985  0.0162
 6564TIP3    H241328   0.300   0.467   0.122  2.7414  0.5559 -0.4759
 6565TIP3   OH241329   1.213   5.561   7.618  0.2546  0.4672 -0.6495
 6565TIP3    H141330   1.227   5.555   7.713  0.6624 -1.6693 -0.7802
 6565TIP3    H241331   1.122   5.588   7.609  0.0194  0.0781  0.3838
 6566TIP3   OH241332   2.310   6.571   7.500 -0.0331  0.4064  0.4595
 6566TIP3    H141333   2.295   6.527   7.416 -0.7937  1.0357  0.2509
 6566TIP3    H241334   2.391   6.621   7.487  2.7286 -3.2900  1.6935
 6567TIP3   OH241335   3.997   0.388   1.191  0.0045 -0.0477  0.6344
 6567TIP3    H141336   3.904   0.372   1.204  0.0045 -1.2170 -0.5741
 6567TIP3    H241337   4.002   0.480   1.164 -1.0318 -0.4429 -1.0973
 6568TIP3   OH241338   2.634   1.951   1.021  0.7073 -0.2620  0.8403
 6568TIP3    H141339   2.557   1.897   1.009 -0.1259  1.1817 -0.7297
 6568TIP3    H241340   2.706   1.902   0.981 -0.6058  1.0207 -3.6243
 6569TIP3   OH241341   1.361   5.691   0.597 -0.3802 -0.0117 -0.0222
 6569TIP3    H141342   1.406   5.765   0.556  0.8329 -1.1569 -0.8519
 6569TIP3    H241343   1.323   5.643   0.524 -0.4098 -0.6764  0.4242
 6570TIP3   OH241344   2.222   5.437   1.895 -0.2550 -0.8655 -0.0434
 6570TIP3    H141345   2.312   5.426   1.927 -0.3121 -2.2110 -0.2937
 6570TIP3    H241346   2.182   5.497   1.958  0.7885 -0.2983  0.1136
 6571TIP3   OH241347   2.793   1.385   8.507 -0.4737  0.3809 -0.2837
 6571TIP3    H141348   2.869   1.393   8.449  1.9889  0.4760  2.6903
 6571TIP3    H241349   2.780   1.290   8.516 -1.8576  0.3558 -2.0610
 6572TIP3   OH241350   5.694   4.537   7.415  0.1738  0.3809  0.0680
 6572TIP3    H141351   5.746   4.574   7.486 -0.9298  1.2443  0.4561
 6572TIP3    H241352   5.724   4.583   7.336 -0.1387  1.0234  0.3206
 6573TIP3   OH241353   1.510   6.758   8.347  0.4239 -0.2011 -0.2831
 6573TIP3    H141354   1.501   6.708   8.266 -1.0166 -0.5429  0.0707
 6573TIP3    H241355   1.553   6.698   8.408  1.8981  0.1938 -0.8765
 6574TIP3   OH241356   5.687   1.487   7.624  0.4788  0.1845  0.3327
 6574TIP3    H141357   5.718   1.466   7.536 -0.9418  0.6081 -0.2998
 6574TIP3    H241358   5.694   1.582   7.629  1.1686  0.1114  0.9390
 6575TIP3   OH241359   3.380   4.923   2.409 -0.7223 -0.3175 -0.8165
 6575TIP3    H141360   3.306   4.944   2.466 -0.4818  0.0946 -0.6552
 6575TIP3    H241361   3.458   4.941   2.462 -0.4643  1.4271 -1.7148
 6576TIP3   OH241362   2.064   3.154   2.216 -0.3791  0.4291 -0.3334
 6576TIP3    H141363   2.035   3.147   2.307 -0.5215 -1.0149 -0.4610
 6576TIP3    H241364   2.001   3.213   2.175 -0.1550  1.3030  0.5533
 6577TIP3   OH241365   1.571   2.587   7.480 -0.3653  0.1660  0.0200
 6577TIP3    H141366   1.475   2.585   7.483 -0.3510  0.5813  1.0166
 6577TIP3    H241367   1.592   2.677   7.455 -0.2305 -0.0100 -0.5225
 6578TIP3   OH241368   4.366   2.419   7.971 -0.3207 -0.0279  0.6992
 6578TIP3    H141369   4.460   2.409   7.985 -0.3431 -0.3502  0.6271
 6578TIP3    H241370   4.343   2.348   7.911 -0.4333  0.6258 -0.0465
 6579TIP3   OH241371   2.498   0.007   7.660  0.6736  0.0835  0.0358
 6579TIP3    H141372   2.522   0.085   7.609 -0.4473 -0.1912 -0.9485
 6579TIP3    H241373   2.524   0.028   7.749  3.1398  0.3921 -0.6834
 6580TIP3   OH241374   2.823   6.831   1.140  0.5737  0.1552  0.0093
 6580TIP3    H141375   2.877   6.795   1.070  0.1093 -0.0098 -0.2703
 6580TIP3    H241376   2.759   6.763   1.160  0.0027  0.6219 -0.1789
 6581TIP3   OH241377   3.190   5.087   0.153  0.7286 -0.3288 -1.1118
 6581TIP3    H141378   3.102   5.103   0.187  1.2686  1.3039 -0.3930
 6581TIP3    H241379   3.237   5.045   0.225  0.8184 -0.3256 -1.1684
 6582TIP3   OH241380   2.709   3.917   8.577 -0.2671 -0.0055 -0.8357
 6582TIP3    H141381   2.648   3.849   8.606 -0.7238  0.8219  0.2253
 6582TIP3    H241382   2.737   3.959   8.658  0.6241  0.5561 -1.4263
 6583TIP3   OH241383   3.327   1.157   7.987 -0.1421 -0.4441 -0.7697
 6583TIP3    H141384   3.298   1.220   7.921 -1.1672 -0.6736 -0.5608
 6583TIP3    H241385   3.332   1.073   7.939 -2.1556 -0.8750 -0.3093
 6584TIP3   OH241386   6.316   2.430   2.501  0.3282 -0.3816 -0.0966
 6584TIP3    H141387   6.262   2.354   2.522 -0.8223  0.1378 -1.1002
 6584TIP3    H241388   6.361   2.450   2.584 -2.3650  0.2543  1.3357
 6585TIP3   OH241389   3.290   5.068   7.589 -0.7877  0.3004 -0.3554
 6585TIP3    H141390   3.293   5.042   7.497 -0.5985  1.5929 -0.7319
 6585TIP3    H241391   3.224   5.137   7.593  0.0261  1.0746  0.2485
 6586TIP3   OH241392   4.361   4.620   6.673  0.4945 -0.0438  0.4426
 6586TIP3    H141393   4.400   4.621   6.586 -0.3859  0.4706  0.0364
 6586TIP3    H241394   4.398   4.696   6.717 -0.8657  1.1118 -0.3344
 6587TIP3   OH241395   0.972   4.800   8.360  0.1790 -0.3652 -0.1339
 6587TIP3    H141396   0.938   4.883   8.395  0.6624 -0.1007 -0.2719
 6587TIP3    H241397   1.047   4.780   8.415  0.7858 -0.0859 -0.8337
 6588TIP3   OH241398   4.014   3.162   8.043 -0.2815 -0.3298 -0.3285
 6588TIP3    H141399   3.993   3.071   8.020 -1.5747 -0.4543  1.1585
 6588TIP3    H241400   3.998   3.211   7.962  2.2152 -1.5900 -1.7227
 6589TIP3   OH241401   0.865   4.193   8.639  0.1253 -0.2805 -0.2377
 6589TIP3    H141402   0.822   4.109   8.628 -2.0811  0.5663  1.2545
 6589TIP3    H241403   0.851   4.215   8.731  0.8320  1.6218 -0.5412
 6590TIP3   OH241404   2.883   3.122   1.723  0.1319  0.5923  0.4728
 6590TIP3    H141405   2.837   3.040   1.705 -0.0804  0.8621 -0.2401
 6590TIP3    H241406   2.836   3.160   1.797 -0.3177  0.4934  0.2435
 6591TIP3   OH241407   2.166   5.259   8.527  0.2747  0.3620 -0.1867
 6591TIP3    H141408   2.227   5.332   8.510  2.2944 -1.5550 -1.6953
 6591TIP3    H241409   2.201   5.218   8.606  1.7117 -1.3741 -1.6370
 6592TIP3   OH241410   0.651   2.172   8.226  0.5602 -0.5049 -0.1045
 6592TIP3    H141411   0.691   2.146   8.143 -1.2554 -0.0614 -1.1769
 6592TIP3    H241412   0.557   2.160   8.212  0.2367 -1.0022  2.1161
 6593TIP3   OH241413   2.013   3.722   7.829 -0.1242  0.2016 -0.0390
 6593TIP3    H141414   1.940   3.784   7.835  0.2502  0.5972  0.4708
 6593TIP3    H241415   2.081   3.770   7.782 -0.7645 -0.7285 -2.0206
 6594TIP3   OH241416   2.703   0.251   2.365 -0.3852  0.4847 -0.8070
 6594TIP3    H141417   2.616   0.232   2.401 -0.6188  1.4095 -0.8575
 6594TIP3    H241418   2.757   0.266   2.443 -0.2115 -0.2964 -0.7685
 6595TIP3   OH241419   1.994   3.877   0.020  0.2453 -0.2530  0.1609
 6595TIP3    H141420   2.017   3.860   0.111  1.8586 -0.0166 -0.1712
 6595TIP3    H241421   2.074   3.910  -0.020 -0.6141  0.3160 -1.1877
 6596TIP3   OH241422   1.729   5.008   2.080  0.3355  0.1185  0.0021
 6596TIP3    H141423   1.692   4.924   2.106  0.0975  0.8640  2.2724
 6596TIP3    H241424   1.723   5.008   1.984 -0.4123 -2.0846 -0.0044
 6597TIP3   OH241425   0.407   3.955   6.984  0.2391 -0.1677  0.0790
 6597TIP3    H141426   0.363   3.899   7.048 -1.9325 -0.2226 -1.3500
 6597TIP3    H241427   0.373   4.042   7.001  1.6135  0.2911  0.6044
 6598TIP3   OH241428   6.249   0.075   8.098 -0.5218 -0.4028  0.3474
 6598TIP3    H141429   6.205  -0.010   8.105  2.8951 -2.3751  0.0737
 6598TIP3    H241430   6.265   0.087   8.004  0.1070 -0.0780  0.4880
 6599TIP3   OH241431   0.914   5.437   1.225  0.6748 -0.3817 -0.0267
 6599TIP3    H141432   1.000   5.476   1.206  1.9457 -1.9237  2.1085
 6599TIP3    H241433   0.912   5.358   1.172 -0.0621  0.3447 -1.1172
 6600TIP3   OH241434   3.616   0.456   0.433  0.1772  0.4821 -0.5130
 6600TIP3    H141435   3.708   0.466   0.410  0.5414  1.7217  1.2927
 6600TIP3    H241436   3.587   0.544   0.458 -0.7042 -0.3449  1.6253
 6601TIP3   OH241437   0.468   1.244   1.089 -0.1154  0.6045  0.2437
 6601TIP3    H141438   0.561   1.223   1.099 -0.1391  0.4923  0.2283
 6601TIP3    H241439   0.467   1.339   1.075  0.0379  0.5387 -0.2574
 6602TIP3   OH241440   5.571   0.007   1.641  0.0029  0.2697  0.1558
 6602TIP3    H141441   5.533   0.018   1.554  1.3238 -1.4602 -0.6989
 6602TIP3    H241442   5.664   0.028   1.630  0.5932 -1.8364  0.6461
 6603TIP3   OH241443   5.483   0.940   1.358  0.2965 -0.3819 -0.1202
 6603TIP3    H141444   5.510   0.932   1.450 -0.0795  0.2900  0.0620
 6603TIP3    H241445   5.516   1.026   1.331 -0.0131 -0.3678 -0.4608
 6604TIP3   OH241446   0.246   6.606   7.514 -0.5010 -0.7440  0.0931
 6604TIP3    H141447   0.168   6.661   7.523  1.1094  1.3968  2.2241
 6604TIP3    H241448   0.224   6.526   7.561 -1.9486 -0.8744 -0.7439
 6605TIP3   OH241449   0.734   2.446   2.119 -0.1318  0.1882 -0.4250
 6605TIP3    H141450   0.647   2.423   2.087 -0.7427 -0.4135  1.5108
 6605TIP3    H241451   0.767   2.365   2.158  0.3015  0.9848  0.9362
 6606TIP3   OH241452   4.830   4.197   1.008  0.2781 -0.1095 -0.0124
 6606TIP3    H141453   4.754   4.248   0.981  0.2551 -0.3199 -0.3607
 6606TIP3    H241454   4.900   4.262   1.018  0.5330 -0.0978 -1.4985
 6607TIP3   OH241455   5.875   1.556   7.892 -0.1920 -0.3676  0.2192
 6607TIP3    H141456   5.960   1.535   7.929  0.2432 -0.8844 -1.0216
 6607TIP3    H241457   5.894   1.604   7.812 -1.0886  0.2274  0.3454
 6608TIP3   OH241458   4.483   0.861   1.093 -0.2317 -0.0397 -0.1321
 6608TIP3    H141459   4.447   0.920   1.027  0.1390  0.9473  0.5287
 6608TIP3    H241460   4.551   0.912   1.137 -0.8099 -0.4986  1.3573
 6609TIP3   OH241461   2.784   0.798   8.526 -0.0333 -0.2759 -0.1342
 6609TIP3    H141462   2.813   0.823   8.614 -1.9903  0.0197  0.4630
 6609TIP3    H241463   2.815   0.708   8.516  1.0997  0.0326  0.4363
 6610TIP3   OH241464   6.551   6.479   0.270  0.1182  0.0439 -0.4094
 6610TIP3    H141465   6.456   6.480   0.258  0.1516 -2.4232 -1.3571
 6610TIP3    H241466   6.570   6.393   0.308  1.8566  1.1191  1.3622
 6611TIP3   OH241467   0.915   2.680   1.631  0.1270  0.2854  0.3363
 6611TIP3    H141468   1.000   2.711   1.600  1.2033 -0.4637  2.3091
 6611TIP3    H241469   0.911   2.709   1.722 -1.2230 -0.6765  0.6112
 6612TIP3   OH241470   2.722   4.736   1.144 -0.6024  0.1591 -0.1751
 6612TIP3    H141471   2.670   4.816   1.140  0.1491  0.6368 -0.9301
 6612TIP3    H241472   2.766   4.739   1.228  1.1352  1.6830 -1.0816
 6613TIP3   OH241473   3.380   3.058   1.831 -0.4752 -0.0435 -0.0972
 6613TIP3    H141474   3.300   3.009   1.850 -0.1802  0.3193  2.3658
 6613TIP3    H241475   3.451   2.999   1.854 -0.0494  0.2915 -0.5227
 6614TIP3   OH241476   3.337   2.059   2.464 -0.0371  0.0389  0.5109
 6614TIP3    H141477   3.271   2.041   2.531 -0.1569 -2.1690 -0.1336
 6614TIP3    H241478   3.389   1.979   2.459 -0.4504 -0.1689 -2.4905
 6615TIP3   OH241479   2.590   2.500   1.463 -0.0417 -0.1470 -1.1865
 6615TIP3    H141480   2.523   2.531   1.403 -1.1830 -0.5425 -0.1698
 6615TIP3    H241481   2.564   2.411   1.485 -0.5688  0.4780  1.0634
 6616TIP3   OH241482   4.240   2.465   1.222  0.0040 -0.5734  0.2749
 6616TIP3    H141483   4.318   2.512   1.193  0.6855 -1.0323  1.3152
 6616TIP3    H241484   4.177   2.535   1.242  0.0730 -0.2053 -0.6989
 6617TIP3   OH241485   4.222   3.432   8.084  0.1887 -0.0122 -0.1842
 6617TIP3    H141486   4.281   3.453   8.011 -0.5488  0.8011 -0.5750
 6617TIP3    H241487   4.192   3.518   8.115  0.7831 -0.3274  1.3475
 6618TIP3   OH241488   0.097   0.295   2.056  0.3445 -0.1297 -0.4752
 6618TIP3    H141489   0.017   0.243   2.053  0.4777 -0.3114 -0.8338
 6618TIP3    H241490   0.131   0.281   2.145 -1.1843  1.7131  0.4793
 6619TIP3   OH241491   1.957   2.023   8.497 -0.3334 -0.2439  0.8505
 6619TIP3    H141492   1.874   2.034   8.544 -1.2088  0.3231 -0.7184
 6619TIP3    H241493   2.005   2.104   8.514 -0.3760 -0.3024  1.2530
 6620TIP3   OH241494   5.215   6.435   7.652 -0.3809 -0.4960 -0.0271
 6620TIP3    H141495   5.295   6.389   7.627  0.5353  1.0615 -0.0513
 6620TIP3    H241496   5.213   6.430   7.747  0.5746  0.7835  0.0711
 6621TIP3   OH241497   3.845   3.401   1.349 -0.0052 -0.2318 -0.2016
 6621TIP3    H141498   3.852   3.488   1.309  0.2196 -1.1637 -2.3067
 6621TIP3    H241499   3.824   3.419   1.441  1.3485  2.0768 -0.2465
 6622TIP3   OH241500   1.344   3.029   0.441  0.3202  0.0560  0.1715
 6622TIP3    H141501   1.301   3.104   0.482 -0.1628  0.2415 -0.6454
 6622TIP3    H241502   1.320   3.036   0.348  2.0302  0.0879 -0.2933
 6623TIP3   OH241503   5.390   1.241   2.521 -0.4646 -0.3732 -0.2094
 6623TIP3    H141504   5.325   1.172   2.530  0.7266 -1.4099  0.9191
 6623TIP3    H241505   5.415   1.239   2.429 -1.1400 -0.7898 -0.3875
 6624TIP3   OH241506   5.170   3.270   1.937  0.5936  0.2924  0.2054
 6624TIP3    H141507   5.092   3.223   1.908  0.2466 -0.6483  2.4816
 6624TIP3    H241508   5.225   3.203   1.978  0.9505  1.5272  1.8529
 6625TIP3   OH241509   4.873   0.552   1.571 -0.1479  0.3606 -0.0170
 6625TIP3    H141510   4.861   0.520   1.481  0.2865 -2.5302  0.8586
 6625TIP3    H241511   4.787   0.539   1.612  0.0434  0.3159  0.3692
 6626TIP3   OH241512   5.136   5.624   1.621 -0.5263  0.0783 -0.3659
 6626TIP3    H141513   5.181   5.667   1.694 -0.9710  0.2296 -0.1745
 6626TIP3    H241514   5.070   5.687   1.594  0.8387  0.8144 -2.1433
 6627TIP3   OH241515   1.524   1.449   7.546  0.4003 -0.6695  0.8898
 6627TIP3    H141516   1.520   1.514   7.475 -2.5990  0.7057  2.1638
 6627TIP3    H241517   1.557   1.498   7.621  0.3270 -1.2470  1.2998
 6628TIP3   OH241518   2.541   0.042   1.763 -0.4157 -1.2186  0.7864
 6628TIP3    H141519   2.583   0.095   1.832 -0.8545  1.2985 -0.7411
 6628TIP3    H241520   2.565  -0.048   1.784  2.2894 -0.2600  2.3014
 6629TIP3   OH241521   0.965   0.339   1.848 -0.5580 -0.5836  0.1863
 6629TIP3    H141522   0.982   0.417   1.796 -0.7395 -0.7166 -0.0750
 6629TIP3    H241523   0.871   0.323   1.838 -1.0434  0.6456  2.3231
 6630TIP3   OH241524   2.310   2.915   0.596  0.3507 -0.5321  0.1064
 6630TIP3    H141525   2.266   2.834   0.572 -0.6463  0.2517 -0.8158
 6630TIP3    H241526   2.402   2.899   0.579  0.1466 -1.4416 -0.1659
 6631TIP3   OH241527   5.289   6.683   7.092 -0.5607 -0.4485  0.5095
 6631TIP3    H141528   5.321   6.594   7.105  0.3895 -0.2648 -0.4115
 6631TIP3    H241529   5.327   6.710   7.009 -2.8633 -0.0769 -0.5049
 6632TIP3   OH241530   2.712   4.534   8.474 -0.2137 -0.0501 -0.4820
 6632TIP3    H141531   2.792   4.575   8.509 -0.4659 -0.6678  0.8716
 6632TIP3    H241532   2.731   4.441   8.474 -0.7779 -0.1680 -0.5835
 6633TIP3   OH241533   3.862   6.479   0.221 -0.0894 -0.1710  0.0924
 6633TIP3    H141534   3.942   6.432   0.198 -1.0333 -2.0793  0.4944
 6633TIP3    H241535   3.792   6.415   0.207 -1.4714  1.1949  0.4911
 6634TIP3   OH241536   3.829   1.234   7.344  0.0966  0.0267 -0.2990
 6634TIP3    H141537   3.811   1.249   7.437 -1.1253  0.2617 -0.5576
 6634TIP3    H241538   3.743   1.226   7.304  0.6105  0.0441 -1.4405
 6635TIP3   OH241539   1.321   2.649   7.593 -0.1949  0.0257  0.3593
 6635TIP3    H141540   1.280   2.719   7.643  0.0697 -1.7829  3.3251
 6635TIP3    H241541   1.250   2.614   7.539 -0.1397  2.9610 -1.8801
 6636TIP3   OH241542   6.278   2.792   1.454  0.2826  0.1362 -0.7558
 6636TIP3    H141543   6.302   2.871   1.502 -0.9359  1.4107 -2.1327
 6636TIP3    H241544   6.203   2.757   1.501 -1.3766  1.7912 -2.0025
 6637TIP3   OH241545   6.376   2.150   0.319  0.2517 -0.1557  0.2346
 6637TIP3    H141546   6.407   2.195   0.240  1.4109 -0.1946  0.6418
 6637TIP3    H241547   6.433   2.183   0.388  0.1391 -1.1453  0.8053
 6638TIP3   OH241548   5.221   5.741   7.935  0.9592  0.0432  0.2775
 6638TIP3    H141549   5.221   5.771   8.026  2.2696 -0.0939  0.3408
 6638TIP3    H241550   5.296   5.682   7.929  0.7769 -0.0996 -0.8468
 6639TIP3   OH241551   0.336   4.395   1.776  0.4386  0.2196 -0.1419
 6639TIP3    H141552   0.417   4.430   1.814 -0.0339  0.7935  0.3499
 6639TIP3    H241553   0.360   4.306   1.748  1.2472  0.3942 -0.0374
 6640TIP3   OH241554   4.875   3.348   0.764 -0.0308 -0.1084  0.7640
 6640TIP3    H141555   4.793   3.372   0.806 -1.9184 -2.2298 -1.3916
 6640TIP3    H241556   4.871   3.253   0.756  0.2293  0.0316 -3.6915
 6641TIP3   OH241557   0.044   1.372   7.963 -0.1637  0.0059 -0.4976
 6641TIP3    H141558  -0.043   1.363   7.923 -0.9925  0.5977  1.0820
 6641TIP3    H241559   0.104   1.338   7.896 -1.5055  0.4261 -1.9994
 6642TIP3   OH241560   3.931   2.422   1.461 -0.0285 -0.0562 -0.5676
 6642TIP3    H141561   3.971   2.455   1.541 -1.9215  0.5068  0.2096
 6642TIP3    H241562   3.953   2.487   1.394 -0.0053  0.4543 -0.0673
 6643TIP3   OH241563   3.904   4.035   1.258  0.3406  0.1182 -0.0218
 6643TIP3    H141564   3.894   4.085   1.339 -0.1442  0.8420 -0.5190
 6643TIP3    H241565   3.974   4.079   1.210  0.6351 -0.3165 -0.0013
 6644TIP3   OH241566   2.395   0.309   6.852  0.5112  0.2359 -0.7075
 6644TIP3    H141567   2.356   0.247   6.914 -2.1551  1.7205 -0.7735
 6644TIP3    H241568   2.357   0.286   6.767  2.1159 -0.0972 -1.3912
 6645TIP3   OH241569   4.412   3.394   6.413  0.3033 -0.2374  0.2800
 6645TIP3    H141570   4.503   3.369   6.400  0.0249  0.0938 -2.9161
 6645TIP3    H241571   4.364   3.312   6.409  0.2963 -0.2371  0.3436
 6646TIP3   OH241572   1.317   0.492   1.644  0.0776 -0.0686  0.3604
 6646TIP3    H141573   1.320   0.530   1.732  0.4874 -0.4788  0.5272
 6646TIP3    H241574   1.399   0.444   1.636  0.4875  0.7696 -0.6204
 6647TIP3   OH241575   6.475   2.718   2.740 -0.3543  0.4539 -0.2963
 6647TIP3    H141576   6.555   2.753   2.703  0.4436 -0.4638  0.4980
 6647TIP3    H241577   6.423   2.690   2.664  0.5438  0.0963 -0.7879
 6648TIP3   OH241578   3.024   0.868   7.526 -0.0188 -0.3095  0.5575
 6648TIP3    H141579   3.087   0.915   7.581  0.2878  1.2635 -1.0616
 6648TIP3    H241580   3.073   0.847   7.446 -1.2633  0.0885 -0.3390
 6649TIP3   OH241581   6.176   2.855   8.001  0.0370 -0.1163 -0.3906
 6649TIP3    H141582   6.087   2.858   7.967 -0.0643 -3.3621 -0.8006
 6649TIP3    H241583   6.167   2.866   8.095 -0.9411 -1.1431 -0.3407
 6650TIP3   OH241584   3.691   5.024   8.092  0.0935  0.1357 -0.1410
 6650TIP3    H141585   3.755   5.051   8.026  0.3919  0.2290  0.1814
 6650TIP3    H241586   3.715   4.933   8.113 -0.3216 -0.0670 -0.5360
 6651TIP3   OH241587   6.812   6.269   1.876 -0.8455  0.1589 -0.3018
 6651TIP3    H141588   6.855   6.284   1.792 -2.1177 -2.6379 -1.6045
 6651TIP3    H241589   6.778   6.354   1.902  0.2040  1.2412 -2.2477
 6652TIP3   OH241590   1.753   2.573   2.308  0.2839  0.2850 -0.1207
 6652TIP3    H141591   1.710   2.583   2.393 -2.2512  2.6160 -1.5141
 6652TIP3    H241592   1.843   2.601   2.323 -0.2821  1.3151  1.6902
 6653TIP3   OH241593   5.096   6.616   7.387 -0.0986 -0.3175  0.4782
 6653TIP3    H141594   5.036   6.637   7.459 -1.4459  0.2395 -0.7619
 6653TIP3    H241595   5.055   6.541   7.344  1.3124 -1.4081  0.9603
 6654TIP3   OH241596   4.419   6.425   2.105 -0.0887 -0.0853 -0.1567
 6654TIP3    H141597   4.384   6.509   2.076  1.2197  0.9165  0.9752
 6654TIP3    H241598   4.433   6.375   2.025  0.4402  1.3399 -0.9816
 6655TIP3   OH241599   4.808   3.167   8.238 -0.1746  0.0756 -0.0334
 6655TIP3    H141600   4.844   3.254   8.254 -0.1508  0.0641 -0.0245
 6655TIP3    H241601   4.883   3.114   8.211 -0.3293  0.2581 -0.8483
 6656TIP3   OH241602   5.262   3.047   1.256 -0.3074 -0.1991  0.0014
 6656TIP3    H141603   5.340   3.101   1.265 -0.2872  0.0825 -1.6170
 6656TIP3    H241604   5.238   3.054   1.164 -2.6709  0.3113  0.5878
 6657TIP3   OH241605   0.355   1.887   2.151 -0.4231 -0.5409  0.1249
 6657TIP3    H141606   0.403   1.955   2.199 -1.0763  0.8706 -1.1425
 6657TIP3    H241607   0.408   1.808   2.164  1.3015  0.5591  0.2426
 6658TIP3   OH241608   1.607   6.209   2.043  0.8757  0.3268  0.3822
 6658TIP3    H141609   1.544   6.136   2.041  2.3741 -0.9910 -0.6801
 6658TIP3    H241610   1.565   6.278   1.992  0.0520 -0.3195  0.1541
 6659TIP3   OH241611   5.448   5.218   0.485 -0.9922  0.3881 -0.0051
 6659TIP3    H141612   5.522   5.158   0.499 -0.7093  0.2826 -1.8054
 6659TIP3    H241613   5.435   5.218   0.391 -1.4841  2.5883  0.0245
 6660TIP3   OH241614   0.295   2.507   1.951  0.5010  0.4543 -0.1383
 6660TIP3    H141615   0.291   2.602   1.940  1.1730  0.3345 -1.6592
 6660TIP3    H241616   0.203   2.479   1.948 -0.0651  1.3279  3.9114
 6661TIP3   OH241617   3.102   6.572   8.338  0.1085 -0.7103  0.9180
 6661TIP3    H141618   3.034   6.524   8.292 -0.9116  1.6765 -0.2104
 6661TIP3    H241619   3.059   6.651   8.370  1.5451 -0.8021  3.3225
 6662TIP3   OH241620   3.211   3.690   1.198  0.1004  0.3238  0.4147
 6662TIP3    H141621   3.214   3.785   1.206 -1.9597  0.3577  1.6115
 6662TIP3    H241622   3.184   3.660   1.285 -0.9027 -1.2218 -0.3903
 6663TIP3   OH241623   4.678   0.078   1.128  0.2132  0.0470 -0.0961
 6663TIP3    H141624   4.675   0.009   1.062 -0.1617  0.3928 -0.4450
 6663TIP3    H241625   4.729   0.148   1.087  1.2046 -0.2933  0.5230
 6664TIP3   OH241626   4.226   4.575   1.496  0.4228  0.5501 -0.2117
 6664TIP3    H141627   4.255   4.570   1.588  0.8053  0.3637 -0.3424
 6664TIP3    H241628   4.305   4.555   1.445  0.3577  1.2559 -0.5936
 6665TIP3   OH241629   2.361   5.878   0.177  0.3389  0.0857 -0.3259
 6665TIP3    H141630   2.275   5.906   0.146  0.3476 -1.5849 -2.0330
 6665TIP3    H241631   2.418   5.886   0.100  1.2049 -0.8340  0.1967
 6666TIP3   OH241632   5.112   1.965   2.589 -0.5891 -0.4013  0.1011
 6666TIP3    H141633   5.190   1.910   2.595  0.5839  1.2844  0.9616
 6666TIP3    H241634   5.083   1.975   2.680 -0.4032  0.9079  0.0265
 6667TIP3   OH241635   6.199   5.867   0.894  0.4014 -0.5396  0.2607
 6667TIP3    H141636   6.162   5.911   0.817  2.9887 -0.5735 -1.0860
 6667TIP3    H241637   6.191   5.932   0.964  0.0844  0.3680 -0.5869
 6668TIP3   OH241638   3.849   6.872   2.162 -0.1612 -0.0886  0.1317
 6668TIP3    H141639   3.854   6.833   2.250 -1.6762  0.7165  0.6075
 6668TIP3    H241640   3.773   6.930   2.166  1.3997  2.1888 -0.8408
 6669TIP3   OH241641   2.834   6.367   2.926 -0.2753 -0.1077  0.3929
 6669TIP3    H141642   2.742   6.366   2.902  0.0769  2.9013 -1.6621
 6669TIP3    H241643   2.872   6.292   2.880 -1.5081 -0.7833  0.4548
 6670TIP3   OH241644   4.727   6.438   8.258  0.1730 -0.1820  0.9261
 6670TIP3    H141645   4.693   6.373   8.320  0.6928 -0.7151  0.6532
 6670TIP3    H241646   4.652   6.458   8.202 -0.0370 -0.4183  1.1169
 6671TIP3   OH241647   4.789   1.259   3.109  0.0142  0.2688 -1.0358
 6671TIP3    H141648   4.695   1.258   3.128  0.4840 -1.1921  1.7355
 6671TIP3    H241649   4.806   1.348   3.079 -1.6138  2.0923  2.7604
 6672TIP3   OH241650   4.161   2.791   1.108 -0.2522  0.1067 -0.0503
 6672TIP3    H141651   4.112   2.873   1.101  0.8945  0.6916 -2.7225
 6672TIP3    H241652   4.251   2.815   1.087  0.1198 -1.8122 -0.8601
 6673TIP3   OH241653   2.871   4.358   8.061 -0.1443 -0.3101  0.1150
 6673TIP3    H141654   2.846   4.416   8.133  4.9541  0.2781  1.8609
 6673TIP3    H241655   2.873   4.271   8.100 -0.2523 -0.4466 -0.1831
 6674TIP3   OH241656   5.665   1.395   1.865 -0.2249 -0.1004 -0.0653
 6674TIP3    H141657   5.745   1.344   1.857 -0.2765 -0.2944  0.5544
 6674TIP3    H241658   5.694   1.485   1.878 -0.0922 -0.2431  0.6576
 6675TIP3   OH241659   6.563   1.556   7.935 -0.1790 -0.1336 -0.5807
 6675TIP3    H141660   6.566   1.612   7.857  0.6280  1.3773  0.4954
 6675TIP3    H241661   6.472   1.560   7.964 -0.0462  1.0046 -0.2722
 6676TIP3   OH241662   3.527   5.512   8.412 -0.1244 -0.1902  0.2259
 6676TIP3    H141663   3.576   5.549   8.486 -1.4564  0.4202  0.8279
 6676TIP3    H241664   3.533   5.417   8.424 -0.2999 -0.0961  1.0989
 6677TIP3   OH241665   2.801   4.334   2.353  0.3187 -0.1370 -0.2203
 6677TIP3    H141666   2.738   4.278   2.398  0.2660  1.2539  1.5687
 6677TIP3    H241667   2.765   4.422   2.361  2.5481  0.7559  1.0954
 6678TIP3   OH241668   1.157   0.972   8.035 -0.2213 -0.7119 -0.1722
 6678TIP3    H141669   1.114   0.924   8.105 -3.0965  0.4448 -0.9802
 6678TIP3    H241670   1.116   0.939   7.955  0.3345  0.5200 -1.0009
 6679TIP3   OH241671   4.455   2.384   7.535  0.1792 -0.3370 -0.0832
 6679TIP3    H141672   4.360   2.396   7.527  0.2215  0.3952  0.3890
 6679TIP3    H241673   4.492   2.457   7.486  0.4614  1.7703  2.9800
 6680TIP3   OH241674   5.548   1.096   7.402  0.3471  0.4872  0.2147
 6680TIP3    H141675   5.553   1.000   7.402 -0.3459  0.4274 -0.9118
 6680TIP3    H241676   5.568   1.121   7.312 -1.3716  1.2674  0.0047
 6681TIP3   OH241677   5.563   1.399   6.664 -0.2399  0.3122 -0.5448
 6681TIP3    H141678   5.497   1.466   6.646 -2.2381 -1.1466  0.8907
 6681TIP3    H241679   5.628   1.411   6.595 -1.3057  2.6711 -1.2621
 6682TIP3   OH241680   3.795   1.750   8.097  0.1986  0.6247 -0.0124
 6682TIP3    H141681   3.887   1.758   8.122 -0.1685  0.4115  1.4954
 6682TIP3    H241682   3.798   1.711   8.009  1.5486  1.3094 -0.3136
 6683TIP3   OH241683   3.887   0.866   6.898 -0.1739  0.1698 -0.2579
 6683TIP3    H141684   3.816   0.803   6.910  0.2419 -0.2106  0.2726
 6683TIP3    H241685   3.901   0.869   6.803 -1.7110  1.1796 -0.4930
 6684TIP3   OH241686   5.258   6.335   7.027  0.6786 -0.2167  0.2184
 6684TIP3    H141687   5.251   6.264   6.963  0.1592 -0.8877  0.9883
 6684TIP3    H241688   5.352   6.356   7.029  0.8581 -0.9556  0.0454
 6685TIP3   OH241689   0.996   4.345   8.053 -0.2587 -0.5415  0.1360
 6685TIP3    H141690   1.005   4.440   8.056 -2.1700 -0.2378 -1.5006
 6685TIP3    H241691   0.915   4.327   8.100  0.0245 -1.3658  0.3259
 6686TIP3   OH241692   4.030   6.228   8.378 -0.4190 -0.2390  0.6888
 6686TIP3    H141693   4.061   6.173   8.307 -1.3307 -0.0236  0.1048
 6686TIP3    H241694   3.941   6.197   8.395 -0.2946 -0.1407  1.5881
 6687TIP3   OH241695   0.108   2.705   0.862  0.1316  0.1295  0.2258
 6687TIP3    H141696   0.091   2.755   0.942  0.5311  0.2849  0.2119
 6687TIP3    H241697   0.037   2.640   0.860  1.0058 -0.9114  1.5277
 6688TIP3   OH241698   2.510   1.733   1.204 -0.2795  0.0823  0.3595
 6688TIP3    H141699   2.581   1.670   1.191 -0.1687  0.4437 -0.9503
 6688TIP3    H241700   2.535   1.781   1.282  1.7984  1.2856 -0.9376
 6689TIP3   OH241701   3.912   0.633   7.755  0.3590  0.1006  0.3240
 6689TIP3    H141702   3.992   0.673   7.722 -0.1210  0.9993  0.2384
 6689TIP3    H241703   3.850   0.640   7.683  0.2752 -0.8667  0.2814
 6690TIP3   OH241704   5.307   2.158   8.496 -0.6691 -0.2020  0.0040
 6690TIP3    H141705   5.399   2.133   8.502 -0.8130 -0.8578 -0.3913
 6690TIP3    H241706   5.297   2.227   8.561 -0.9226 -3.1690  3.4126
 6691TIP3   OH241707   4.940   1.102   2.397  0.0059 -0.2502  0.2635
 6691TIP3    H141708   4.936   1.089   2.303  2.0309  1.5452 -0.1389
 6691TIP3    H241709   5.008   1.041   2.427  0.1580 -0.0305  0.3747
 6692TIP3   OH241710   5.501   1.603   2.859  0.0371 -0.5614  0.4454
 6692TIP3    H141711   5.580   1.651   2.884  0.4035 -0.3575 -1.0256
 6692TIP3    H241712   5.492   1.617   2.765 -1.4237 -1.0817  0.4697
 6693TIP3   OH241713   5.669   1.514   0.251  0.1599 -0.3136  0.6018
 6693TIP3    H141714   5.744   1.546   0.201 -2.2937  1.1917 -2.5662
 6693TIP3    H241715   5.657   1.578   0.321  0.7047  0.5478 -0.0721
 6694TIP3   OH241716   1.969   1.244   2.224 -0.0629  0.1661  0.0800
 6694TIP3    H141717   1.995   1.189   2.149 -0.5099  1.1638 -0.8400
 6694TIP3    H241718   1.893   1.199   2.261  0.5924 -0.7177  0.3922
 6695TIP3   OH241719   6.540   3.942   1.561 -0.1659 -0.0552 -0.5959
 6695TIP3    H141720   6.544   3.974   1.471 -0.5146  1.9297  0.0564
 6695TIP3    H241721   6.459   3.979   1.596  0.1136 -0.5558  0.6309
 6696TIP3   OH241722   2.678   1.783   1.412 -0.0819  0.1595 -0.0716
 6696TIP3    H141723   2.752   1.806   1.469 -0.3545  0.0149  0.3395
 6696TIP3    H241724   2.719   1.748   1.333  0.2955  0.3299  0.0462
 6697TIP3   OH241725   2.305   4.987   1.500 -0.2947  0.3189  0.2214
 6697TIP3    H141726   2.242   5.052   1.470  0.2199 -0.3698 -2.5939
 6697TIP3    H241727   2.279   4.906   1.457  1.7020 -0.2805  0.0475
 6698TIP3   OH241728   1.142   5.565   0.949 -1.0190 -0.4784 -0.0325
 6698TIP3    H141729   1.111   5.554   1.039  0.1564 -2.9607  0.1355
 6698TIP3    H241730   1.198   5.489   0.933  0.9896  1.2631 -1.9641
 6699TIP3   OH241731   2.629   5.654   1.642  0.6182  0.4764 -0.5890
 6699TIP3    H141732   2.706   5.703   1.613  1.1365  0.3353  0.4939
 6699TIP3    H241733   2.645   5.564   1.614  0.9616  0.4053 -0.1835
 6700TIP3   OH241734   1.942   6.304   1.850 -0.0252  0.3157  0.0194
 6700TIP3    H141735   1.927   6.213   1.876  0.2916  0.7820  2.0092
 6700TIP3    H241736   1.861   6.329   1.805 -0.9716 -0.3425  1.2858
 6701TIP3   OH241737   5.754   0.018   2.098 -0.4583  0.2012  0.3083
 6701TIP3    H141738   5.842  -0.012   2.074 -0.9895 -0.4306 -0.9009
 6701TIP3    H241739   5.735  -0.028   2.180  0.0897 -0.1386  0.2511
 6702TIP3   OH241740   1.598   1.929   1.700 -0.2526  0.0113 -0.4505
 6702TIP3    H141741   1.661   1.860   1.680 -0.6458 -0.9376  1.3761
 6702TIP3    H241742   1.651   2.006   1.720  0.2369 -0.2261 -0.8196
 6703TIP3   OH241743   6.028   1.265   1.276 -0.0344  0.2318 -0.1574
 6703TIP3    H141744   6.029   1.313   1.359 -0.3385  0.8854 -0.5192
 6703TIP3    H241745   5.935   1.260   1.252 -0.1681 -2.0001  0.6818
 6704TIP3   OH241746   3.724   3.656   8.455 -0.1559  0.4983  0.3371
 6704TIP3    H141747   3.779   3.730   8.427  0.7644  0.0364  0.8758
 6704TIP3    H241748   3.669   3.692   8.524  0.0193  0.7773  0.3337
 6705TIP3   OH241749   5.782   1.751   7.648  0.2996  0.4205 -0.0077
 6705TIP3    H141750   5.871   1.769   7.677  0.2650 -0.0913  0.4365
 6705TIP3    H241751   5.762   1.821   7.585  1.3497 -0.0041 -0.8354
 6706TIP3   OH241752   1.221   5.237   7.617  0.3414  0.6446  0.2036
 6706TIP3    H141753   1.225   5.312   7.558 -2.2421 -0.3836 -1.4388
 6706TIP3    H241754   1.259   5.165   7.567  0.3366  0.2532  0.7460
 6707TIP3   OH241755   6.258   5.132   2.632  0.1880 -0.0040  0.2475
 6707TIP3    H141756   6.289   5.041   2.636 -0.4957 -0.3881 -1.8042
 6707TIP3    H241757   6.335   5.183   2.609  0.1746 -0.3458 -0.5639
 6708TIP3   OH241758   4.627   0.911   7.009  0.1344 -0.7748  0.1539
 6708TIP3    H141759   4.700   0.974   7.006 -1.6940  1.5628  1.0889
 6708TIP3    H241760   4.572   0.936   6.935 -0.9859 -0.7705  0.9772
 6709TIP3   OH241761   5.118   0.304   0.695  0.1768 -0.3368 -0.2267
 6709TIP3    H141762   5.110   0.388   0.742  4.2846  1.5209 -2.3206
 6709TIP3    H241763   5.197   0.264   0.732 -0.8840 -2.6440 -0.3146
 6710TIP3   OH241764   2.992   1.569   0.326  0.0150  0.3632 -0.7513
 6710TIP3    H141765   3.055   1.503   0.355  0.2956  0.7431 -0.4987
 6710TIP3    H241766   2.956   1.532   0.245 -0.1607 -0.3097 -0.3794
 6711TIP3   OH241767   0.860   4.400   1.717  0.0648  0.2583  0.2522
 6711TIP3    H141768   0.791   4.385   1.652  1.0781  0.0734 -0.8094
 6711TIP3    H241769   0.821   4.372   1.800 -1.1628  0.2405 -0.3134
 6712TIP3   OH241770   2.723   0.844   6.486  0.3160 -0.3531 -0.0253
 6712TIP3    H141771   2.717   0.926   6.436  0.1183 -1.3368 -1.6546
 6712TIP3    H241772   2.799   0.799   6.450  1.3763 -0.2356  1.9280
 6713TIP3   OH241773   1.980   0.980   1.560  0.3118  0.1586  0.4052
 6713TIP3    H141774   2.015   0.910   1.505 -0.8133 -1.0132  1.1426
 6713TIP3    H241775   2.045   0.991   1.630  1.3465  1.0966 -0.6494
 6714TIP3   OH241776   3.080   6.688   8.060  0.1257  0.2909  0.4932
 6714TIP3    H141777   3.122   6.756   8.112 -0.1368  0.8764 -0.0402
 6714TIP3    H241778   2.993   6.677   8.099  0.8385 -1.0994  1.7532
 6715TIP3   OH241779   2.340   4.285   1.864  0.3417 -0.4995  0.2813
 6715TIP3    H141780   2.415   4.291   1.805 -0.0329 -0.5476 -0.2045
 6715TIP3    H241781   2.377   4.298   1.952  0.9622 -0.8379  0.0739
 6716TIP3   OH241782   1.193   5.275   1.354  0.0018  0.4976  0.2175
 6716TIP3    H141783   1.227   5.229   1.277  0.7026 -1.6765  1.7323
 6716TIP3    H241784   1.173   5.363   1.322 -0.4383 -0.5088 -2.6084
 6717TIP3   OH241785   3.764   3.383   8.439 -0.2098 -0.0654  0.0860
 6717TIP3    H141786   3.758   3.478   8.450 -1.0795 -0.1506  0.4141
 6717TIP3    H241787   3.807   3.352   8.519 -0.4578 -0.0070  0.2421
 6718TIP3   OH241788   2.320   0.131   7.064  0.6293  0.1923  0.3943
 6718TIP3    H141789   2.233   0.142   7.104  0.3159 -0.4847 -0.0918
 6718TIP3    H241790   2.332   0.037   7.057  0.2279  0.2552 -2.0643
 6719TIP3   OH241791   1.373   0.459   8.392 -0.6388 -0.1586  0.0928
 6719TIP3    H141792   1.445   0.472   8.454 -0.2350 -1.9069  0.0368
 6719TIP3    H241793   1.315   0.397   8.436 -2.4760  1.6492  0.3845
 6720TIP3   OH241794   1.731   4.597   2.143 -0.0578  0.7411  0.5583
 6720TIP3    H141795   1.756   4.551   2.223 -0.1253 -2.1203 -0.9615
 6720TIP3    H241796   1.636   4.599   2.145 -0.0512  2.0119  1.1805
 6721TIP3   OH241797   4.402   2.759   6.966  0.8676 -0.3080 -0.3030
 6721TIP3    H141798   4.406   2.765   6.870 -0.3863 -1.0987 -0.4305
 6721TIP3    H241799   4.457   2.831   6.996  1.5131 -0.2124 -1.6144
 6722TIP3   OH241800   4.197   0.815   0.133 -0.4061  0.0926 -0.1532
 6722TIP3    H141801   4.264   0.747   0.135 -0.6771 -0.3208 -2.4865
 6722TIP3    H241802   4.117   0.769   0.159 -0.4663 -0.3630 -1.0908
 6723TIP3   OH241803   0.327   1.202   2.474  0.5863 -0.0782 -0.6214
 6723TIP3    H141804   0.313   1.265   2.545  1.6598 -1.2121  0.6640
 6723TIP3    H241805   0.260   1.224   2.409 -0.4638  0.9925  0.7423
 6724TIP3   OH241806   6.889   4.310   0.127  0.6926  0.6999 -0.1697
 6724TIP3    H141807   6.824   4.244   0.101 -1.2961  3.0879 -1.7322
 6724TIP3    H241808   6.877   4.319   0.222 -0.8665  0.6312 -0.3272
 6725TIP3   OH241809   3.590   0.694   0.747 -0.2556  0.5876 -0.1611
 6725TIP3    H141810   3.512   0.645   0.725 -2.5821  1.7978  4.1559
 6725TIP3    H241811   3.620   0.656   0.830  2.3415  1.7183 -0.4772
 6726TIP3   OH241812   2.121   3.163   3.088 -0.1972 -0.3215 -0.2461
 6726TIP3    H141813   2.102   3.218   3.012 -0.5428 -0.4865 -0.2810
 6726TIP3    H241814   2.161   3.084   3.051  0.3012 -0.0894 -0.1958
 6727TIP3   OH241815   0.934   3.645   7.681  0.3155  0.1087  0.8857
 6727TIP3    H141816   0.997   3.659   7.610  1.5802 -0.1071  1.9150
 6727TIP3    H241817   0.850   3.671   7.644  1.1720  1.5457 -0.1767
 6728TIP3   OH241818   2.939   2.859   0.158 -0.5281 -0.3530  0.0710
 6728TIP3    H141819   2.894   2.883   0.078 -0.6377  0.2666  0.3098
 6728TIP3    H241820   2.943   2.941   0.209 -0.0558 -0.6299  0.4950
 6729TIP3   OH241821   3.116   3.483   0.571 -0.0718  0.5007  0.1303
 6729TIP3    H141822   3.099   3.551   0.506 -0.0440 -1.1753 -1.7416
 6729TIP3    H241823   3.192   3.436   0.537  0.7463  0.3252  2.0666
 6730TIP3   OH241824   0.408   2.146   7.865  0.0155  0.2034 -0.2315
 6730TIP3    H141825   0.369   2.108   7.786  0.7316  0.0764 -0.5331
 6730TIP3    H241826   0.389   2.083   7.934 -0.2659  0.1199 -0.3818
 6731TIP3   OH241827   6.731   6.444   0.064  0.1273 -0.3220 -0.7036
 6731TIP3    H141828   6.714   6.359   0.024 -0.8496 -0.9130  0.8849
 6731TIP3    H241829   6.652   6.463   0.115  1.7076 -0.1917  1.8806
 6732TIP3   OH241830   4.899   5.533   0.786  0.3290  0.0027  0.0822
 6732TIP3    H141831   4.860   5.532   0.873 -2.1979  1.8963 -0.8753
 6732TIP3    H241832   4.975   5.476   0.792 -1.0211 -1.7050  2.9092
 6733TIP3   OH241833   2.741   0.153   0.961  0.5788  0.1324 -0.0322
 6733TIP3    H141834   2.650   0.182   0.951  0.3287 -0.3323  0.8146
 6733TIP3    H241835   2.742   0.105   1.044  1.0847 -1.7947 -1.0949
 6734TIP3   OH241836   2.062   3.594   0.977  0.4548  0.0886 -0.1066
 6734TIP3    H141837   1.972   3.596   0.944  0.0296  1.2284  1.0342
 6734TIP3    H241838   2.056   3.631   1.065  2.0963  0.5035 -0.1364
 6735TIP3   OH241839   0.688   5.033   7.247  0.0338  0.0308  0.2575
 6735TIP3    H141840   0.667   5.079   7.328 -1.3973  1.9064 -1.0745
 6735TIP3    H241841   0.771   5.071   7.219 -0.9581  1.6953 -0.6415
 6736TIP3   OH241842   3.964   1.939   1.893 -0.5845  0.1582  0.1239
 6736TIP3    H141843   3.886   1.918   1.944 -0.4507 -0.1411  0.2066
 6736TIP3    H241844   4.032   1.957   1.958 -0.5045  0.1190  0.0516
 6737TIP3   OH241845   6.606   1.236   7.543 -0.5077 -0.4986 -0.4761
 6737TIP3    H141846   6.688   1.188   7.531 -1.0803 -1.1156 -2.3311
 6737TIP3    H241847   6.548   1.174   7.587 -0.2862 -0.4233 -0.0812
 6738TIP3   OH241848   4.200   2.673   1.855 -0.4045 -0.0190 -0.3911
 6738TIP3    H141849   4.178   2.722   1.934  1.7883  2.2204 -1.0619
 6738TIP3    H241850   4.288   2.640   1.870 -0.9524 -1.8646 -0.9118
 6739TIP3   OH241851   6.586   3.769   7.468 -0.2047 -0.2032  0.6935
 6739TIP3    H141852   6.510   3.715   7.491 -0.7241  0.7293  1.2718
 6739TIP3    H241853   6.610   3.741   7.380  0.2241 -2.1148  1.3659
 6740TIP3   OH241854   6.526   0.730   7.395 -0.1886  0.1065  0.1415
 6740TIP3    H141855   6.533   0.760   7.486  1.4490 -0.0844  0.1121
 6740TIP3    H241856   6.596   0.777   7.349 -0.7414 -0.1020 -0.9439
 6741TIP3   OH241857   1.367   4.065   1.347 -0.0186  0.0247 -0.3160
 6741TIP3    H141858   1.296   4.001   1.347 -0.1958  0.2177  0.0778
 6741TIP3    H241859   1.353   4.117   1.427  1.0919 -0.5319  0.2699
 6742TIP3   OH241860   2.919   2.113   7.630  0.0439  0.1015  0.0711
 6742TIP3    H141861   2.894   2.203   7.612  2.8218  1.2503  1.3617
 6742TIP3    H241862   2.974   2.087   7.556 -0.6816 -0.5564 -0.2601
 6743TIP3   OH241863   6.403   1.922   8.227 -0.0436 -0.1820 -0.1609
 6743TIP3    H141864   6.335   1.908   8.293  0.2926  0.2759  0.2918
 6743TIP3    H241865   6.388   1.853   8.162 -1.9107  0.8536 -0.8995
 6744TIP3   OH241866   4.800   0.756   2.020 -0.0490 -0.0218 -0.1584
 6744TIP3    H141867   4.803   0.755   2.116 -1.5978  0.6121 -0.0668
 6744TIP3    H241868   4.719   0.803   1.999 -0.3156 -1.0822 -1.7647
 6745TIP3   OH241869   2.234   1.702   0.975 -0.1578  0.5934  0.3246
 6745TIP3    H141870   2.248   1.696   1.070  0.6615 -0.6586  0.1545
 6745TIP3    H241871   2.322   1.697   0.938 -0.3656  2.2382 -0.4927
 6746TIP3   OH241872   6.806   0.135   7.479 -0.2676  0.1441  0.1986
 6746TIP3    H141873   6.855   0.179   7.548  0.7131 -0.5062 -0.0594
 6746TIP3    H241874   6.721   0.115   7.518  0.3790 -0.4953  1.3256
 6747TIP3   OH241875   1.049   5.970   2.223 -0.1525  0.0184  0.8365
 6747TIP3    H141876   1.047   5.874   2.219 -1.6622  0.0196  0.7555
 6747TIP3    H241877   1.011   5.998   2.140 -1.5381  0.6209  1.6322
 6748TIP3   OH241878   2.629   2.487   6.804 -0.1875 -0.2868 -0.0300
 6748TIP3    H141879   2.636   2.438   6.723 -1.7215 -2.2921  0.9790
 6748TIP3    H241880   2.548   2.457   6.845  0.6153  0.4960  2.3458
 6749TIP3   OH241881   6.183   5.295   1.561  0.2230 -0.1181  0.1299
 6749TIP3    H141882   6.254   5.331   1.507  0.0799 -0.4341 -0.2684
 6749TIP3    H241883   6.193   5.200   1.553 -0.0366 -0.1627  0.3527
 6750TIP3   OH241884   0.482   4.150   1.708 -0.0884 -0.1258 -0.2545
 6750TIP3    H141885   0.496   4.062   1.744  0.9519  0.1048 -0.0587
 6750TIP3    H241886   0.556   4.201   1.740 -0.6338  0.8052 -0.4501
 6751TIP3   OH241887   2.920   2.025   0.489 -0.1297 -0.3786  0.6344
 6751TIP3    H141888   2.918   1.982   0.404 -0.4447  0.1315  0.3801
 6751TIP3    H241889   2.917   2.119   0.469  1.6988 -0.1796  1.1303
 6752TIP3   OH241890   5.505   6.455   7.812 -0.1847 -1.2233  0.6794
 6752TIP3    H141891   5.456   6.485   7.889  0.3169 -0.1203  0.5790
 6752TIP3    H241892   5.593   6.436   7.845  0.3645  0.3403  0.2033
 6753TIP3   OH241893   4.025   5.847   0.947 -0.3261 -0.2208  0.3211
 6753TIP3    H141894   4.016   5.902   1.024  1.1890 -0.3403  0.6254
 6753TIP3    H241895   3.964   5.884   0.883 -0.9445  0.4293  1.2708
 6754TIP3   OH241896   5.983   5.763   1.950  0.0118  0.1520  0.0696
 6754TIP3    H141897   5.904   5.730   1.993 -0.5025 -0.8586 -1.5467
 6754TIP3    H241898   5.953   5.797   1.866  1.4335 -2.0424 -1.4773
 6755TIP3   OH241899   2.048   2.621   2.648 -0.3076 -0.0965 -0.1500
 6755TIP3    H141900   1.960   2.616   2.686  0.1678  1.5632  1.3252
 6755TIP3    H241901   2.107   2.611   2.722  0.6856  1.5627 -0.6436
 6756TIP3   OH241902   5.504   6.440   7.155 -0.0165 -0.4623  0.5442
 6756TIP3    H141903   5.437   6.485   7.206 -0.1772  2.3083 -1.8807
 6756TIP3    H241904   5.587   6.471   7.193 -0.1190  2.2876 -1.2417
 6757TIP3   OH241905   1.986   3.103   0.278 -0.4780 -0.0465  0.4720
 6757TIP3    H141906   2.082   3.103   0.279 -0.4737  0.7063  0.4717
 6757TIP3    H241907   1.962   3.194   0.297 -1.1924 -0.2047  0.3401
 6758TIP3   OH241908   4.914   1.827   1.332 -0.5845 -0.2099  0.7132
 6758TIP3    H141909   4.904   1.873   1.416  0.1305  0.8811  0.2304
 6758TIP3    H241910   4.955   1.892   1.275 -2.6757 -0.3363 -1.0244
 6759TIP3   OH241911   2.712   1.092   6.335  0.1617 -0.4778  0.1931
 6759TIP3    H141912   2.773   1.139   6.279 -0.5181 -0.5932 -0.6774
 6759TIP3    H241913   2.627   1.131   6.315  0.1120  0.7483  2.5017
 6760TIP3   OH241914   4.320   4.633   8.477  0.1650  0.3422  0.4890
 6760TIP3    H141915   4.307   4.700   8.543  0.5575  1.7681 -0.8191
 6760TIP3    H241916   4.245   4.644   8.417  2.0464  2.1345 -1.7386
 6761TIP3   OH241917   4.116   5.569   0.313 -0.3378  0.9207  0.3842
 6761TIP3    H141918   4.043   5.626   0.338 -0.4479  0.3395  1.4247
 6761TIP3    H241919   4.076   5.503   0.257 -0.4889  0.9921  0.4064
 6762TIP3   OH241920   4.203   1.135   0.631  0.5317  0.6142 -0.0072
 6762TIP3    H141921   4.168   1.063   0.683  0.4735 -0.7975 -1.8622
 6762TIP3    H241922   4.125   1.182   0.599  0.4051 -0.4116 -1.2922
 6763TIP3   OH241923   2.676   0.953   7.834 -0.2342  0.5029 -0.4844
 6763TIP3    H141924   2.591   0.992   7.812 -0.4654  0.6683  0.6247
 6763TIP3    H241925   2.692   0.981   7.924 -0.4576 -2.0406  0.4099
 6764TIP3   OH241926   0.986   0.507   0.768 -0.7689 -0.0174  0.3380
 6764TIP3    H141927   0.895   0.531   0.785 -0.4822  1.7580 -0.3970
 6764TIP3    H241928   1.036   0.586   0.787  0.3905 -0.3336 -1.1530
 6765TIP3   OH241929   4.694   1.683   0.891 -0.2709  0.2174 -0.3413
 6765TIP3    H141930   4.701   1.681   0.796  3.3801 -0.6263 -0.2082
 6765TIP3    H241931   4.745   1.608   0.921 -3.7277 -1.3624  2.3408
 6766TIP3   OH241932   6.787   0.129   8.281 -0.0512  0.1257 -0.1806
 6766TIP3    H141933   6.804   0.071   8.207  0.2521 -0.3798  0.2776
 6766TIP3    H241934   6.694   0.115   8.302 -0.1130  0.1998 -0.4013
 6767TIP3   OH241935   5.679   4.455   0.108  0.3021 -0.4204  0.0654
 6767TIP3    H141936   5.719   4.389   0.166  2.7244 -0.5790 -1.6496
 6767TIP3    H241937   5.632   4.514   0.168  0.6139 -1.9617  1.9275
 6768TIP3   OH241938   5.382   1.866   0.560 -0.6741  0.2562 -0.1485
 6768TIP3    H141939   5.305   1.899   0.514 -0.5777 -0.0168 -0.5102
 6768TIP3    H241940   5.357   1.778   0.588 -0.6656  0.3508  0.1638
 6769TIP3   OH241941   2.525   4.152   8.633  0.2941 -0.0879 -0.9321
 6769TIP3    H141942   2.507   4.187   8.546 -0.0428  2.8038  0.1724
 6769TIP3    H241943   2.618   4.134   8.634  0.8911  2.5650 -1.1228
 6770TIP3   OH241944   1.189   0.982   7.284 -0.4542  0.6198  0.4475
 6770TIP3    H141945   1.185   0.941   7.371  1.2476  0.9405  0.7043
 6770TIP3    H241946   1.252   0.929   7.235  1.1991  2.4007  0.5313
 6771TIP3   OH241947   0.073   4.753   8.187  0.0546 -0.2928  0.8552
 6771TIP3    H141948   0.112   4.699   8.119  1.5465 -1.4449  2.5486
 6771TIP3    H241949  -0.020   4.729   8.187 -0.0836  0.0803 -1.0353
 6772TIP3   OH241950   6.133   1.246   6.549  0.7000 -0.0690 -0.1913
 6772TIP3    H141951   6.180   1.187   6.608  3.1065  0.9003 -0.9952
 6772TIP3    H241952   6.187   1.249   6.470 -0.3106  1.7599 -0.8919
 6773TIP3   OH241953   1.875   2.196   0.543 -0.3308  0.7132  0.1490
 6773TIP3    H141954   1.834   2.203   0.629 -0.1094  2.5481  0.1362
 6773TIP3    H241955   1.950   2.137   0.557 -1.3451 -0.4744  0.7702
 6774TIP3   OH241956   1.655   1.685   8.302 -0.1156  0.1524  0.0297
 6774TIP3    H141957   1.701   1.640   8.373 -0.4375 -0.6351 -0.2505
 6774TIP3    H241958   1.591   1.741   8.348 -0.4152 -0.4541  0.3639
 6775TIP3   OH241959   4.205   3.514   1.144 -0.1316 -0.1110 -0.0527
 6775TIP3    H141960   4.238   3.427   1.121 -0.7255  0.3386 -2.9989
 6775TIP3    H241961   4.281   3.561   1.177  0.4200 -1.4033  0.5804
 6776TIP3   OH241962   3.620   2.169   8.099  0.0651  0.0311 -0.3591
 6776TIP3    H141963   3.529   2.191   8.079  0.6646  1.1038 -2.0942
 6776TIP3    H241964   3.614   2.085   8.144 -1.8256  0.4253  0.2556
 6777TIP3   OH241965   4.770   4.322   7.363 -0.7591 -0.0767  0.6694
 6777TIP3    H141966   4.844   4.383   7.371 -0.9659  0.4327 -0.8933
 6777TIP3    H241967   4.810   4.240   7.334 -0.7981  0.2167 -0.2377
 6778TIP3   OH241968   3.921   4.363   0.168  0.4107 -0.0168 -0.5360
 6778TIP3    H141969   4.013   4.363   0.142  1.0086 -0.2113  1.4563
 6778TIP3    H241970   3.901   4.455   0.186  0.4020 -0.0641 -0.3108
 6779TIP3   OH241971   3.740   6.753   7.767  0.2496 -0.2366  0.0372
 6779TIP3    H141972   3.794   6.791   7.698  0.6123  0.3930  0.6543
 6779TIP3    H241973   3.780   6.783   7.848  1.6290 -3.3054  0.6640
 6780TIP3   OH241974   3.534   2.630   7.904  0.1617  0.5487  0.1641
 6780TIP3    H141975   3.527   2.666   7.992 -1.2380 -4.0676  2.2905
 6780TIP3    H241976   3.626   2.605   7.896  0.1809  0.4887  0.5629
 6781TIP3   OH241977   5.549   4.507   7.920  0.2942  0.7434 -0.5847
 6781TIP3    H141978   5.491   4.493   7.996  3.8647  0.6101  2.4078
 6781TIP3    H241979   5.549   4.424   7.874 -0.4686  0.1800  0.3850
 6782TIP3   OH241980   1.565   3.380   8.527  0.3423 -0.0090 -0.5246
 6782TIP3    H141981   1.548   3.379   8.621 -0.0505 -0.4002 -0.5944
 6782TIP3    H241982   1.640   3.322   8.515  0.1006 -0.3273 -0.5031
 6783TIP3   OH241983   3.174   3.376   1.274 -0.4188  0.1160 -0.5462
 6783TIP3    H141984   3.195   3.394   1.365 -1.5428 -0.1317 -0.2213
 6783TIP3    H241985   3.259   3.368   1.231  0.1814 -1.6636  0.8516
 6784TIP3   OH241986   3.035   4.392   8.592 -0.4072 -0.8453 -0.0967
 6784TIP3    H141987   3.028   4.474   8.542  0.4606 -0.9688 -0.4256
 6784TIP3    H241988   2.977   4.331   8.547  0.8853 -1.1572 -1.3740
 6785TIP3   OH241989   4.067   3.206   0.596  0.4350 -0.1896 -0.3703
 6785TIP3    H141990   4.089   3.288   0.552 -1.3905 -0.2784 -1.5520
 6785TIP3    H241991   4.010   3.160   0.534  0.0549 -1.5936  0.9629
 6786TIP3   OH241992   6.501   5.469   0.015 -0.1031 -0.7490 -0.1598
 6786TIP3    H141993   6.458   5.492  -0.068  0.8132  2.0499  0.0399
 6786TIP3    H241994   6.592   5.495   0.002 -0.4857  2.6417  2.6118
 6787TIP3   OH241995   3.178   1.323   0.380  0.5054  0.9417 -0.2631
 6787TIP3    H141996   3.118   1.248   0.377 -0.0947  1.4469 -1.0277
 6787TIP3    H241997   3.258   1.287   0.420  0.5091 -0.2988 -1.3129
 6788TIP3   OH241998   6.035   2.427   0.988 -0.1417  0.0418  0.0098
 6788TIP3    H141999   6.015   2.356   0.927  1.1517 -0.6920  0.4130
 6788TIP3    H242000   5.951   2.471   1.002 -1.1415 -1.8930  0.3669
 6789TIP3   OH242001   0.458   4.863   7.093 -0.0658 -0.0857  0.2079
 6789TIP3    H142002   0.428   4.799   7.029 -0.6344 -0.1098  0.4947
 6789TIP3    H242003   0.491   4.810   7.166  0.9678 -0.0664 -0.2189
 6790TIP3   OH242004   4.930   0.543   0.216 -0.1172 -0.2711  0.3484
 6790TIP3    H142005   4.878   0.583   0.286 -2.5051 -0.9058 -0.9237
 6790TIP3    H242006   4.985   0.479   0.260 -0.2579  0.5726  1.8189
 6791TIP3   OH242007   5.050   2.354   2.945  0.0383 -0.0275  0.2863
 6791TIP3    H142008   4.978   2.410   2.973  1.4594  0.8172  2.5212
 6791TIP3    H242009   5.068   2.299   3.020  3.3437  1.5815  0.8529
 6792TIP3   OH242010   2.272   5.414   0.644  0.2904 -0.3021 -0.0552
 6792TIP3    H142011   2.330   5.442   0.715  1.9819 -0.5793 -1.2631
 6792TIP3    H242012   2.187   5.452   0.666  1.3042  1.5341  0.9353
 6793TIP3   OH242013   3.420   5.445   6.885  0.0132 -0.2419 -0.4545
 6793TIP3    H142014   3.435   5.355   6.916  0.1471 -0.5438 -1.3709
 6793TIP3    H242015   3.499   5.466   6.836 -0.4792 -0.0199 -1.1600
 6794TIP3   OH242016   4.841   4.606   8.261 -0.3715 -0.3808 -1.0364
 6794TIP3    H142017   4.777   4.536   8.274  0.6461 -1.0510  0.9607
 6794TIP3    H242018   4.913   4.583   8.320 -0.3456  2.7781  0.3938
 6795TIP3   OH242019   1.650   5.566   7.601  0.4940 -0.0954  0.8463
 6795TIP3    H142020   1.588   5.610   7.543  0.9096 -0.4426  0.1362
 6795TIP3    H242021   1.598   5.500   7.647  0.7109 -1.8951 -1.3304
 6796TIP3   OH242022   0.499   3.711   2.062  0.1999  0.4497  0.2630
 6796TIP3    H142023   0.560   3.676   2.127  1.0385 -2.3535 -1.8705
 6796TIP3    H242024   0.413   3.691   2.098  0.6407 -2.9855 -0.2948
 6797TIP3   OH242025   1.387   3.884   1.877  0.0299 -0.4645 -0.1262
 6797TIP3    H142026   1.382   3.925   1.963  1.2823  1.3041 -0.8459
 6797TIP3    H242027   1.297   3.861   1.856 -0.7658  1.9621  0.3346
 6798TIP3   OH242028   6.738   4.225   2.681  0.6208  0.4833 -0.2710
 6798TIP3    H142029   6.778   4.215   2.768  0.4472 -1.2291 -0.3578
 6798TIP3    H242030   6.753   4.317   2.659  1.1204  0.8297  1.3463
 6799TIP3   OH242031   2.692   0.697   1.626 -0.2358  0.1213 -0.1120
 6799TIP3    H142032   2.761   0.757   1.654 -0.7444 -0.1538  1.8679
 6799TIP3    H242033   2.612   0.736   1.660 -0.7562 -0.8054 -0.2669
 6800TIP3   OH242034   5.323   3.221   7.170 -0.5367  0.4295  0.3074
 6800TIP3    H142035   5.262   3.257   7.106 -0.3588 -0.9543 -0.6818
 6800TIP3    H242036   5.409   3.237   7.133 -0.3988  0.3070  0.5721
 6801TIP3   OH242037   2.482   0.051   1.234 -0.5241 -0.1719 -0.0319
 6801TIP3    H142038   2.387   0.042   1.233 -0.6570  0.1522  2.4331
 6801TIP3    H242039   2.515  -0.028   1.192 -1.8711 -0.2113 -1.0557
 6802TIP3   OH242040   3.654   5.705   0.939 -0.2411 -0.3690  0.1772
 6802TIP3    H142041   3.699   5.787   0.962 -0.4949 -0.8256  2.5686
 6802TIP3    H242042   3.562   5.730   0.929 -0.2230 -0.2590  0.2810
 6803TIP3   OH242043   2.407   4.067   7.639 -0.2583 -0.3461 -1.1741
 6803TIP3    H142044   2.361   4.015   7.706 -0.1729  1.0667  0.0410
 6803TIP3    H242045   2.348   4.068   7.564 -1.4723  0.0293 -0.2432
 6804TIP3   OH242046   4.235   5.904   7.233 -0.3263 -0.1125  0.6848
 6804TIP3    H142047   4.253   5.996   7.254 -1.0871 -0.1554  1.6027
 6804TIP3    H242048   4.308   5.878   7.177 -0.3268  1.1715  0.0427
 6805TIP3   OH242049   5.330   2.480   1.099  0.0865 -0.0085  0.2264
 6805TIP3    H142050   5.256   2.516   1.148  0.3250 -0.6586  1.0776
 6805TIP3    H242051   5.367   2.556   1.053 -1.4443  0.2336 -0.7000
 6806TIP3   OH242052   6.665   5.214   0.874 -0.4423  0.1994 -0.3376
 6806TIP3    H142053   6.572   5.222   0.852 -0.1694  1.3893 -1.1541
 6806TIP3    H242054   6.693   5.134   0.831 -0.7304  0.6966 -1.4953
 6807TIP3   OH242055   4.872   6.660   8.200  0.0496 -0.1956  0.3280
 6807TIP3    H142056   4.934   6.677   8.271  0.9814  1.5925 -0.8378
 6807TIP3    H242057   4.817   6.589   8.233  1.3369 -0.3769  2.2623
 6808TIP3   OH242058   4.903   2.313   1.438 -0.7744 -0.2061  0.1679
 6808TIP3    H142059   4.901   2.349   1.349 -1.9637 -2.0456 -0.6095
 6808TIP3    H242060   4.995   2.291   1.453 -0.1329  2.2998  0.3874
 6809TIP3   OH242061   1.975   3.233   8.207 -0.1993 -0.3973 -0.1138
 6809TIP3    H142062   1.905   3.276   8.158 -1.0966 -1.1624  0.4560
 6809TIP3    H242063   1.968   3.140   8.183  0.7264 -0.4620 -0.1693
 6810TIP3   OH242064   1.571   4.711   2.418  0.6869 -0.0251 -0.5865
 6810TIP3    H142065   1.649   4.757   2.385 -0.3568  1.2900 -1.2919
 6810TIP3    H242066   1.604   4.626   2.446  2.4389  0.6032 -0.5982
 6811TIP3   OH242067   4.198   2.385   7.493 -0.2675 -0.3792  0.1596
 6811TIP3    H142068   4.170   2.466   7.451  2.0449 -0.1100 -1.0359
 6811TIP3    H242069   4.129   2.322   7.472  0.0165  0.1504 -2.8087
 6812TIP3   OH242070   6.288   1.332   7.614 -0.0593 -0.0813  0.1249
 6812TIP3    H142071   6.278   1.290   7.529 -2.2069  0.6967 -0.0676
 6812TIP3    H242072   6.253   1.268   7.677 -1.3357  0.5282  0.0610
 6813TIP3   OH242073   6.430   4.936   1.603 -0.2977 -0.2591  0.3359
 6813TIP3    H142074   6.505   4.974   1.558 -0.7947  0.7760  0.3476
 6813TIP3    H242075   6.455   4.846   1.620  1.2633  0.2883  1.0620
 6814TIP3   OH242076   6.476   5.648   1.191  0.1631 -0.0692 -0.1745
 6814TIP3    H142077   6.402   5.601   1.153  0.3535 -0.6585  0.1638
 6814TIP3    H242078   6.552   5.615   1.143  0.1178  1.2949 -1.2387
 6815TIP3   OH242079   2.531   6.137   7.224 -0.1489 -0.4913  0.3312
 6815TIP3    H142080   2.457   6.155   7.166 -1.2619 -0.0725  1.7983
 6815TIP3    H242081   2.554   6.223   7.260  0.4253 -0.7576  0.6131
 6816TIP3   OH242082   3.623   5.847   6.543 -0.6482 -0.2410 -0.1031
 6816TIP3    H142083   3.623   5.939   6.569 -2.9802 -0.1225 -0.3223
 6816TIP3    H242084   3.713   5.818   6.557  0.1806  2.0997 -0.1950
 6817TIP3   OH242085   1.690   6.727   7.556  0.0245 -0.1750 -0.0655
 6817TIP3    H142086   1.710   6.713   7.464  0.4308  1.9297 -0.3302
 6817TIP3    H242087   1.617   6.788   7.556 -0.7232 -1.0263  1.0217
 6818TIP3   OH242088   1.444   2.081   0.550 -0.2363  0.0863  0.2905
 6818TIP3    H142089   1.500   2.146   0.592  0.9177  0.1551 -1.2427
 6818TIP3    H242090   1.372   2.132   0.513 -0.4754  0.2055  0.9088
 6819TIP3   OH242091   1.349   2.579   2.121 -0.1185 -0.0621 -0.0711
 6819TIP3    H142092   1.301   2.550   2.199 -0.4025  0.1979 -0.1494
 6819TIP3    H242093   1.324   2.516   2.053  0.4192 -0.5100  0.1424
 6820TIP3   OH242094   6.781   0.293   6.642  0.4910 -0.3612 -0.1958
 6820TIP3    H142095   6.793   0.363   6.706  1.4880  0.4788 -1.2598
 6820TIP3    H242096   6.861   0.242   6.645 -0.6543 -2.1984  1.3625
 6821TIP3   OH242097   0.010   5.915   7.408 -0.3569  0.2756  0.1197
 6821TIP3    H142098  -0.048   5.845   7.437  2.1525 -1.8749  0.2349
 6821TIP3    H242099  -0.014   5.929   7.316 -0.9875 -0.6136  0.1394
 6822TIP3   OH242100   5.069   3.504   3.016 -0.4290 -0.1999 -0.1094
 6822TIP3    H142101   5.044   3.596   3.010  0.0948 -0.1041 -1.0339
 6822TIP3    H242102   4.990   3.456   2.990 -0.5360  0.0074 -0.1695
 6823TIP3   OH242103   1.476   5.156   2.024 -0.3884  1.0101 -0.5061
 6823TIP3    H142104   1.562   5.115   2.028 -0.5875  0.1384 -3.0094
 6823TIP3    H242105   1.477   5.222   2.093  1.2564 -0.8097  1.3237
 6824TIP3   OH242106   1.341   0.681   1.222  0.0179  0.1389  0.0066
 6824TIP3    H142107   1.365   0.774   1.217  0.1674  0.0891 -0.2335
 6824TIP3    H242108   1.272   0.677   1.289 -1.4264  0.7168 -1.3926
 6825TIP3   OH242109   5.509   6.076   1.006  0.1307 -0.3282 -0.0639
 6825TIP3    H142110   5.477   6.006   1.063  0.2058 -0.7680 -0.5516
 6825TIP3    H242111   5.586   6.039   0.963 -0.8496 -0.6136 -1.6681
 6826TIP3   OH242112   0.585   1.274   8.143  0.2265 -0.1562 -0.1857
 6826TIP3    H142113   0.626   1.188   8.148  0.4703 -0.0743 -0.6737
 6826TIP3    H242114   0.636   1.321   8.078  0.2313  0.4386  0.2418
 6827TIP3   OH242115   6.110   6.754   0.101 -0.1906 -0.3422  0.1389
 6827TIP3    H142116   6.185   6.697   0.117 -0.1082  0.1400  1.6707
 6827TIP3    H242117   6.149   6.839   0.079 -0.2195  0.1696  1.8838
 6828TIP3   OH242118   3.206   0.718   8.422  0.4056  0.1502 -0.2342
 6828TIP3    H142119   3.255   0.636   8.430 -1.0462 -0.6220  1.2097
 6828TIP3    H242120   3.260   0.782   8.468 -0.0992 -0.8005  1.8029
 6829TIP3   OH242121   4.227   6.235   1.005  0.1718  0.4578  0.0567
 6829TIP3    H142122   4.279   6.309   0.972  0.4932 -0.2470 -1.0695
 6829TIP3    H242123   4.146   6.239   0.953  1.2888 -1.5568 -2.0276
 6830TIP3   OH242124   1.726   1.465   2.764  0.3555  0.0895  0.3043
 6830TIP3    H142125   1.730   1.514   2.845 -0.3152 -0.2129  0.5275
 6830TIP3    H242126   1.804   1.409   2.766  0.3834  0.1416  0.6987
 6831TIP3   OH242127   4.429   4.417   7.487  0.0659  0.2478  0.1120
 6831TIP3    H142128   4.367   4.417   7.559 -0.5057  0.3532 -0.3770
 6831TIP3    H242129   4.430   4.507   7.455 -0.2587  0.0484 -0.4923
 6832TIP3   OH242130   2.357   3.279   7.332  0.2542  0.5451 -0.1768
 6832TIP3    H142131   2.296   3.335   7.285 -0.3460  1.7458  1.9225
 6832TIP3    H242132   2.442   3.320   7.319 -0.1480  1.8611  1.1446
 6833TIP3   OH242133   3.339   2.473   0.005  0.1473 -0.8603  0.1067
 6833TIP3    H142134   3.329   2.554   0.055  2.6862  0.2011 -0.8753
 6833TIP3    H242135   3.366   2.408   0.069  1.6757  0.0516  0.4596
 6834TIP3   OH242136   6.484   3.861   2.036 -0.7491  0.1847 -0.2032
 6834TIP3    H142137   6.545   3.877   1.964 -0.6000  1.5783  0.1923
 6834TIP3    H242138   6.536   3.873   2.115 -0.9052 -1.3590  0.1597
 6835TIP3   OH242139   1.307   1.913   2.292 -0.1060  0.3507 -0.2946
 6835TIP3    H142140   1.307   1.864   2.210  2.0555 -1.6998  0.7942
 6835TIP3    H242141   1.266   1.855   2.356  0.7889  0.7041  0.6411
 6836TIP3   OH242142   2.160   2.606   8.584  0.5166 -0.2866 -0.0438
 6836TIP3    H142143   2.173   2.697   8.611  2.8047 -0.2850 -0.9657
 6836TIP3    H242144   2.101   2.612   8.508  2.0943  0.6473 -1.2529
 6837TIP3   OH242145   1.958   2.904   0.061 -0.1867 -0.1511  0.1178
 6837TIP3    H142146   1.947   2.901   0.156 -1.6882  0.4525 -0.0026
 6837TIP3    H242147   1.869   2.899   0.026  0.1046  1.9403 -1.1758
 6838TIP3   OH242148   6.731   1.445   1.330 -0.1789  0.2384 -0.2900
 6838TIP3    H142149   6.760   1.516   1.387  0.1574  0.6982 -1.0111
 6838TIP3    H242150   6.638   1.464   1.314 -0.4088 -0.1930  0.5296
 6839TIP3   OH242151   1.704   3.449   0.689 -0.4538 -0.4732 -0.8434
 6839TIP3    H142152   1.655   3.502   0.626 -0.0248  1.1630  0.1279
 6839TIP3    H242153   1.674   3.480   0.774  2.4152  0.8658 -0.1850
 6840TIP3   OH242154   6.354   5.697   8.086  0.3436 -0.6263  0.0960
 6840TIP3    H142155   6.282   5.703   8.023  1.6215 -0.2541 -1.4085
 6840TIP3    H242156   6.356   5.605   8.111  2.0013 -1.6388 -3.2340
 6841TIP3   OH242157   6.705   4.658   8.132 -0.5231 -0.0559 -0.4608
 6841TIP3    H142158   6.620   4.691   8.103 -2.2001 -0.6801  3.1453
 6841TIP3    H242159   6.684   4.600   8.206  3.1017  0.5413  1.2468
 6842TIP3   OH242160   4.481   0.482   0.504 -0.3632 -0.2745 -0.4027
 6842TIP3    H142161   4.523   0.400   0.477  1.3650  0.7323 -0.9780
 6842TIP3    H242162   4.465   0.471   0.597  1.6719 -0.5800 -0.0341
 6843TIP3   OH242163   5.092   4.056   1.070  0.3782  0.1977 -0.5775
 6843TIP3    H142164   5.047   4.137   1.092  1.6044  0.6441  0.4419
 6843TIP3    H242165   5.069   3.996   1.141  0.6409  0.1291 -0.5500
 6844TIP3   OH242166   3.543   2.499   1.453 -0.2087 -0.1046 -0.9001
 6844TIP3    H142167   3.597   2.526   1.379  0.6603  2.4329  0.5349
 6844TIP3    H242168   3.464   2.552   1.447  0.4978  1.2308  0.7028
 6845TIP3   OH242169   5.577   2.847   0.675  0.3863 -0.2062  0.5575
 6845TIP3    H142170   5.565   2.854   0.770 -1.2159 -0.6894  0.4180
 6845TIP3    H242171   5.638   2.774   0.664  1.1303  0.2958  1.2284
 6846TIP3   OH242172   1.670   5.160   8.583 -0.3912  0.0209  0.1263
 6846TIP3    H142173   1.679   5.255   8.574  1.8662  0.0067  1.4523
 6846TIP3    H242174   1.759   5.129   8.604 -1.4745 -2.1016  2.0584
 6847TIP3   OH242175   6.888   6.262   1.289  0.3325 -0.5063 -0.3156
 6847TIP3    H142176   6.818   6.326   1.283 -0.3152 -0.7546  2.9112
 6847TIP3    H242177   6.968   6.311   1.269 -0.2478  1.1158  1.1647
 6848TIP3   OH242178   5.962   1.457   8.404 -0.3717 -0.0599 -0.2121
 6848TIP3    H142179   5.969   1.373   8.359  4.1636  0.5870 -1.1810
 6848TIP3    H242180   5.944   1.520   8.333  0.9685  0.2906 -0.2562
 6849TIP3   OH242181   1.790   2.843   8.282 -0.6850 -0.0883  0.2185
 6849TIP3    H142182   1.864   2.893   8.246  0.0976 -0.4336  1.3070
 6849TIP3    H242183   1.721   2.853   8.216  0.3590  0.1463 -0.8932
 6850TIP3   OH242184   2.999   2.359   0.003 -0.4945 -0.0266 -0.2337
 6850TIP3    H142185   3.055   2.308  -0.055 -0.8358 -0.9989  0.2817
 6850TIP3    H242186   3.019   2.450  -0.019  0.0177 -0.3735 -1.2571
 6851TIP3   OH242187   1.787   4.937   0.356 -0.2106  0.3145 -0.2263
 6851TIP3    H142188   1.717   4.959   0.295 -2.0294 -0.4159  1.4971
 6851TIP3    H242189   1.742   4.918   0.438  2.1270  1.2291  1.3553
 6852TIP3   OH242190   4.288   1.145   2.157  0.0222  0.2485  0.0856
 6852TIP3    H142191   4.222   1.170   2.222 -1.0482 -0.4679 -0.6793
 6852TIP3    H242192   4.349   1.219   2.155 -0.3232  0.5973  1.3690
 6853TIP3   OH242193   5.281   0.468   0.345  0.1591 -0.4656 -0.0856
 6853TIP3    H142194   5.261   0.559   0.367 -1.0588 -1.1449  1.9040
 6853TIP3    H242195   5.302   0.470   0.252  1.8246  2.0859  0.2354
 6854TIP3   OH242196   3.890   4.892   1.918  0.0724 -0.6281  0.1230
 6854TIP3    H142197   3.921   4.966   1.866 -1.0515 -0.3498 -0.1965
 6854TIP3    H242198   3.939   4.817   1.887  1.5868  0.0508  0.7854
 6855TIP3   OH242199   2.594   0.598   7.793  0.2497 -0.4084  0.2779
 6855TIP3    H142200   2.673   0.633   7.834  0.7635 -0.9505 -0.2303
 6855TIP3    H242201   2.557   0.540   7.859  1.2377 -1.5179 -0.1043
 6856TIP3   OH242202   2.890   2.646   0.735  0.2081  0.4324  0.5031
 6856TIP3    H142203   2.891   2.562   0.689  1.1384  0.8574 -0.2743
 6856TIP3    H242204   2.810   2.643   0.787 -1.0382  0.0680 -1.3533
 6857TIP3   OH242205   5.145   1.709   7.875 -0.0324  0.3902 -0.1923
 6857TIP3    H142206   5.190   1.666   7.947 -0.3019  1.7702  0.8335
 6857TIP3    H242207   5.160   1.803   7.889 -0.4020  0.7061 -1.7183
 6858TIP3   OH242208   1.435   4.593   0.226 -0.3570  0.3853  0.0362
 6858TIP3    H142209   1.384   4.672   0.242  0.0571  0.4473  1.1219
 6858TIP3    H242210   1.524   4.625   0.211 -0.5979  0.2781 -1.8391
 6859TIP3   OH242211   6.645   3.609   1.782  0.3598  0.2637  0.1128
 6859TIP3    H142212   6.580   3.572   1.843 -0.3486 -0.3288 -0.9727
 6859TIP3    H242213   6.648   3.702   1.804  0.6133 -0.0412  1.4881
 6860TIP3   OH242214   0.270   2.769   1.980  0.3202 -0.0772 -0.2879
 6860TIP3    H142215   0.176   2.775   1.965  0.4868  0.5656 -1.1614
 6860TIP3    H242216   0.281   2.784   2.074 -0.2297  2.9432 -0.5894
 6861TIP3   OH242217   6.158   3.893   7.533 -0.1175  0.9585 -0.5035
 6861TIP3    H142218   6.133   3.806   7.503  1.0186  1.2187 -2.3964
 6861TIP3    H242219   6.230   3.877   7.594 -0.9653  0.5167  0.4021
 6862TIP3   OH242220   5.584   2.898   1.827 -0.4032  0.7440 -1.4530
 6862TIP3    H142221   5.541   2.832   1.773  0.8562 -0.6173 -0.8663
 6862TIP3    H242222   5.563   2.981   1.784 -1.7471 -0.0465 -2.4138
 6863TIP3   OH242223   6.843   4.062   1.896  0.4887 -0.1778  0.0323
 6863TIP3    H142224   6.926   4.107   1.908  0.5541 -0.1591 -0.4724
 6863TIP3    H242225   6.782   4.108   1.955  0.8731 -0.3094  0.5322
 6864TIP3   OH242226   2.422   0.788   7.720 -0.1145 -0.0560  1.0246
 6864TIP3    H142227   2.500   0.741   7.749 -0.4464 -0.2943  1.5383
 6864TIP3    H242228   2.349   0.745   7.764 -1.1065 -2.7612 -2.7340
 6865TIP3   OH242229   4.745   1.031   2.962 -0.7792  0.4874 -0.6874
 6865TIP3    H142230   4.815   0.968   2.946 -0.4723  0.7716 -0.5079
 6865TIP3    H242231   4.787   1.098   3.017 -0.9203  1.1673 -1.3938
 6866TIP3   OH242232   2.882   3.142   2.310 -0.0254  0.2351 -1.0825
 6866TIP3    H142233   2.915   3.210   2.368 -0.6985 -0.3958  0.0714
 6866TIP3    H242234   2.958   3.085   2.295 -0.1682 -0.3651  0.3208
 6867TIP3   OH242235   1.235   4.786   0.510  0.2883 -0.1152 -0.4899
 6867TIP3    H142236   1.317   4.796   0.559 -0.3183 -0.9319  0.7555
 6867TIP3    H242237   1.208   4.696   0.527 -0.5035 -0.0818 -1.4855
 6868TIP3   OH242238   2.606   0.071   0.318 -0.4572 -0.0100 -0.1285
 6868TIP3    H142239   2.649   0.003   0.267 -0.3142 -0.7047  0.8671
 6868TIP3    H242240   2.662   0.148   0.309  0.4187 -0.5817  0.2620
 6869TIP3   OH242241   1.658   1.315   7.853 -0.1434  0.2507 -0.1723
 6869TIP3    H142242   1.725   1.383   7.862  0.3853 -0.4450  1.3492
 6869TIP3    H242243   1.703   1.234   7.874 -1.5401 -0.1858  1.2620
 6870TIP3   OH242244   4.850   3.542   7.674 -0.2037  0.1655 -0.3503
 6870TIP3    H142245   4.851   3.637   7.681  1.4538  0.1455  0.1572
 6870TIP3    H242246   4.807   3.512   7.754  0.5464  0.4684  0.1748
 6871TIP3   OH242247   3.172   0.706   1.416 -0.2046 -0.1338  0.3093
 6871TIP3    H142248   3.111   0.777   1.434  0.0531  0.3879 -0.7879
 6871TIP3    H242249   3.235   0.743   1.354  0.4411 -1.0598  0.3873
 6872TIP3   OH242250   6.530   5.975   8.432 -0.6793 -0.8711  0.3739
 6872TIP3    H142251   6.576   6.052   8.400  0.3733 -1.9477 -0.8396
 6872TIP3    H242252   6.440   5.985   8.401 -0.7678  0.2329  0.9356
 6873TIP3   OH242253   3.752   3.023   6.891  0.0525 -0.1924  0.2969
 6873TIP3    H142254   3.679   3.032   6.953 -1.0719  0.3982 -1.0708
 6873TIP3    H242255   3.781   2.932   6.901 -0.6709 -0.3508  1.0607
 6874TIP3   OH242256   1.427   3.693   8.462 -0.3897  0.5369  0.5140
 6874TIP3    H142257   1.475   3.720   8.540  0.2802 -0.5159  0.4966
 6874TIP3    H242258   1.420   3.772   8.409  1.0703  0.7937  0.6620
 6875TIP3   OH242259   3.068   0.926   8.262 -0.2195  0.0394 -0.4010
 6875TIP3    H142260   3.095   0.849   8.312 -1.6188 -0.3119 -0.1697
 6875TIP3    H242261   3.064   0.895   8.171  2.0142  0.6002 -0.7701
 6876TIP3   OH242262   1.573   5.388   8.341 -0.3218 -0.0088 -0.0773
 6876TIP3    H142263   1.519   5.466   8.356 -0.9996 -0.1775 -1.5105
 6876TIP3    H242264   1.662   5.423   8.330 -0.6735  0.6214 -1.0759
 6877TIP3   OH242265   0.767   6.543   0.668 -0.2298  0.0214  0.2318
 6877TIP3    H142266   0.705   6.539   0.595  0.3765  1.0095 -0.3594
 6877TIP3    H242267   0.853   6.550   0.626  0.3382 -1.7006  1.0356
 6878TIP3   OH242268   5.082   0.334   2.100  0.4050 -0.6206  0.0765
 6878TIP3    H142269   5.135   0.413   2.088 -1.9365  0.9784 -0.3798
 6878TIP3    H242270   5.101   0.306   2.189  2.0366 -0.1650 -0.0945
 6879TIP3   OH242271   3.895   2.698   2.054 -0.1155 -0.4048 -0.4433
 6879TIP3    H142272   3.886   2.787   2.020 -0.8748 -0.3488 -0.1309
 6879TIP3    H242273   3.910   2.644   1.976  1.9497  0.1742 -0.4910
 6880TIP3   OH242274   2.460   2.355   8.653 -0.1845  0.6865  0.4830
 6880TIP3    H142275   2.545   2.324   8.622 -1.0456 -2.0249  0.5300
 6880TIP3    H242276   2.435   2.425   8.592  0.9187 -0.2789 -1.1359
 6881TIP3   OH242277   2.777   6.022   0.565  0.5818 -0.1520  0.0349
 6881TIP3    H142278   2.720   6.099   0.572  0.9657  0.1298  0.1391
 6881TIP3    H242279   2.856   6.055   0.521  1.7039  0.0647  2.1063
 6882TIP3   OH242280   0.282   5.524   1.242 -0.0022 -0.1293  0.4010
 6882TIP3    H142281   0.294   5.609   1.200 -1.5547 -0.0953 -0.0172
 6882TIP3    H242282   0.371   5.491   1.254  0.5693  0.8793 -0.8110
 6883TIP3   OH242283   3.594   1.834   7.948  0.0858 -0.5425  0.0464
 6883TIP3    H142284   3.658   1.885   7.997 -0.0717 -1.2246  0.9885
 6883TIP3    H242285   3.645   1.769   7.900  0.4543  1.4103 -2.4401
 6884TIP3   OH242286   3.439   5.884   8.619 -0.2575  0.1622  0.0312
 6884TIP3    H142287   3.511   5.854   8.674  1.5435 -0.8506 -2.6961
 6884TIP3    H242288   3.451   5.979   8.611  0.3559  0.0946  0.1655
 6885TIP3   OH242289   3.695   0.668   6.960  0.3314  0.4335 -0.5837
 6885TIP3    H142290   3.778   0.624   6.942  0.3860  0.3500 -0.1437
 6885TIP3    H242291   3.635   0.598   6.985  0.6103  0.6554  0.8221
 6886TIP3   OH242292   3.416   1.355   2.214  0.4169  0.1047 -0.0048
 6886TIP3    H142293   3.499   1.385   2.252  1.3131 -1.3431 -0.7228
 6886TIP3    H242294   3.442   1.308   2.135 -1.0969 -0.4808 -0.1840
 6887TIP3   OH242295   4.719   0.933   1.256 -0.2217  0.2567 -0.0508
 6887TIP3    H142296   4.758   1.007   1.303 -0.8770 -0.0252  0.9723
 6887TIP3    H242297   4.792   0.893   1.209  0.4233  0.6515  0.5966
 6888TIP3   OH242298   4.540   1.451   0.559  1.1145  0.2060  0.0835
 6888TIP3    H142299   4.478   1.410   0.619  0.0798  1.7758  0.1350
 6888TIP3    H242300   4.541   1.393   0.483  0.5964 -0.5287  0.6197
 6889TIP3   OH242301   1.100   4.564   1.942  0.5302 -0.1894 -0.1451
 6889TIP3    H142302   1.071   4.473   1.928 -0.3409  0.2458 -1.3849
 6889TIP3    H242303   1.035   4.617   1.896  0.6960  1.1189  1.0631
 6890TIP3   OH242304   1.892   5.755   7.595  0.0373  0.4539  0.3592
 6890TIP3    H142305   1.852   5.813   7.530 -1.6785 -0.3819  0.6104
 6890TIP3    H242306   1.838   5.676   7.592  2.5512 -1.3460 -0.2963
 6891TIP3   OH242307   1.471   4.747   1.424  0.6032  0.1341  0.3315
 6891TIP3    H142308   1.408   4.817   1.439  1.9551  1.2957  0.7051
 6891TIP3    H242309   1.421   4.680   1.376 -1.1500  0.6148  1.4058
 6892TIP3   OH242310   1.256   6.797   8.551 -0.0573 -0.5937 -0.1440
 6892TIP3    H142311   1.337   6.756   8.523  0.2405 -0.0097 -0.1568
 6892TIP3    H242312   1.229   6.852   8.477 -0.2876 -0.5324 -0.0182
 6893TIP3   OH242313   4.733   5.265   1.869  0.9727 -0.4502 -0.1735
 6893TIP3    H142314   4.725   5.314   1.787  0.7877  0.6628  0.4834
 6893TIP3    H242315   4.806   5.205   1.854  1.7024  0.5466 -0.7596
 6894TIP3   OH242316   2.727   0.849   8.252  0.1913 -0.2386  0.0889
 6894TIP3    H142317   2.748   0.853   8.345 -0.0148 -1.2415  0.1940
 6894TIP3    H242318   2.659   0.782   8.246  1.3548 -1.4053 -0.9568
 6895TIP3   OH242319   4.296   5.786   1.913  0.4484 -0.1104 -0.3366
 6895TIP3    H142320   4.222   5.847   1.910 -0.4022 -1.0371  0.9516
 6895TIP3    H242321   4.340   5.807   1.995  0.5742 -0.7455 -0.2444
 6896TIP3   OH242322   4.962   2.215   3.249  0.6311 -0.2905 -0.1589
 6896TIP3    H142323   5.053   2.219   3.222  1.5173  0.0157  2.5627
 6896TIP3    H242324   4.960   2.262   3.333 -1.9898 -0.4901 -0.0289
 6897TIP3   OH242325   1.289   3.029   0.167 -0.3300  0.1954  0.3956
 6897TIP3    H142326   1.218   3.088   0.191  0.0800  0.7572  0.2526
 6897TIP3    H242327   1.248   2.964   0.110 -1.0329 -0.3826  1.5271
 6898TIP3   OH242328   3.118   0.066   7.806  0.4882 -0.2698 -0.0205
 6898TIP3    H142329   3.130   0.055   7.901  1.8951 -3.7237 -0.4607
 6898TIP3    H242330   3.171   0.143   7.784  0.4541  0.3553  1.8990
 6899TIP3   OH242331   4.735   4.492   2.557  0.4470 -0.0505  0.7093
 6899TIP3    H142332   4.782   4.453   2.631 -0.8164 -0.3565  1.3840
 6899TIP3    H242333   4.768   4.446   2.480  1.1260 -0.3667  1.1804
 6900TIP3   OH242334   1.845   4.662   2.942 -0.3431 -0.2578  0.0793
 6900TIP3    H142335   1.767   4.612   2.966 -1.5063  1.0361 -0.8432
 6900TIP3    H242336   1.889   4.609   2.876 -0.4296 -0.9950  0.6027
 6901TIP3   OH242337   6.359   2.658   7.751 -0.0877 -0.2694 -0.0435
 6901TIP3    H142338   6.301   2.689   7.682 -0.3222 -1.3103 -0.3276
 6901TIP3    H242339   6.320   2.691   7.832 -0.1712  0.4035 -0.3513
 6902TIP3   OH242340   6.320   4.724   1.824  0.5314  0.6356 -0.2656
 6902TIP3    H142341   6.245   4.675   1.790 -0.9608  2.5687  0.0716
 6902TIP3    H242342   6.371   4.659   1.872 -0.2091 -1.0134 -1.5939
 6903TIP3   OH242343   2.846   6.551   8.256 -0.5125  0.1603  0.8449
 6903TIP3    H142344   2.780   6.618   8.270 -0.2998  0.1165  2.1650
 6903TIP3    H242345   2.797   6.476   8.222 -1.1046  0.2183  1.5585
 6904TIP3   OH242346   6.530   2.268   0.533  0.3457 -0.0804 -0.2405
 6904TIP3    H142347   6.462   2.335   0.527  0.0904 -0.2788  0.3246
 6904TIP3    H242348   6.576   2.288   0.615 -1.4007 -2.1046  1.3575
 6905TIP3   OH242349   0.780   3.274   8.513 -0.2443 -0.6336 -0.7875
 6905TIP3    H142350   0.860   3.314   8.545 -1.5421 -0.1282  2.1429
 6905TIP3    H242351   0.779   3.292   8.419  1.3583  2.4018 -0.3165
 6906TIP3   OH242352   0.821   5.453   8.018  0.6925 -0.2727 -0.3545
 6906TIP3    H142353   0.857   5.409   7.941  0.0364 -0.3947 -0.6053
 6906TIP3    H242354   0.802   5.382   8.080 -4.0754 -1.0373 -2.2271
 6907TIP3   OH242355   3.601   3.691   0.460 -0.8436 -0.1406  0.3217
 6907TIP3    H142356   3.516   3.662   0.493 -1.3935 -0.1773 -1.0784
 6907TIP3    H242357   3.625   3.763   0.518 -1.9985  0.1155  0.5094
 6908TIP3   OH242358   4.536   3.061   3.133 -0.2003 -0.5925  0.6845
 6908TIP3    H142359   4.626   3.081   3.162 -0.9397  2.2738  1.3181
 6908TIP3    H242360   4.519   2.974   3.168  2.5835 -1.5923 -0.1340
 6909TIP3   OH242361   3.463   6.383   7.359  0.3612  0.6752 -0.7161
 6909TIP3    H142362   3.405   6.404   7.286  0.1427  1.0587 -0.4350
 6909TIP3    H242363   3.519   6.460   7.368  0.3432  0.6557 -0.4355
 6910TIP3   OH242364   2.577   3.827   7.299 -0.3082  0.0930 -0.0515
 6910TIP3    H142365   2.640   3.754   7.294  1.3189  1.4577 -0.5317
 6910TIP3    H242366   2.610   3.882   7.370  0.6100  2.1587 -1.9488
 6911TIP3   OH242367   4.525   4.093   1.177  0.3073 -0.0218 -0.0838
 6911TIP3    H142368   4.575   4.022   1.218 -0.4617 -0.7274 -0.3313
 6911TIP3    H242369   4.581   4.123   1.105  0.4365 -0.7094 -0.2757
 6912TIP3   OH242370   2.713   4.826   8.209 -0.6296  0.8585  0.0568
 6912TIP3    H142371   2.688   4.840   8.300  1.6993 -0.2396  0.9416
 6912TIP3    H242372   2.646   4.872   8.159 -2.1788  1.2137  2.2869
 6913TIP3   OH242373   0.932   0.305   1.428 -0.7998 -0.3565 -0.0731
 6913TIP3    H142374   0.891   0.310   1.341 -0.1483 -1.1139 -0.4377
 6913TIP3    H242375   0.966   0.216   1.433 -2.1053 -0.7993  1.5685
 6914TIP3   OH242376   5.414   5.872   2.221  0.2221 -0.1908  0.2129
 6914TIP3    H142377   5.487   5.854   2.162 -0.1885 -1.2745  0.0231
 6914TIP3    H242378   5.400   5.791   2.269 -0.9370 -0.0474  0.1585
 6915TIP3   OH242379   2.666   4.779   0.727  0.2501 -0.0448  0.5945
 6915TIP3    H142380   2.659   4.874   0.739 -0.5281  0.1421 -1.0128
 6915TIP3    H242381   2.651   4.742   0.814 -1.5187  1.2293  0.8827
 6916TIP3   OH242382   0.021   0.623   0.097 -0.1817 -0.5090  0.0918
 6916TIP3    H142383  -0.015   0.540   0.128 -0.5807  0.1046  1.3687
 6916TIP3    H242384   0.109   0.601   0.066 -0.0159 -1.3112  1.0605
 6917TIP3   OH242385   0.434   5.483   6.828 -0.1354 -0.3636 -0.0208
 6917TIP3    H142386   0.460   5.526   6.747 -0.3753 -3.8489 -2.1068
 6917TIP3    H242387   0.511   5.492   6.885  0.4700  1.1028 -0.9962
 6918TIP3   OH242388   5.369   0.402   2.212 -0.0955  0.6438 -0.6024
 6918TIP3    H142389   5.442   0.428   2.268  0.4929 -1.4847 -0.2756
 6918TIP3    H242390   5.302   0.370   2.273  0.6544 -1.9525 -0.9916
 6919TIP3   OH242391   0.206   5.367   1.454 -0.3875 -0.9162 -0.4111
 6919TIP3    H142392   0.244   5.451   1.428 -1.4501 -0.3061 -0.0448
 6919TIP3    H242393   0.180   5.326   1.371 -2.4539  0.3889 -0.4699
 6920TIP3   OH242394   4.596   4.306   0.899  0.6084 -0.0608  0.3558
 6920TIP3    H142395   4.564   4.383   0.945 -0.2064 -0.3653  0.3163
 6920TIP3    H242396   4.561   4.316   0.810  0.6591 -0.3790  0.3001
 6921TIP3   OH242397   2.565   2.066   1.792 -0.2312 -0.3697 -0.2273
 6921TIP3    H142398   2.608   2.083   1.875  0.1315  0.1496 -0.5203
 6921TIP3    H242399   2.524   1.980   1.803 -1.2894  0.2488  0.9391
 6922TIP3   OH242400   0.056   3.010   0.648 -0.0943  0.5913 -0.1961
 6922TIP3    H142401   0.071   2.970   0.562 -3.6268 -2.5227  0.3676
 6922TIP3    H242402  -0.025   3.059   0.638 -0.6096  0.1123  1.3378
 6923TIP3   OH242403   4.904   6.827   7.437  0.2319  0.3497  0.0851
 6923TIP3    H142404   4.881   6.736   7.457  0.4037  0.3951  0.5019
 6923TIP3    H242405   4.856   6.878   7.502 -0.5821  0.6236 -0.7075
 6924TIP3   OH242406   0.472   5.188   0.370 -0.0446 -0.1447 -0.1091
 6924TIP3    H142407   0.387   5.169   0.330 -0.1446 -1.5440  0.7139
 6924TIP3    H242408   0.466   5.151   0.458  0.6189  1.7478  0.7768
 6925TIP3   OH242409   2.761   0.308   1.928  0.1018 -0.4414  0.6370
 6925TIP3    H142410   2.768   0.382   1.867  4.4640 -1.6385 -0.7450
 6925TIP3    H242411   2.748   0.348   2.014  1.5947  1.9524 -0.1412
 6926TIP3   OH242412   2.330   0.015   8.171 -0.1964 -0.0477 -0.1121
 6926TIP3    H142413   2.278  -0.057   8.135  1.2672 -2.0158  1.4780
 6926TIP3    H242414   2.302   0.021   8.262 -2.3166  3.4175 -0.7752
 6927TIP3   OH242415   2.917   5.220   0.062 -0.2181 -0.8918  0.4213
 6927TIP3    H142416   2.942   5.220  -0.030 -0.9932  1.9263  0.1216
 6927TIP3    H242417   2.998   5.240   0.109 -0.5662  1.9375 -0.0489
 6928TIP3   OH242418   6.757   1.202   0.289 -0.2173  0.0401 -0.3721
 6928TIP3    H142419   6.672   1.160   0.299  0.3724 -1.0578  0.1620
 6928TIP3    H242420   6.744   1.290   0.325  0.1253 -1.6771  4.6277
 6929TIP3   OH242421   2.381   1.691   0.200  0.5246  0.7927  0.3402
 6929TIP3    H142422   2.315   1.714   0.265 -0.5534 -0.0950 -0.4076
 6929TIP3    H242423   2.445   1.639   0.248 -0.8825 -0.8751  0.4749
 6930TIP3   OH242424   1.794   5.932   7.396  0.4485  0.1642  0.0058
 6930TIP3    H142425   1.844   6.011   7.372  0.0337  0.4319  0.0149
 6930TIP3    H242426   1.711   5.941   7.349  0.2721 -0.1091  0.2649
 6931TIP3   OH242427   3.044   0.117   1.063  0.5195  0.3042 -0.2282
 6931TIP3    H142428   2.979   0.056   1.098  1.0874  0.0900  0.4688
 6931TIP3    H242429   3.013   0.203   1.090  0.0187  0.2868 -0.7289
 6932TIP3   OH242430   6.601   0.628   1.499 -0.0525 -0.7912 -0.3710
 6932TIP3    H142431   6.637   0.599   1.416  0.5098  1.6019 -1.0350
 6932TIP3    H242432   6.572   0.718   1.483  0.1931 -0.2145  2.0323
 6933TIP3   OH242433   6.013   1.562   0.899 -0.0607 -0.1089  0.3428
 6933TIP3    H142434   5.980   1.651   0.891 -1.4689 -0.5282  1.1430
 6933TIP3    H242435   6.106   1.568   0.875 -0.3577  1.3833 -0.5194
 6934TIP3   OH242436   5.266   4.015   0.155  0.4581 -0.8808 -0.0621
 6934TIP3    H142437   5.231   3.976   0.236  1.7483  0.7940  1.3690
 6934TIP3    H242438   5.361   4.014   0.168  0.7334 -1.2358 -1.9074
 6935TIP3   OH242439   4.184   1.972   2.033  0.4662  0.3260  0.3180
 6935TIP3    H142440   4.160   2.005   2.119  1.1005 -1.2515  1.1591
 6935TIP3    H242441   4.207   1.880   2.049  0.1073 -0.1387 -1.6249
 6936TIP3   OH242442   2.245   5.508   1.438 -0.0782  0.6816 -0.2125
 6936TIP3    H142443   2.288   5.536   1.357  1.7454 -1.9769 -0.3007
 6936TIP3    H242444   2.299   5.545   1.508 -1.3560  2.5404 -0.1327
 6937TIP3   OH242445   0.605   0.464   7.310 -0.0552 -0.7480 -0.7132
 6937TIP3    H142446   0.687   0.453   7.262 -0.3863  1.1551 -1.8004
 6937TIP3    H242447   0.538   0.431   7.250 -0.3604  0.6125 -1.1531
 6938TIP3   OH242448   3.433   1.981   8.656 -0.7156 -0.0079  0.7082
 6938TIP3    H142449   3.489   1.923   8.605 -0.3250  0.0313  1.0795
 6938TIP3    H242450   3.350   1.935   8.662 -1.2034  0.5703 -1.0591
 6939TIP3   OH242451   4.553   2.388   0.788  0.1053  0.3661  0.4412
 6939TIP3    H142452   4.630   2.413   0.838 -0.1583  0.4893  0.7856
 6939TIP3    H242453   4.583   2.389   0.697  0.5598  0.2218  0.5865
 6940TIP3   OH242454   1.646   1.963   0.982  0.2807  0.9430  0.8259
 6940TIP3    H142455   1.701   1.884   0.990  0.4720  0.8173 -1.3512
 6940TIP3    H242456   1.615   1.978   1.072  2.6388  0.1509  1.8709
 6941TIP3   OH242457   2.291   1.617   6.320  0.2175  0.3603  0.0679
 6941TIP3    H142458   2.210   1.629   6.271  0.5650  1.1453 -0.3268
 6941TIP3    H242459   2.296   1.692   6.379  1.2381  0.9763 -0.7557
 6942TIP3   OH242460   6.532   4.225   1.126  0.1066 -0.1934  0.0387
 6942TIP3    H142461   6.457   4.168   1.109 -0.8619  1.1365 -0.2808
 6942TIP3    H242462   6.499   4.292   1.186  1.6462 -0.8270  1.7117
 6943TIP3   OH242463   3.170   3.555   1.780 -0.2908 -0.0629 -0.1788
 6943TIP3    H142464   3.162   3.640   1.825 -0.2754 -1.4014  2.5394
 6943TIP3    H242465   3.079   3.531   1.760 -0.3984  0.0562  0.1447
 6944TIP3   OH242466   3.641   6.101   6.312 -0.2699  0.0095  0.2475
 6944TIP3    H142467   3.649   6.052   6.394 -0.2527  0.1619  0.3382
 6944TIP3    H242468   3.663   6.191   6.337  0.6586 -0.1045 -0.1064
 6945TIP3   OH242469   4.152   2.073   6.964  0.0829 -0.1363  0.6159
 6945TIP3    H142470   4.142   2.011   6.891  1.3218 -0.9266  1.0847
 6945TIP3    H242471   4.119   2.156   6.930 -1.0998 -0.9179 -0.2199
 6946TIP3   OH242472   6.649   6.198   8.617  0.2632  0.2643  0.1638
 6946TIP3    H142473   6.557   6.184   8.595 -0.1601  0.1152  1.9000
 6946TIP3    H242474   6.698   6.156   8.546 -1.0031 -1.1742  0.1065
 6947TIP3   OH242475   4.803   3.133   1.569  0.3413 -0.1755  0.0648
 6947TIP3    H142476   4.771   3.187   1.497  1.0840  2.1064  1.3458
 6947TIP3    H242477   4.738   3.063   1.577 -0.9951  0.8488 -1.2955
 6948TIP3   OH242478   3.510   5.497   1.176 -0.4954 -0.1678 -0.0728
 6948TIP3    H142479   3.461   5.563   1.225  0.1601 -0.8113  1.5538
 6948TIP3    H242480   3.444   5.448   1.127 -1.1996  0.4757  0.2218
 6949TIP3   OH242481   4.041   3.908   7.291  1.0178 -0.0057  0.1076
 6949TIP3    H142482   3.954   3.938   7.319  1.7030  1.3486  0.8777
 6949TIP3    H242483   4.030   3.886   7.199  0.2224  1.7508 -0.2618
 6950TIP3   OH242484   6.350   0.279   1.630 -0.5938 -0.0060  0.0093
 6950TIP3    H142485   6.421   0.266   1.568  0.0192 -1.3100  0.9335
 6950TIP3    H242486   6.274   0.300   1.576 -0.1418 -1.3581 -1.2193
 6951TIP3   OH242487   2.162   0.097   1.895  0.6443 -0.6517  0.2813
 6951TIP3    H142488   2.208   0.181   1.904  0.1663 -0.4613  1.0497
 6951TIP3    H242489   2.098   0.097   1.967  0.8431 -1.8068  0.4694
 6952TIP3   OH242490   4.640   2.407   0.526 -0.4894 -0.5629  0.6275
 6952TIP3    H142491   4.558   2.407   0.478  0.1164 -0.6172 -0.4345
 6952TIP3    H242492   4.680   2.322   0.507 -0.1942 -0.5466  1.1465
 6953TIP3   OH242493   6.428   4.642   8.025 -0.6171 -0.1011 -0.2580
 6953TIP3    H142494   6.339   4.608   8.036 -0.5315 -0.7783 -1.4722
 6953TIP3    H242495   6.450   4.623   7.934  0.5795  0.5380 -0.1245
 6954TIP3   OH242496   6.878   4.030   8.432  0.2770  0.8155  0.2092
 6954TIP3    H142497   6.803   4.085   8.411 -1.1003 -0.5591  1.3431
 6954TIP3    H242498   6.845   3.941   8.427  2.3852  0.0457 -1.2923
 6955TIP3   OH242499   0.743   2.225   0.869  0.1599  0.0545  0.0493
 6955TIP3    H142500   0.680   2.209   0.799  0.1844 -0.7156  0.1928
 6955TIP3    H242501   0.828   2.225   0.825  0.0569  1.6829 -0.2414
 6956TIP3   OH242502   6.197   2.811   2.794 -0.3960 -0.3569 -0.0799
 6956TIP3    H142503   6.290   2.794   2.776 -0.1516  1.1909 -0.3937
 6956TIP3    H242504   6.151   2.742   2.746  0.5532 -0.4485 -0.8881
 6957TIP3   OH242505   6.562   4.542   6.688 -0.1632  0.0239 -1.2091
 6957TIP3    H142506   6.522   4.505   6.609 -0.7246 -1.3894 -0.3238
 6957TIP3    H242507   6.636   4.593   6.657  0.5881 -1.7902 -2.5786
 6958TIP3   OH242508   6.053   0.863   8.144  0.1226  0.0123 -0.2511
 6958TIP3    H142509   5.965   0.893   8.171  1.0367  2.8675 -0.0896
 6958TIP3    H242510   6.064   0.779   8.190 -1.2100  1.2002  2.5426
 6959TIP3   OH242511   1.414   4.641   0.997 -0.1586 -0.7815  0.4897
 6959TIP3    H142512   1.326   4.632   1.034 -0.2094 -0.2769  0.4948
 6959TIP3    H242513   1.469   4.586   1.053 -0.2794 -0.2375  1.1495
 6960TIP3   OH242514   2.664   5.007   7.365  0.1927 -0.2146 -0.0413
 6960TIP3    H142515   2.595   4.955   7.323  0.7772  1.1005 -2.8991
 6960TIP3    H242516   2.737   5.002   7.303  1.6214  0.8369  1.5015
 6961TIP3   OH242517   0.507   6.439   0.757  0.1391  0.6019 -0.0211
 6961TIP3    H142518   0.595   6.440   0.795  0.6433  0.1555 -1.1010
 6961TIP3    H242519   0.470   6.524   0.779  0.6091  0.5651  0.9604
 6962TIP3   OH242520   1.919   0.705   1.673  0.0185  0.2592  0.4082
 6962TIP3    H142521   2.001   0.756   1.679  1.2538 -1.5921 -0.0378
 6962TIP3    H242522   1.909   0.688   1.579  1.9066 -3.7274  0.7638
 6963TIP3   OH242523   3.231   2.180   1.209  0.3279 -0.3519 -0.4872
 6963TIP3    H142524   3.229   2.274   1.192  1.2510 -0.6860 -2.7351
 6963TIP3    H242525   3.279   2.142   1.135 -0.5843 -2.6728 -0.0026
 6964TIP3   OH242526   5.489   0.843   0.702  0.3661 -0.2109  0.3735
 6964TIP3    H142527   5.524   0.862   0.789 -0.3820  0.4933  0.5388
 6964TIP3    H242528   5.408   0.795   0.719  0.2981 -0.2077  0.0626
 6965TIP3   OH242529   1.706   0.600   0.941  0.1927  0.3827 -0.1698
 6965TIP3    H142530   1.711   0.510   0.973  4.0908 -0.6705 -3.0633
 6965TIP3    H242531   1.631   0.600   0.882  0.9640 -1.4659 -1.2336
 6966TIP3   OH242532   0.782   3.445   7.488  0.4241  0.1867  0.0442
 6966TIP3    H142533   0.781   3.395   7.407 -0.4506 -3.2811  1.9885
 6966TIP3    H242534   0.694   3.483   7.493 -0.5182 -1.9106  0.5626
 6967TIP3   OH242535   3.573   2.254   1.089 -0.9639 -0.0734  0.4021
 6967TIP3    H142536   3.606   2.232   1.001 -0.1272  1.2857  0.3534
 6967TIP3    H242537   3.607   2.184   1.145 -0.4937 -0.3114 -0.1616
 6968TIP3   OH242538   6.070   4.395   1.045  0.1500  0.5875  0.2418
 6968TIP3    H142539   6.007   4.422   0.978  1.3854 -1.2299 -1.7673
 6968TIP3    H242540   6.136   4.345   0.998  0.9521 -1.0612  2.8670
 6969TIP3   OH242541   6.449   4.562   2.057 -0.1462 -0.3614 -0.5594
 6969TIP3    H142542   6.434   4.471   2.032  0.3826 -0.6807  0.2310
 6969TIP3    H242543   6.439   4.563   2.152 -1.8491  0.7615 -0.7048
 6970TIP3   OH242544   3.403   0.772   1.204  0.4180 -0.8271 -0.0913
 6970TIP3    H142545   3.427   0.702   1.265 -0.8111  0.3666  1.8522
 6970TIP3    H242546   3.467   0.841   1.219 -1.0471  0.2666  1.3358
 6971TIP3   OH242547   2.876   5.906   7.070 -0.2743 -0.2579  0.1897
 6971TIP3    H142548   2.953   5.925   7.017 -0.3693 -1.2986 -0.3613
 6971TIP3    H242549   2.829   5.989   7.075 -0.7378 -0.2879 -2.1862
 6972TIP3   OH242550   4.140   0.195   1.069 -0.1797  0.1488  0.6900
 6972TIP3    H142551   4.230   0.227   1.068 -0.5845  1.3548  1.2517
 6972TIP3    H242552   4.096   0.248   1.136 -1.7646  0.8361 -0.8390
 6973TIP3   OH242553   3.254   1.418   1.956  0.0024 -0.1521 -0.4107
 6973TIP3    H142554   3.328   1.359   1.962 -0.0832 -0.2323 -0.1426
 6973TIP3    H242555   3.290   1.505   1.971 -0.3600 -0.4075  2.6533
 6974TIP3   OH242556   6.183   4.534   1.240 -0.2922  0.3187 -0.3266
 6974TIP3    H142557   6.118   4.514   1.308 -0.5553 -0.0895 -0.6932
 6974TIP3    H242558   6.146   4.498   1.160  0.0498  0.7392 -0.6785
 6975TIP3   OH242559   3.694   1.127   8.392  0.0031 -0.3183 -0.1725
 6975TIP3    H142560   3.653   1.058   8.339 -0.4529 -0.9590  0.9888
 6975TIP3    H242561   3.778   1.143   8.348  0.8990 -2.8175  0.4445
 6976TIP3   OH242562   1.989   4.370   0.495  0.7340  0.1639  0.1865
 6976TIP3    H142563   1.910   4.366   0.440  0.4827  1.0352  0.4777
 6976TIP3    H242564   2.000   4.463   0.515  1.4344 -0.0300  0.7367
 6977TIP3   OH242565   2.859   4.312   2.714 -0.0934 -0.6572  0.2439
 6977TIP3    H142566   2.779   4.366   2.708  1.0085  1.1158  0.7266
 6977TIP3    H242567   2.879   4.310   2.808 -0.6059 -2.7510  0.3524
 6978TIP3   OH242568   5.338   1.218   1.255 -0.2157 -0.7602  0.0127
 6978TIP3    H142569   5.282   1.277   1.204 -1.7825 -1.7284  0.5087
 6978TIP3    H242570   5.391   1.275   1.309 -1.3730  0.2197  0.1580
 6979TIP3   OH242571   2.352   5.886   0.539  0.5469 -0.5150 -0.2229
 6979TIP3    H142572   2.314   5.803   0.511  0.7871 -0.4621 -0.7193
 6979TIP3    H242573   2.424   5.860   0.598 -0.9532 -0.5904  1.6850
 6980TIP3   OH242574   3.835   6.208   1.034 -0.0514 -0.0536 -0.2081
 6980TIP3    H142575   3.865   6.263   0.961  0.6146 -0.4165 -0.2198
 6980TIP3    H242576   3.801   6.270   1.098 -0.8202  0.2569 -0.9042
 6981TIP3   OH242577   3.299   0.221   1.944 -0.6333 -0.3658  0.0367
 6981TIP3    H142578   3.326   0.303   1.903 -1.1126  0.9206  2.1464
 6981TIP3    H242579   3.378   0.168   1.944 -0.2330  0.1975 -1.0974
 6982TIP3   OH242580   6.382   6.690   7.425 -0.9833 -0.4453  0.1841
 6982TIP3    H142581   6.312   6.669   7.487  0.9515 -1.1687  2.2319
 6982TIP3    H242582   6.405   6.606   7.385 -0.1326 -0.5174  0.8080
 6983TIP3   OH242583   2.504   0.838   7.447 -0.6597 -0.8362 -0.4389
 6983TIP3    H142584   2.426   0.889   7.426  1.3468  2.7648  0.0498
 6983TIP3    H242585   2.499   0.824   7.542 -0.0159  0.8522 -0.1188
 6984TIP3   OH242586   0.514   2.901   8.554  0.5853  0.4008  0.2520
 6984TIP3    H142587   0.493   2.908   8.647  1.2484  2.3081  0.2982
 6984TIP3    H242588   0.587   2.838   8.551  1.3310  1.1837  1.1837
 6985TIP3   OH242589   6.303   3.844   7.251  0.0513  0.0751 -0.0614
 6985TIP3    H142590   6.237   3.864   7.185  0.1525  0.6765  0.0156
 6985TIP3    H242591   6.255   3.838   7.333  0.0001 -0.1658 -0.1065
 6986TIP3   OH242592   4.577   2.661   1.554  0.2683  0.4706  0.0240
 6986TIP3    H142593   4.496   2.612   1.567 -0.1041  1.1695  0.4534
 6986TIP3    H242594   4.638   2.624   1.618 -0.5904  1.7852  1.6966
 6987TIP3   OH242595   5.557   4.508   1.005  1.0480  0.5731 -0.1897
 6987TIP3    H142596   5.607   4.443   0.955  1.4838 -0.2576  1.2467
 6987TIP3    H242597   5.622   4.574   1.030  1.2483  0.0250  0.8063
 6988TIP3   OH242598   2.836   0.658   6.983 -0.2170  0.5301 -0.1178
 6988TIP3    H142599   2.889   0.578   6.987 -2.9299 -1.3176  1.4479
 6988TIP3    H242600   2.845   0.687   6.892  1.6390 -0.9397 -0.4743
 6989TIP3   OH242601   0.334   3.056   7.883 -0.4186  0.1952  0.7798
 6989TIP3    H142602   0.285   3.138   7.882  1.5445  1.4735  1.9769
 6989TIP3    H242603   0.283   2.998   7.938 -1.4969  0.8425  0.4967
 6990TIP3   OH242604   1.735   5.141   8.254  0.1026  0.3274 -0.3042
 6990TIP3    H142605   1.808   5.203   8.245 -0.2499  0.6624 -0.8870
 6990TIP3    H242606   1.657   5.196   8.258 -0.1448 -0.0437  0.0798
 6991TIP3   OH242607   1.020   1.813   8.116  0.2071 -0.0001  0.0009
 6991TIP3    H142608   0.989   1.777   8.033  1.4605  0.0497 -0.5102
 6991TIP3    H242609   1.064   1.740   8.159 -0.1213  0.0738  0.4732
 6992TIP3   OH242610   1.492   5.371   7.706  0.4077  0.9449  0.3962
 6992TIP3    H142611   1.433   5.326   7.646  0.6846  1.2827 -0.1350
 6992TIP3    H242612   1.515   5.304   7.771  1.9192 -0.1363 -1.1649
 6993TIP3   OH242613   5.750   2.633   0.744  0.1498 -0.1177  0.1742
 6993TIP3    H142614   5.791   2.633   0.830 -1.2451  2.7684  0.9281
 6993TIP3    H242615   5.821   2.659   0.684  0.2842  1.4204  0.9705
 6994TIP3   OH242616   0.468   0.385   7.077 -0.0217 -0.0421  0.7791
 6994TIP3    H142617   0.420   0.303   7.089  0.3799 -0.9503 -2.7628
 6994TIP3    H242618   0.540   0.362   7.018 -0.7829  3.0818 -1.6407
 6995TIP3   OH242619   0.851   3.995   7.316 -0.5848 -0.6190  0.0085
 6995TIP3    H142620   0.809   3.911   7.301  0.1750 -1.2367  1.1917
 6995TIP3    H242621   0.928   3.975   7.368 -2.4528  1.1161  3.9218
 6996TIP3   OH242622   1.025   4.477   2.322  0.3335 -0.4516  0.0746
 6996TIP3    H142623   1.050   4.504   2.410 -0.3507  1.2036 -0.2061
 6996TIP3    H242624   0.937   4.513   2.310  0.0690 -1.4124 -0.9655
 6997TIP3   OH242625   4.708   0.882   0.185  0.4889  0.1068  0.0291
 6997TIP3    H142626   4.690   0.952   0.248  1.6535  0.3974  0.0762
 6997TIP3    H242627   4.718   0.803   0.238 -1.4883 -0.2569 -0.0825
 6998TIP3   OH242628   0.163   2.195   0.308  0.2160  0.0878 -0.1782
 6998TIP3    H142629   0.250   2.198   0.268  0.1930  1.4227 -0.1576
 6998TIP3    H242630   0.145   2.101   0.317  1.1885 -0.2287 -1.1747
 6999TIP3   OH242631   2.486   0.682   1.251  0.3397  0.1634 -0.3160
 6999TIP3    H142632   2.524   0.601   1.217 -0.7869 -0.2011 -0.7253
 6999TIP3    H242633   2.510   0.748   1.186 -1.3245 -0.4243 -1.5890
 7000TIP3   OH242634   5.172   4.853   8.290 -1.1113 -0.0654  0.0927
 7000TIP3    H142635   5.228   4.831   8.364  0.6222  2.1367 -0.4473
 7000TIP3    H242636   5.203   4.796   8.219 -1.6129 -0.9579  0.5750
 7001TIP3   OH242637   4.585   1.862   7.442 -0.1772  0.1788  0.1284
 7001TIP3    H142638   4.588   1.769   7.462  1.4640 -0.0962 -1.1939
 7001TIP3    H242639   4.604   1.906   7.526 -1.1525 -0.6468  0.7959
 7002TIP3   OH242640   0.522   2.166   1.306 -0.5424  0.1946  0.2340
 7002TIP3    H142641   0.600   2.111   1.302 -0.6795  0.0185 -0.0228
 7002TIP3    H242642   0.509   2.196   1.216 -1.7333 -1.1077 -0.0588
 7003TIP3   OH242643   4.476   4.008   0.243  0.7995 -0.1835 -0.1241
 7003TIP3    H142644   4.415   4.068   0.200  1.0531  0.5627  0.5216
 7003TIP3    H242645   4.560   4.053   0.239  0.9124 -0.3007  0.7510
 7004TIP3   OH242646   0.887   3.375   0.305  0.6528 -0.2874  0.2728
 7004TIP3    H142647   0.822   3.334   0.363 -1.3164  0.7097 -1.1402
 7004TIP3    H242648   0.854   3.463   0.290  1.0371 -0.5087 -2.3654
 7005TIP3   OH242649   6.815   5.008   0.725  0.5658  0.3881 -0.0493
 7005TIP3    H142650   6.894   5.037   0.679  0.7194 -0.0934 -0.0866
 7005TIP3    H242651   6.842   4.930   0.773  0.4813  1.0145  1.0733
 7006TIP3   OH242652   1.379   1.220   1.795  0.1252  0.3840  0.1145
 7006TIP3    H142653   1.385   1.283   1.866 -0.5946  1.1275 -0.4683
 7006TIP3    H242654   1.451   1.159   1.811 -0.2314  0.3479  1.6519
 7007TIP3   OH242655   2.084   2.144   0.952  0.2599  0.2178 -0.2031
 7007TIP3    H142656   2.045   2.218   1.000 -0.3008 -0.0121 -0.2971
 7007TIP3    H242657   2.104   2.080   1.020 -1.0031 -0.3177 -0.3115
 7008TIP3   OH242658   1.791   2.450   1.432 -0.0768 -0.0808 -0.5484
 7008TIP3    H142659   1.738   2.498   1.495  1.0925 -1.0209  1.2486
 7008TIP3    H242660   1.878   2.490   1.438  0.1950 -0.5541 -1.1451
 7009TIP3   OH242661   0.885   5.114   7.945  0.3368 -0.5514  0.5707
 7009TIP3    H142662   0.980   5.124   7.947  0.3528 -0.6343  0.1970
 7009TIP3    H242663   0.853   5.183   8.003  0.5723  0.2061 -0.1837
 7010TIP3   OH242664   2.816   1.919   7.810  0.0513 -0.2374 -0.2065
 7010TIP3    H142665   2.819   2.005   7.769  1.1263  0.1396  0.6105
 7010TIP3    H242666   2.907   1.900   7.833 -0.2217 -1.4356 -0.0618
 7011TIP3   OH242667   4.846   5.430   2.061  0.0890  0.1404 -0.6774
 7011TIP3    H142668   4.792   5.373   2.007  0.3899 -0.4909 -0.3247
 7011TIP3    H242669   4.867   5.377   2.138  0.6340  0.6157 -0.4914
 7012TIP3   OH242670   4.550   2.320   1.222 -0.6768  0.0101  0.3508
 7012TIP3    H142671   4.550   2.415   1.211  3.5816  0.3613  1.5406
 7012TIP3    H242672   4.544   2.306   1.316 -1.8692 -0.9868  0.1528
 7013TIP3   OH242673   5.806   6.348   1.725 -0.3492  0.1087  0.4439
 7013TIP3    H142674   5.893   6.339   1.765 -1.2164  0.9407  2.6860
 7013TIP3    H242675   5.788   6.442   1.729 -1.1997 -0.0160 -0.3311
 7014TIP3   OH242676   2.091   3.885   7.028 -0.0934  0.0955  0.7503
 7014TIP3    H142677   2.185   3.903   7.038 -0.5799  4.2368 -0.1563
 7014TIP3    H242678   2.059   3.874   7.118  1.3197 -2.6286  1.0262
 7015TIP3   OH242679   6.493   3.115   0.943 -0.0871  0.1931  0.1413
 7015TIP3    H142680   6.538   3.138   0.862 -1.9541  3.4240 -0.1714
 7015TIP3    H242681   6.403   3.095   0.915 -0.4790  0.2607  1.3023
 7016TIP3   OH242682   3.384   2.826   2.121 -0.3483  0.3383 -0.2552
 7016TIP3    H142683   3.408   2.799   2.210  1.0312 -2.3423 -1.2984
 7016TIP3    H242684   3.303   2.875   2.131 -0.5414 -0.3760  2.4352
 7017TIP3   OH242685   3.613   5.042   0.665  0.0958  0.3849  0.8211
 7017TIP3    H142686   3.626   5.051   0.759 -0.0562 -0.9892  0.9842
 7017TIP3    H242687   3.525   5.007   0.656 -0.1706  1.2045  0.1245
 7018TIP3   OH242688   0.665   0.663   1.937  0.2471 -0.5014 -0.5725
 7018TIP3    H142689   0.623   0.739   1.977  1.0288 -0.0306 -0.6272
 7018TIP3    H242690   0.758   0.682   1.942  0.4948 -1.7486 -0.0026
 7019TIP3   OH242691   3.664   6.436   2.320  0.0625 -0.7056  0.1855
 7019TIP3    H142692   3.749   6.407   2.356 -0.2899 -2.0060  0.0444
 7019TIP3    H242693   3.599   6.394   2.377 -0.5663  2.1039  1.7428
 7020TIP3   OH242694   5.869   5.317   0.858 -0.7558  0.4299  0.0268
 7020TIP3    H142695   5.961   5.322   0.887 -0.9571 -1.4650  1.1234
 7020TIP3    H242696   5.825   5.385   0.909 -0.0178  1.1750 -0.3050
 7021TIP3   OH242697   2.386   0.924   8.374 -0.5142 -0.3509  0.3464
 7021TIP3    H142698   2.416   0.896   8.460  1.5562 -0.3015 -0.2938
 7021TIP3    H242699   2.403   0.850   8.316 -0.5893  0.0905 -0.2614
 7022TIP3   OH242700   1.331   2.865   2.172 -0.2150  0.6004  0.7037
 7022TIP3    H142701   1.274   2.860   2.248  0.9963  0.0112  1.6043
 7022TIP3    H242702   1.318   2.781   2.127 -1.3491  1.1735 -0.0704
 7023TIP3   OH242703   0.026   2.351   0.979  0.9866  0.6543 -0.5962
 7023TIP3    H142704   0.075   2.381   0.902  0.4818  0.9463 -0.8101
 7023TIP3    H242705   0.011   2.258   0.962  1.8555  0.4527 -0.3101
 7024TIP3   OH242706   2.973   0.561   1.247  0.3555  0.5823 -0.2871
 7024TIP3    H142707   2.957   0.478   1.201  0.4500  0.6295 -0.4075
 7024TIP3    H242708   3.068   0.567   1.253  0.3324  0.3080  0.4160
 7025TIP3   OH242709   5.284   5.365   7.600  0.1643 -0.2308 -0.7634
 7025TIP3    H142710   5.229   5.443   7.608  2.5754  1.3293  4.0319
 7025TIP3    H242711   5.365   5.397   7.561  1.0640 -0.3049  0.9649
 7026TIP3   OH242712   1.370   1.949   1.821  0.0815  0.0734  0.0998
 7026TIP3    H142713   1.337   1.868   1.859 -0.3703 -0.0333 -0.5220
 7026TIP3    H242714   1.446   1.923   1.769 -1.2031 -0.2539 -1.6994
 7027TIP3   OH242715   0.373   0.558   1.762 -0.6021  0.1892  0.5094
 7027TIP3    H142716   0.376   0.484   1.822  2.1600 -0.3959 -0.2148
 7027TIP3    H242717   0.446   0.614   1.788 -0.7931  1.1228 -0.8288
 7028TIP3   OH242718   5.669   6.645   2.207 -0.3009 -0.1999  0.1421
 7028TIP3    H142719   5.678   6.697   2.287  0.6145  0.2852 -0.2685
 7028TIP3    H242720   5.575   6.646   2.188 -0.5523 -0.4624  1.2979
 7029TIP3   OH242721   0.331   3.000   0.604 -0.8413 -0.1033 -0.4452
 7029TIP3    H142722   0.288   2.917   0.623 -2.0568  1.1121  2.8458
 7029TIP3    H242723   0.261   3.065   0.612  0.6247  1.4867  0.0334
 7030TIP3   OH242724   5.911   3.259   8.125 -0.0861  0.3972 -0.4599
 7030TIP3    H142725   5.906   3.226   8.215 -0.2275  0.1665 -0.5528
 7030TIP3    H242726   5.923   3.353   8.135 -1.8772  0.6405 -0.1923
 7031TIP3   OH242727   0.809   5.576   8.652 -0.1439 -0.1108  0.8627
 7031TIP3    H142728   0.826   5.624   8.732 -0.6561  1.8948 -0.1624
 7031TIP3    H242729   0.745   5.509   8.677 -0.3702  0.5393  2.0976
 7032TIP3   OH242730   4.605   4.122   7.164 -0.3374  0.3733 -0.0312
 7032TIP3    H142731   4.646   4.180   7.099 -2.1465 -0.6803 -2.2626
 7032TIP3    H242732   4.661   4.044   7.165  0.7059  1.0905  1.1199
 7033TIP3   OH242733   1.620   6.550   0.661 -0.2055  0.3192 -0.0286
 7033TIP3    H142734   1.547   6.511   0.710 -0.7057 -0.6945 -1.5268
 7033TIP3    H242735   1.658   6.614   0.722 -0.0060 -1.7467  2.1515
 7034TIP3   OH242736   1.691   0.047   7.848 -0.5130 -0.0616  0.7102
 7034TIP3    H142737   1.723  -0.043   7.844 -0.2185  0.0753 -0.3532
 7034TIP3    H242738   1.622   0.051   7.781  0.6996  0.9589 -0.5170
 7035TIP3   OH242739   2.991   0.647   8.250 -0.0877 -0.2049 -0.5275
 7035TIP3    H142740   3.036   0.625   8.169  1.8171 -1.1749  0.7262
 7035TIP3    H242741   3.061   0.673   8.310 -1.3258 -0.5298  1.1281
 7036TIP3   OH242742   2.477   5.389   2.017 -0.5432 -0.0853  0.2420
 7036TIP3    H142743   2.457   5.360   2.106 -1.5871 -1.4303 -0.4005
 7036TIP3    H242744   2.565   5.355   2.000 -1.1202 -1.5426  0.0736
 7037TIP3   OH242745   0.426   4.787   0.179  0.0410 -0.0880  0.0671
 7037TIP3    H142746   0.443   4.847   0.107  1.5579  0.9597  1.2180
 7037TIP3    H242747   0.505   4.733   0.184 -0.6333 -1.0986  0.0810
 7038TIP3   OH242748   5.876   3.218   1.401 -0.3347 -0.2569  0.1652
 7038TIP3    H142749   5.963   3.193   1.371 -0.4352 -2.4992  1.5475
 7038TIP3    H242750   5.824   3.137   1.396 -2.3469  0.9954 -0.5578
 7039TIP3   OH242751   4.281   4.783   2.541 -0.4548 -0.0251 -0.0099
 7039TIP3    H142752   4.240   4.731   2.611 -0.9488 -1.2426 -1.1675
 7039TIP3    H242753   4.350   4.726   2.506  0.2443  0.8445 -0.0863
 7040TIP3   OH242754   1.488   6.290   8.102  0.2216 -0.6253 -0.1981
 7040TIP3    H142755   1.528   6.303   8.189  0.1272  0.6236 -0.3242
 7040TIP3    H242756   1.529   6.210   8.069  1.1362 -0.4754  0.5118
 7041TIP3   OH242757   4.925   4.126   7.206 -0.0822 -0.4600  0.4883
 7041TIP3    H142758   4.934   4.043   7.159 -0.2670  0.1546 -0.6766
 7041TIP3    H242759   5.015   4.150   7.230  0.0301 -0.7402  0.3528
 7042TIP3   OH242760   5.557   4.868   7.253  0.3328 -0.3050  0.2226
 7042TIP3    H142761   5.602   4.843   7.333 -0.5333  1.1178  1.1881
 7042TIP3    H242762   5.626   4.903   7.196  0.6966  0.2578  1.0072
 7043TIP3   OH242763   6.175   3.802   2.115 -0.2395  0.1086  0.4747
 7043TIP3    H142764   6.250   3.853   2.147  0.9185  0.0946 -1.9587
 7043TIP3    H242765   6.155   3.742   2.187  0.9016  1.3451  1.9011
 7044TIP3   OH242766   0.250   1.360   2.669  0.7830 -0.0325 -0.3309
 7044TIP3    H142767   0.253   1.427   2.602  1.6320 -0.3568 -0.6239
 7044TIP3    H242768   0.190   1.395   2.736  0.1669  0.4133 -1.1079
 7045TIP3   OH242769   4.438   1.702   0.415 -0.2224 -0.2145 -0.0739
 7045TIP3    H142770   4.349   1.724   0.389 -0.5343 -1.0219  0.2611
 7045TIP3    H242771   4.432   1.686   0.509 -0.4376 -3.3599 -0.5010
 7046TIP3   OH242772   2.750   2.187   0.022 -0.4466  0.4714 -0.2604
 7046TIP3    H142773   2.838   2.224   0.011 -0.5699  1.1415  0.8923
 7046TIP3    H242774   2.707   2.202  -0.062  0.7769 -0.5738 -1.1261
 7047TIP3   OH242775   5.065   5.032   2.043  0.2594 -0.0732  0.0832
 7047TIP3    H142776   5.033   5.055   1.956 -0.6508 -0.1001  0.4080
 7047TIP3    H242777   5.031   5.101   2.101 -1.2366 -1.3696  0.8168
 7048TIP3   OH242778   4.651   0.974   2.158 -0.4920 -0.0327  0.1127
 7048TIP3    H142779   4.608   0.981   2.244 -2.0976  1.6139 -0.7615
 7048TIP3    H242780   4.744   0.963   2.179 -0.9807 -0.9855  2.0640
 7049TIP3   OH242781   3.114   1.977   1.859  0.1903 -0.2061  0.4838
 7049TIP3    H142782   3.175   2.044   1.829 -0.6330  0.4200  0.1675
 7049TIP3    H242783   3.083   2.009   1.944  0.5166 -0.6697  0.7839
 7050TIP3   OH242784   4.184   6.581   7.958 -0.0545 -0.2646  0.5758
 7050TIP3    H142785   4.139   6.629   7.888  2.9304  2.7661  0.4823
 7050TIP3    H242786   4.134   6.603   8.037 -0.5082  0.5351  0.0867
 7051TIP3   OH242787   0.475   3.367   8.185 -0.0566  0.4144  0.7640
 7051TIP3    H142788   0.493   3.299   8.121  0.5540  0.8688  0.4348
 7051TIP3    H242789   0.429   3.435   8.136 -0.8948  0.1386  1.1477
 7052TIP3   OH242790   0.727   2.153   1.588 -0.0627  0.2278 -0.1955
 7052TIP3    H142791   0.701   2.165   1.496  0.2543 -0.2978 -0.3551
 7052TIP3    H242792   0.654   2.105   1.627 -0.3375  0.7182 -0.0902
 7053TIP3   OH242793   2.624   2.230   8.425 -0.0458 -0.2424 -0.1600
 7053TIP3    H142794   2.545   2.201   8.379  0.2606  1.4874 -1.9002
 7053TIP3    H242795   2.692   2.170   8.394 -0.5070 -1.3067  0.8199
 7054TIP3   OH242796   3.616   4.607   2.020 -0.7482  0.1536  0.0836
 7054TIP3    H142797   3.542   4.629   1.964 -0.4466 -0.1439 -0.4458
 7054TIP3    H242798   3.642   4.690   2.060 -0.2813  0.5918 -1.0716
 7055TIP3   OH242799   0.169   4.899   1.624 -0.3317 -0.3321 -0.1995
 7055TIP3    H142800   0.203   4.865   1.541  1.0101  0.5830 -0.0684
 7055TIP3    H242801   0.150   4.821   1.676  2.0280 -0.9623 -0.1491
 7056TIP3   OH242802   3.902   5.214   8.505  0.3615  0.0937  0.1020
 7056TIP3    H142803   3.813   5.219   8.470 -1.1140 -0.5365  3.3542
 7056TIP3    H242804   3.958   5.228   8.430 -2.4764  3.0045 -1.7269
 7057TIP3   OH242805   4.890   4.689   7.730 -0.1637 -0.1009 -0.3667
 7057TIP3    H142806   4.955   4.758   7.738  0.4987 -0.5486 -1.6224
 7057TIP3    H242807   4.926   4.615   7.779  0.4737 -0.4715 -1.3679
 7058TIP3   OH242808   6.053   4.713   0.527 -0.2108 -0.3152 -0.5402
 7058TIP3    H142809   6.120   4.685   0.464  0.2430  0.1821 -0.2891
 7058TIP3    H242810   6.077   4.668   0.609  1.4047  1.8779  0.2778
 7059TIP3   OH242811   4.775   6.576   0.798  0.3542 -0.0432  0.3997
 7059TIP3    H142812   4.745   6.567   0.888 -0.5003  0.6428  0.2012
 7059TIP3    H242813   4.866   6.546   0.799  0.1815 -0.5624  1.3675
 7060TIP3   OH242814   4.250   0.156   7.052 -0.2084 -0.4021 -0.4544
 7060TIP3    H142815   4.221   0.071   7.018  0.0036 -0.6469 -0.0394
 7060TIP3    H242816   4.216   0.220   6.990 -2.7598 -0.5382  0.6599
 7061TIP3   OH242817   5.899   4.369   7.858 -0.1613  0.4927 -0.0258
 7061TIP3    H142818   5.993   4.352   7.852 -0.1130  0.4629  0.7654
 7061TIP3    H242819   5.858   4.283   7.852 -0.1094  0.4568  0.1334
 7062TIP3   OH242820   5.448   5.207   1.120  0.6211 -0.1593  0.0736
 7062TIP3    H142821   5.501   5.222   1.198  1.2438  1.4816 -0.6069
 7062TIP3    H242822   5.510   5.178   1.054 -0.2183 -3.8412  0.6830
 7063TIP3   OH242823   6.206   2.854   0.175 -0.5453 -0.5768 -0.0848
 7063TIP3    H142824   6.137   2.795   0.206 -0.4365 -0.4505  0.4034
 7063TIP3    H242825   6.240   2.896   0.254  1.8822 -2.5431  0.0246
 7064TIP3   OH242826   0.588   3.768   0.194  0.4867 -0.6096 -0.5710
 7064TIP3    H142827   0.560   3.743   0.106 -0.8246  0.7681 -0.5871
 7064TIP3    H242828   0.596   3.863   0.191 -0.1085 -0.4810  0.9410
 7065TIP3   OH242829   3.164   3.497   8.073 -0.0158  0.5526  0.2364
 7065TIP3    H142830   3.221   3.556   8.024 -1.4234  0.0115 -2.2448
 7065TIP3    H242831   3.217   3.467   8.147  2.3744  1.1935 -1.1314
 7066TIP3   OH242832   5.742   2.749   0.330 -0.6592  0.2123  0.6152
 7066TIP3    H142833   5.729   2.707   0.245 -0.3248 -0.1682  0.7495
 7066TIP3    H242834   5.751   2.677   0.392  2.0573  0.3645  0.5537
 7067TIP3   OH242835   4.359   2.215   2.025 -0.0349 -0.1824  0.2026
 7067TIP3    H142836   4.424   2.207   2.094 -1.4609  0.9451  1.7481
 7067TIP3    H242837   4.344   2.125   1.995  0.3667 -0.7256  1.5868
 7068TIP3   OH242838   1.249   6.448   8.188  0.0903  0.1426  0.0790
 7068TIP3    H142839   1.207   6.412   8.110  0.3563  0.4878 -0.2205
 7068TIP3    H242840   1.324   6.390   8.203 -0.8775 -0.9250  1.0408
 7069TIP3   OH242841   6.105   1.768   8.230 -0.0715 -1.1212  0.0802
 7069TIP3    H142842   6.024   1.717   8.241  0.6064 -2.1769  0.3652
 7069TIP3    H242843   6.087   1.826   8.156 -1.2892 -0.9229  0.5024
 7070TIP3   OH242844   5.154   0.217   0.137 -0.7332 -0.3481 -0.1141
 7070TIP3    H142845   5.116   0.253   0.057  1.5453  1.7748 -0.3408
 7070TIP3    H242846   5.210   0.146   0.106 -0.9491 -0.4624 -0.2483
 7071TIP3   OH242847   2.291   3.691   3.178 -0.9372 -0.1863  0.0003
 7071TIP3    H142848   2.216   3.642   3.144 -0.8554 -0.9147  0.8257
 7071TIP3    H242849   2.367   3.642   3.147 -0.8314 -0.0886  0.1072
 7072TIP3   OH242850   6.577   5.261   8.318  0.0251 -0.3377  0.7874
 7072TIP3    H142851   6.598   5.276   8.226 -2.2808 -1.3322  0.0353
 7072TIP3    H242852   6.663   5.247   8.360  1.1124  0.0208 -1.1963
 7073TIP3   OH242853   3.622   1.534   8.520 -0.5145  0.4934  0.0928
 7073TIP3    H142854   3.547   1.488   8.484 -0.3673  0.0537  0.3332
 7073TIP3    H242855   3.683   1.543   8.447 -0.2504 -0.3253  0.1972
 7074TIP3   OH242856   3.956   0.508   8.002  0.0253 -0.4326 -0.2568
 7074TIP3    H142857   4.038   0.532   8.046  1.0330 -2.1643 -1.0578
 7074TIP3    H242858   3.958   0.556   7.920 -1.0654  1.5323  0.8008
 7075TIP3   OH242859   3.226   5.564   7.434  0.4487 -0.1233  0.2672
 7075TIP3    H142860   3.205   5.607   7.351  0.2205  1.1338  0.9507
 7075TIP3    H242861   3.274   5.486   7.408  0.0692  0.0462 -1.0654
 7076TIP3   OH242862   0.502   6.637   8.189  0.2908 -0.6626 -0.2998
 7076TIP3    H142863   0.451   6.664   8.113  0.9604 -1.5416 -1.0997
 7076TIP3    H242864   0.565   6.573   8.154  1.4978 -0.1104  0.7499
 7077TIP3   OH242865   3.420   6.522   0.612 -0.3573  0.4397 -0.7051
 7077TIP3    H142866   3.502   6.533   0.661 -0.5127  1.1319 -0.5811
 7077TIP3    H242867   3.430   6.438   0.566 -0.4581 -0.5202  0.9685
 7078TIP3   OH242868   6.361   1.210   1.475  0.1073  0.5195  0.5036
 7078TIP3    H142869   6.386   1.196   1.384 -2.2349 -0.1108 -0.1277
 7078TIP3    H242870   6.420   1.155   1.526 -0.1285 -1.0911 -0.8757
 7079TIP3   OH242871   1.866   6.411   7.876 -0.0164 -0.6367 -0.1358
 7079TIP3    H142872   1.831   6.359   7.803 -0.6923 -1.9931  1.1054
 7079TIP3    H242873   1.928   6.353   7.920 -0.1920 -0.1182  0.8317
 7080TIP3   OH242874   4.224   0.280   0.556  0.2845 -0.2614 -0.1216
 7080TIP3    H142875   4.156   0.258   0.619  0.6564 -0.3913  0.2450
 7080TIP3    H242876   4.266   0.196   0.537  1.4348  0.0323  0.9569
 7081TIP3   OH242877   5.154   5.614   7.582  0.2489  0.0948 -0.0963
 7081TIP3    H142878   5.103   5.662   7.648  0.4840  0.8011 -0.4143
 7081TIP3    H242879   5.089   5.587   7.517  0.1655  0.3077 -0.1022
 7082TIP3   OH242880   3.854   2.723   1.609 -0.8115  0.2464  0.2544
 7082TIP3    H142881   3.919   2.667   1.653 -1.0220  0.9964  1.5738
 7082TIP3    H242882   3.905   2.778   1.551 -0.6682 -1.8452 -1.7369
 7083TIP3   OH242883   6.222   3.195   0.809 -0.4376  0.2441  0.1368
 7083TIP3    H142884   6.190   3.106   0.794 -1.0101  0.3283  0.8266
 7083TIP3    H242885   6.256   3.222   0.723 -1.6099 -0.0936 -0.4576
 7084TIP3   OH242886   4.200   4.614   0.372  0.4709 -0.4702 -0.0324
 7084TIP3    H142887   4.233   4.559   0.443  1.1718  0.0311  0.0388
 7084TIP3    H242888   4.121   4.654   0.409  0.6860 -0.4126  0.3795
 7085TIP3   OH242889   5.059   1.108   7.479 -0.2813  0.1886  0.6142
 7085TIP3    H142890   4.982   1.104   7.423 -0.0832  0.3225  0.3330
 7085TIP3    H242891   5.079   1.016   7.500  0.2519  0.0709 -0.3627
 7086TIP3   OH242892   2.821   0.336   7.806 -0.2753  0.4094  0.5065
 7086TIP3    H142893   2.753   0.377   7.754  0.3976  1.3231  0.3160
 7086TIP3    H242894   2.805   0.367   7.895 -0.8774 -0.4224  0.7005
 7087TIP3   OH242895   2.855   1.772   1.605  0.3742 -0.0903 -0.4374
 7087TIP3    H142896   2.947   1.767   1.632  0.2186  0.3427  0.1815
 7087TIP3    H242897   2.806   1.778   1.686 -0.2756 -1.2200 -0.7369
 7088TIP3   OH242898   1.503   5.290   7.439 -0.7928  0.0797 -0.0572
 7088TIP3    H142899   1.511   5.206   7.394 -1.0773 -0.3646  0.6975
 7088TIP3    H242900   1.581   5.296   7.493 -0.6106  0.4639 -0.3545
 7089TIP3   OH242901   2.688   6.335   8.170 -0.0934  0.2464 -0.4607
 7089TIP3    H142902   2.624   6.271   8.138 -0.3903 -0.4223  1.3507
 7089TIP3    H242903   2.664   6.350   8.261  0.0543  2.8877 -0.7806
 7090TIP3   OH242904   1.745   1.055   7.934  0.2163 -0.0247 -0.1727
 7090TIP3    H142905   1.790   0.989   7.987 -0.0645 -1.0009 -1.1075
 7090TIP3    H242906   1.652   1.042   7.953  0.0753 -0.7302 -1.2646
 7091TIP3   OH242907   2.047   6.851   0.885  0.2271  0.2191  0.0784
 7091TIP3    H142908   2.134   6.847   0.845  1.2699 -0.0868  2.2000
 7091TIP3    H242909   1.999   6.916   0.834  2.2957  1.6808 -0.1059
 7092TIP3   OH242910   5.699   4.612   2.337 -0.2371 -0.2186 -0.1332
 7092TIP3    H142911   5.623   4.660   2.368  0.1470  0.4445 -0.2038
 7092TIP3    H242912   5.760   4.613   2.411  0.0816  0.0820 -0.3954
 7093TIP3   OH242913   4.885   2.530   0.610  0.3122 -0.2424 -0.4266
 7093TIP3    H142914   4.800   2.488   0.597 -0.4698  1.1328  0.0169
 7093TIP3    H242915   4.897   2.531   0.705 -0.0256  1.1078 -0.3715
 7094TIP3   OH242916   4.045   4.387   6.812  0.3069 -0.6399 -0.2974
 7094TIP3    H142917   4.057   4.395   6.907  1.3723  1.1826 -0.5457
 7094TIP3    H242918   3.963   4.432   6.794  0.1717 -0.8716 -0.2681
 7095TIP3   OH242919   5.465   0.918   7.681  0.5699 -0.3167 -0.3560
 7095TIP3    H142920   5.476   0.839   7.734  1.5176 -0.1555 -0.3016
 7095TIP3    H242921   5.433   0.887   7.597 -0.2871 -0.6360  0.0736
 7096TIP3   OH242922   5.007   5.011   0.886 -0.7057  0.2997  0.2638
 7096TIP3    H142923   5.096   5.032   0.858 -0.5821 -1.4598 -0.8129
 7096TIP3    H242924   4.976   5.090   0.930  0.2602  2.0655 -2.0668
 7097TIP3   OH242925   0.344   5.059   2.318 -0.8570 -0.2762  0.1325
 7097TIP3    H142926   0.317   5.099   2.400  1.1915  0.8439  0.2987
 7097TIP3    H242927   0.377   5.131   2.265  0.6647 -1.3884 -0.5025
 7098TIP3   OH242928   1.258   5.919   0.720 -0.4737  0.0604 -0.0430
 7098TIP3    H142929   1.289   5.979   0.652  3.1574  1.5552  2.5670
 7098TIP3    H242930   1.313   5.841   0.711  0.1675  0.3451  1.2010
 7099TIP3   OH242931   4.647   1.422   7.757  0.0123  0.0481  0.7482
 7099TIP3    H142932   4.739   1.405   7.736  0.7729 -0.4008  3.9366
 7099TIP3    H242933   4.647   1.439   7.851 -3.2076 -0.0183  0.8516
 7100TIP3   OH242934   3.586   6.551   7.758 -0.0509  0.1693  0.2360
 7100TIP3    H142935   3.645   6.625   7.772 -1.2304  0.8306  2.0317
 7100TIP3    H242936   3.626   6.478   7.805 -0.7715  0.7099  1.7576
 7101TIP3   OH242937   3.727   2.239   1.433 -0.1197 -0.3534  0.3346
 7101TIP3    H142938   3.821   2.255   1.442 -0.3434  0.8474  0.7687
 7101TIP3    H242939   3.689   2.326   1.426 -1.2862 -0.7929  0.9992
 7102TIP3   OH242940   1.632   1.273   8.172  0.2689 -0.2375 -0.4085
 7102TIP3    H142941   1.643   1.222   8.092  0.8091  1.1207 -1.2410
 7102TIP3    H242942   1.603   1.359   8.142  2.4227  0.9459  0.6658
 7103TIP3   OH242943   3.319   2.322   8.428  0.0651  0.4017  0.1530
 7103TIP3    H142944   3.237   2.275   8.413  1.1144 -1.2155 -0.8013
 7103TIP3    H242945   3.315   2.349   8.520 -1.5119  0.3673  0.1255
 7104TIP3   OH242946   4.335   5.476   2.341 -0.4219  0.0052  0.7302
 7104TIP3    H142947   4.332   5.567   2.371  1.3041  0.4360 -0.2409
 7104TIP3    H242948   4.428   5.453   2.345  0.1362  0.2007 -4.2751
 7105TIP3   OH242949   4.136   0.776   1.363  0.2375 -0.3160  0.0072
 7105TIP3    H142950   4.175   0.746   1.281  0.5642  0.0332  0.0298
 7105TIP3    H242951   4.113   0.696   1.410  1.3223 -0.5503  0.1756
 7106TIP3   OH242952   4.072   1.088   1.984 -0.5858  0.8805  0.0817
 7106TIP3    H142953   4.163   1.062   2.001 -0.6468  0.6625  0.0787
 7106TIP3    H242954   4.054   1.156   2.048 -0.5064  0.7356  0.2578
 7107TIP3   OH242955   0.587   1.667   0.042  0.2093 -0.1342  0.3076
 7107TIP3    H142956   0.654   1.668  -0.026 -0.9090 -0.7995 -0.8639
 7107TIP3    H242957   0.559   1.758   0.050 -0.4808 -0.1940 -1.0317
 7108TIP3   OH242958   3.408   5.065   1.974  0.1954  0.0652  0.3836
 7108TIP3    H142959   3.420   5.159   1.987 -0.7531  0.3659 -0.7429
 7108TIP3    H242960   3.447   5.048   1.888 -2.9017  0.1771 -1.1550
 7109TIP3   OH242961   5.447   4.328   1.458  0.4979 -0.5779  0.0189
 7109TIP3    H142962   5.482   4.240   1.473 -0.3097 -0.7345  1.0874
 7109TIP3    H242963   5.362   4.313   1.417 -0.2215 -0.3750  1.3642
 7110TIP3   OH242964   5.560   3.363   1.958 -0.0001 -0.7726  0.0166
 7110TIP3    H142965   5.496   3.428   1.927  0.4805  0.0747  0.7539
 7110TIP3    H242966   5.552   3.366   2.053  0.8317 -0.9687  0.0953
 7111TIP3   OH242967   4.977   3.124   6.781  0.4478  0.0863  0.0213
 7111TIP3    H142968   4.914   3.058   6.811  0.2446 -0.1021 -0.7977
 7111TIP3    H242969   5.023   3.082   6.708  0.9024  0.5487  0.0335
 7112TIP3   OH242970   5.536   0.059   7.957  0.0207 -0.1509 -0.1251
 7112TIP3    H142971   5.581  -0.025   7.967 -0.1683 -0.2785 -0.3330
 7112TIP3    H242972   5.512   0.063   7.864  1.8616  1.0730 -0.6013
 7113TIP3   OH242973   0.600   6.012   0.823  0.0037 -0.5264 -0.1697
 7113TIP3    H142974   0.533   5.978   0.765  1.2975 -0.9390 -1.4766
 7113TIP3    H242975   0.680   5.967   0.797  0.5848 -0.9429  2.1391
 7114TIP3   OH242976   1.414   0.841   0.012  0.0949 -0.3443  0.1167
 7114TIP3    H142977   1.483   0.885  -0.038 -0.0347 -0.7087 -0.3957
 7114TIP3    H242978   1.353   0.810  -0.055 -1.4559  1.4100  0.5990
 7115TIP3   OH242979   2.520   0.366   1.750 -0.1220 -0.0054  0.3313
 7115TIP3    H142980   2.587   0.322   1.802  1.3660  0.7450 -0.8754
 7115TIP3    H242981   2.470   0.417   1.814  0.4216 -0.5948  1.2573
 7116TIP3   OH242982   1.012   2.773   7.967 -0.2406  0.2114  0.2224
 7116TIP3    H142983   1.026   2.695   7.912  2.1260 -0.8999  2.2190
 7116TIP3    H242984   1.023   2.846   7.907 -0.6252 -0.9351 -1.3299
 7117TIP3   OH242985   0.938   3.332   7.695  1.0954 -0.2354  0.1454
 7117TIP3    H142986   1.029   3.361   7.690  0.7156  0.9479 -0.2771
 7117TIP3    H242987   0.895   3.378   7.623  0.2942 -1.3173 -0.0914
 7118TIP3   OH242988   3.737   0.759   1.317  0.2234 -0.1078 -0.1725
 7118TIP3    H142989   3.673   0.694   1.347 -0.6715  0.5780 -0.5537
 7118TIP3    H242990   3.741   0.823   1.387 -0.4868  0.5237 -0.6889
 7119TIP3   OH242991   4.766   2.899   0.919  0.1809 -0.9815 -0.2747
 7119TIP3    H142992   4.756   2.958   0.844  1.5231  0.8495  0.8988
 7119TIP3    H242993   4.853   2.861   0.908  0.1467 -1.1571  0.0546
 7120TIP3   OH242994   5.453   3.309   1.563  0.5722  0.0273  0.3093
 7120TIP3    H142995   5.414   3.397   1.563  0.3607 -0.0631 -0.1175
 7120TIP3    H242996   5.418   3.268   1.484 -0.1850 -0.8283  1.0781
 7121TIP3   OH242997   1.213   0.590   1.927  0.0334 -0.4734  0.1688
 7121TIP3    H142998   1.162   0.596   2.008  0.3366 -0.2214  0.3433
 7121TIP3    H242999   1.175   0.515   1.880 -0.9063  0.0851  0.0119
 7122TIP3   OH243000   6.671   2.306   0.766 -0.5544  0.3500 -0.4294
 7122TIP3    H143001   6.702   2.226   0.808 -4.7052 -0.9816  0.4921
 7122TIP3    H243002   6.692   2.375   0.828  0.8921 -0.3228 -0.1209
 7123TIP3   OH243003   3.413   2.777   7.701 -0.1391  0.2595 -0.4181
 7123TIP3    H143004   3.436   2.738   7.785  1.5670 -1.8433 -1.7392
 7123TIP3    H243005   3.326   2.742   7.681 -0.4063  0.5028  0.2985
 7124TIP3   OH243006   4.602   6.078   1.219  0.0015  0.2743  0.4069
 7124TIP3    H143007   4.561   6.077   1.306 -0.9286  2.3994  0.0608
 7124TIP3    H243008   4.578   5.995   1.179  1.4067 -1.2794  2.5735
 7125TIP3   OH243009   6.514   4.422   1.556 -0.0512 -0.0271  0.4838
 7125TIP3    H143010   6.600   4.387   1.533 -0.8202 -1.2474 -0.6713
 7125TIP3    H243011   6.533   4.500   1.608  1.7466 -0.9907  1.3835
 7126TIP3   OH243012   5.217   2.485   2.780  0.3820  0.3096  0.5969
 7126TIP3    H143013   5.156   2.555   2.804  0.1456 -0.0177  0.9417
 7126TIP3    H243014   5.216   2.425   2.854 -1.6527 -1.5934 -0.8561
 7127TIP3   OH243015   5.162   5.863   0.978 -0.0413  0.6793  0.0571
 7127TIP3    H143016   5.195   5.830   0.894 -1.2204  0.3427 -0.3072
 7127TIP3    H243017   5.119   5.787   1.018 -0.3139  1.0698  0.5214
 7128TIP3   OH243018   5.071   6.360   1.552  0.3192  0.0170  0.7091
 7128TIP3    H143019   5.128   6.362   1.475 -1.2615  1.5614 -0.5020
 7128TIP3    H243020   5.057   6.452   1.574 -1.3859 -0.3152  1.1836
 7129TIP3   OH243021   3.818   0.418   8.562  0.8348 -0.3340 -0.2441
 7129TIP3    H143022   3.847   0.458   8.644 -1.2035 -0.7883  0.7571
 7129TIP3    H243023   3.774   0.489   8.515  3.5728  0.4356 -1.9006
 7130TIP3   OH243024   6.345   1.872   0.275 -0.4064  0.0084 -0.3227
 7130TIP3    H143025   6.367   1.838   0.362 -0.2468 -1.9096 -1.0525
 7130TIP3    H243026   6.383   1.959   0.272  1.0643 -0.5573  0.9274
 7131TIP3   OH243027   0.880   0.978   2.855 -0.2364 -0.1853  0.5668
 7131TIP3    H143028   0.954   0.995   2.797 -0.6591 -0.6773 -0.1449
 7131TIP3    H243029   0.905   0.899   2.903  0.8796  1.2267  2.4108
 7132TIP3   OH243030   4.495   4.064   8.330  0.1501  0.1038 -0.0664
 7132TIP3    H143031   4.575   4.065   8.276  1.3390 -2.2457  1.4970
 7132TIP3    H243032   4.525   4.084   8.418 -0.6651 -2.2142  0.8293
 7133TIP3   OH243033   1.558   3.050   0.139  0.1505  0.2050 -0.7580
 7133TIP3    H143034   1.463   3.041   0.132  0.0485  1.1081 -0.6597
 7133TIP3    H243035   1.574   3.143   0.127  1.0200  0.0778 -0.6561
 7134TIP3   OH243036   0.730   1.127   1.103  0.5048 -0.5943 -0.4726
 7134TIP3    H143037   0.786   1.188   1.151  0.5582  0.5478 -1.9028
 7134TIP3    H243038   0.783   1.099   1.028 -0.4719 -0.2243 -1.3347
 7135TIP3   OH243039   4.707   0.998   0.584  0.3677 -0.4534  0.1318
 7135TIP3    H143040   4.669   1.030   0.501 -2.9006 -1.9957  0.8867
 7135TIP3    H243041   4.699   1.073   0.643 -0.2788 -0.3367 -0.0926
 7136TIP3   OH243042   4.871   5.170   7.133 -0.7471  0.2027  0.6583
 7136TIP3    H143043   4.776   5.176   7.146 -0.8681  3.0993 -0.8809
 7136TIP3    H243044   4.881   5.134   7.045 -0.5777  2.8331 -0.4732
 7137TIP3   OH243045   2.528   6.377   0.855 -0.0288 -0.4959 -0.0854
 7137TIP3    H143046   2.499   6.466   0.834 -0.4064  0.7102  4.5021
 7137TIP3    H243047   2.621   6.375   0.830 -0.2107  0.8695 -0.9647
 7138TIP3   OH243048   6.240   5.605   6.720 -0.5730  0.4774 -0.0492
 7138TIP3    H143049   6.162   5.614   6.666  0.4648 -0.0843 -1.7241
 7138TIP3    H243050   6.209   5.563   6.801 -2.2318  1.7024 -0.0035
 7139TIP3   OH243051   0.313   4.972   2.028 -0.1350  0.3611  0.1835
 7139TIP3    H143052   0.291   5.065   2.038 -0.6805  0.0501  2.3321
 7139TIP3    H243053   0.321   4.960   1.933 -0.8409  2.4094 -0.1978
 7140TIP3   OH243054   6.218   0.094   1.801 -0.1753 -0.0876 -0.3523
 7140TIP3    H143055   6.281   0.132   1.741 -1.6378 -1.7218 -3.1140
 7140TIP3    H243056   6.186   0.167   1.853  3.7186  0.8516  1.0969
 7141TIP3   OH243057   6.359   4.219   7.061 -0.2083  0.3417 -0.4176
 7141TIP3    H143058   6.407   4.268   6.994 -2.1986  0.3221 -1.9203
 7141TIP3    H243059   6.291   4.279   7.092 -1.0416 -0.5836 -0.4038
 7142TIP3   OH243060   0.150   0.417   7.103  0.2509  0.3387  0.2465
 7142TIP3    H143061   0.069   0.442   7.146  0.4692  1.5031  0.0259
 7142TIP3    H243062   0.195   0.500   7.086  0.5375 -0.1196 -1.4957
 7143TIP3   OH243063   0.059   6.600   1.847  0.1949  0.1499 -0.0587
 7143TIP3    H143064   0.105   6.570   1.768  0.1490  0.3547 -0.1662
 7143TIP3    H243065   0.071   6.695   1.846 -0.4113  0.2294 -0.2010
 7144TIP3   OH243066   1.835   1.272   2.528  0.5313  0.0110  0.6069
 7144TIP3    H143067   1.882   1.300   2.607  1.9919 -0.5862 -0.0171
 7144TIP3    H243068   1.836   1.349   2.471 -1.6247  0.8649  1.5835
 7145TIP3   OH243069   0.908   2.022   8.612 -0.3712 -0.4625  0.4180
 7145TIP3    H143070   0.982   2.081   8.623 -1.1540  0.4180  1.1504
 7145TIP3    H243071   0.919   1.985   8.524  0.3593  0.4711  0.1051
 7146TIP3   OH243072   2.342   1.882   1.838  1.1859  0.2041  0.0709
 7146TIP3    H143073   2.314   1.972   1.820  4.0647  1.4403  1.2581
 7146TIP3    H243074   2.367   1.847   1.752  1.3488  1.0328 -0.2227
 7147LIG     O143075   2.799   1.350   5.903 -0.1107 -0.2015  0.0942
 7147LIG     O243076   2.705   1.594   5.890  0.1836 -0.5444 -0.4989
 7147LIG     O343077   2.994   1.498   6.073 -0.0204  0.7926  0.0037
 7147LIG     O443078   2.533   1.754   5.859  0.3511 -0.0567 -0.0098
 7147LIG     O543079   2.706   1.646   6.173 -0.4621  0.4114  0.2627
 7147LIG     O643080   2.585   1.911   6.230  0.3422  0.3095  0.3728
 7147LIG     O743081   2.304   1.914   6.101 -0.4114  0.0486 -0.1250
 7147LIG     O843082   2.234   1.850   5.748  0.5457 -0.0656  0.4019
 7147LIG     O943083   2.376   2.018   5.754 -0.3619  0.2349 -0.2228
 7147LIG      N43084   2.948   1.206   5.449 -0.2936 -1.0093  1.0307
 7147LIG     C143085   2.813   1.324   5.681 -0.3650  0.9415  0.0627
 7147LIG     C243086   2.798   1.386   5.539  0.1696 -0.8422 -0.0317
 7147LIG     C343087   2.711   1.364   5.792 -0.4095  0.1441  0.3904
 7147LIG     C443088   2.931   1.355   5.465  0.2281 -0.4860 -0.6155
 7147LIG     C543089   2.841   1.170   5.673  0.0875 -0.0797 -0.8717
 7147LIG     C643090   2.947   1.367   5.728 -0.5466 -0.3131 -0.6126
 7147LIG     C743091   3.058   1.419   5.521  0.2189  0.1229 -0.0286
 7147LIG     C843092   2.958   1.135   5.583  0.5360  0.5048  0.1330
 7147LIG     C943093   2.662   1.502   5.787  0.0872  0.3268  0.3072
 7147LIG    C1043094   3.058   1.430   5.663 -0.1707  0.3131 -0.3394
 7147LIG    C1143095   2.761   1.536   5.554  0.0299 -0.1837 -0.4370
 7147LIG    C1243096   2.928   1.392   5.866  0.0917  0.7359  0.3235
 7147LIG    C1343097   2.696   1.586   5.666  0.6692  0.6723  0.1803
 7147LIG    C1443098   2.866   1.146   5.348  0.4638  0.6045  0.6552
 7147LIG    C1543099   3.155   1.512   5.738  0.4300 -0.0284 -0.4772
 7147LIG    C1643100   3.022   1.468   5.938 -0.6411  0.3528  0.4131
 7147LIG    C1743101   3.129   1.527   5.873  0.0798 -0.4957 -0.2620
 7147LIG    C1843102   2.599   1.664   5.955 -0.7279 -0.1279  0.5592
 7147LIG    C1943103   2.637   1.737   6.079  0.4754 -0.6164 -0.3321
 7147LIG    C2043104   2.532   1.820   6.139  0.5590 -0.4456  0.4096
 7147LIG    C2143105   2.438   1.898   6.041  0.7974  0.3937 -0.5996
 7147LIG    C2243106   2.420   1.818   5.911  0.1732  0.3918 -0.5799
 7147LIG    C2343107   2.350   1.912   5.798 -0.4732 -0.3094 -0.2604
 7147LIG     H143108   2.707   1.340   5.494 -2.1987  1.2040  2.3134
 7147LIG     H243109   2.630   1.287   5.791 -0.7090  0.2893 -4.0782
 7147LIG     H343110   2.913   1.405   5.367 -3.4541 -0.4482 -0.0521
 7147LIG     H443111   2.742   1.133   5.637  0.3825 -0.5592 -1.2012
 7147LIG     H543112   2.862   1.130   5.774  0.3597 -1.9751 -1.6296
 7147LIG     H643113   3.068   1.523   5.483 -1.1927  1.2484  2.4104
 7147LIG     H743114   3.147   1.358   5.494  1.7501  0.2536  4.0102
 7147LIG     H843115   3.051   1.167   5.635 -0.0773  1.2250  0.8110
 7147LIG     H943116   2.968   1.025   5.576  0.5513  0.5651 -1.0929
 7147LIG    H1043117   2.551   1.500   5.794  0.0734  1.6619  0.7111
 7147LIG    H1143118   2.773   1.600   5.466 -1.0863 -0.8301 -1.0833
 7147LIG    H1243119   2.670   1.691   5.683  0.8995  0.5470  1.3716
 7147LIG    H1343120   2.827   1.207   5.264 -4.6936 -1.2277  1.3935
 7147LIG    H1443121   2.774   1.104   5.393  0.0775 -0.5847 -1.1368
 7147LIG    H1543122   2.925   1.070   5.292 -2.2914 -1.9917  0.9946
 7147LIG    H1643123   3.240   1.555   5.688  2.1053 -2.2573  0.3089
 7147LIG    H1743124   3.196   1.590   5.931  0.3957 -2.3846  1.5792
 7147LIG    H1843125   2.520   1.590   5.983 -0.1569 -1.6994 -1.6774
 7147LIG    H1943126   2.718   1.803   6.043 -2.2035  1.7398 -2.5000
 7147LIG    H2043127   2.468   1.752   6.200  1.7215 -1.9703  0.0039
 7147LIG    H2143128   3.073   1.547   6.100  2.8734 -1.4434 -3.4852
 7147LIG    H2243129   2.478   1.999   6.015 -3.0715  1.7044 -2.1218
 7147LIG    H2343130   2.342   1.740   5.925  0.2569 -0.0893 -2.4555
 7147LIG    H2443131   2.780   1.609   6.125 -1.8888 -2.3279  0.0021
 7147LIG    H2543132   2.614   1.863   6.309  0.0450  1.7256  1.3911
 7147LIG    H2643133   2.308   1.996   6.151  1.0332 -0.1534  0.1468
 7147LIG    H2743134   2.183   1.912   5.695  0.5287  0.7612  1.3557
   6.89396   6.89396   8.66534
